<event>
12    7  0.1544987E-007  0.2547719E+04  0.7818608E-02  0.8386180E-01
          2   -1    0    0  501    0  0.00000000000E+00  0.00000000000E+00  0.24002267956E+04  0.24002267956E+04  0.00000000000E+00 0. -1.
         -1   -1    0    0    0  501 -0.00000000000E+00 -0.00000000000E+00 -0.67606843231E+03  0.67606843231E+03  0.00000000000E+00 0.  1.
         24    2    1    2    0    0 -0.83590025766E+03 -0.73653753181E+03  0.71856808234E+03  0.13281740494E+04  0.80557060845E+02 0.  0.
        254    2    1    2    0    0  0.83590025766E+03  0.73653753181E+03  0.10055902810E+04  0.17481211785E+04  0.89638109366E+03 0.  0.
         23    2    4    4    0    0  0.55939258526E+02 -0.14939412667E+03 -0.17309902560E+02  0.18356294976E+03  0.89151096857E+02 0.  0.
         23    2    4    4    0    0  0.77996099914E+03  0.88593165849E+03  0.10229001836E+04  0.15645582288E+04  0.91124102248E+02 0.  0.
          2    1    3    3  502    0 -0.83545922457E+03 -0.73845509203E+03  0.71717473423E+03  0.13257630400E+04  0.00000000000E+00 0. -1.
         -1    1    3    3    0  502 -0.44103309162E+00  0.19175602127E+01  0.13933481100E+01  0.24110093971E+01  0.00000000000E+00 0.  1.
         13    1    5    5    0    0 -0.26174213335E+01 -0.79553276309E+01  0.23656418238E+02  0.25095104224E+02  0.00000000000E+00 0.  1.
        -13    1    5    5    0    0  0.58556679859E+02 -0.14143879904E+03 -0.40966320798E+02  0.15846784554E+03  0.00000000000E+00 0. -1.
          2    1    6    6  503    0  0.61910454125E+03  0.75055242129E+03  0.86089048566E+03  0.12991350193E+04  0.00000000000E+00 0. -1.
         -2    1    6    6    0  503  0.16085645788E+03  0.13537923720E+03  0.16200969791E+03  0.26542320946E+03  0.00000000000E+00 0.  1.
<mgrwt>
<rscale>  0 0.25477186E+04</rscale>
<asrwt>0</asrwt>
<pdfrwt beam="1">  1        2 0.36926566E+00 0.25477186E+04</pdfrwt>
<pdfrwt beam="2">  1       -1 0.10401053E+00 0.25477186E+04</pdfrwt>
<totfact> 0.34942993E+00</totfact>
</mgrwt>
</event>
<event>
12    7  0.1544987E-007  0.1674063E+04  0.7818608E-02  0.8776297E-01
         -1   -1    0    0    0  501 -0.00000000000E+00  0.00000000000E+00  0.35492859393E+03  0.35492859393E+03  0.00000000000E+00 0.  1.
          2   -1    0    0  501    0  0.00000000000E+00 -0.00000000000E+00 -0.19739798014E+04  0.19739798014E+04  0.00000000000E+00 0. -1.
         24    2    1    2    0    0  0.58335508932E+02 -0.91969486739E+02 -0.13984657812E+04  0.14049647885E+04  0.79737679906E+02 0.  0.
        254    2    1    2    0    0 -0.58335508932E+02  0.91969486739E+02 -0.22058542630E+03  0.92394360687E+03  0.89059106232E+03 0.  0.
         23    2    4    4    0    0  0.83192211203E+02  0.30025016842E+03 -0.46057129001E+03  0.56362530289E+03  0.92067699149E+02 0.  0.
         23    2    4    4    0    0 -0.14152772014E+03 -0.20828068168E+03  0.23998586371E+03  0.36031830399E+03  0.93942149640E+02 0.  0.
          4    1    3    3  502    0 -0.12009148847E+02 -0.49678104154E+02 -0.65196948549E+03  0.65396968103E+03  0.00000000000E+00 0. -1.
         -3    1    3    3    0  502  0.70344657779E+02 -0.42291382585E+02 -0.74649629568E+03  0.75099510743E+03  0.00000000000E+00 0.  1.
         13    1    5    5    0    0  0.70195470602E+02  0.18485006509E+03 -0.21571522674E+03  0.29262605780E+03  0.00000000000E+00 0. -1.
        -13    1    5    5    0    0  0.12996740601E+02  0.11540010334E+03 -0.24485606328E+03  0.27099924509E+03  0.00000000000E+00 0.  1.
          2    1    6    6  503    0 -0.11899299496E+03 -0.17526626474E+03  0.14347360655E+03  0.25585595983E+03  0.00000000000E+00 0. -1.
         -2    1    6    6    0  503 -0.22534725179E+02 -0.33014416948E+02  0.96512257159E+02  0.10446234416E+03  0.00000000000E+00 0.  1.
<mgrwt>
<rscale>  0 0.16740632E+04</rscale>
<asrwt>0</asrwt>
<pdfrwt beam="1">  1        2 0.30368921E+00 0.16740632E+04</pdfrwt>
<pdfrwt beam="2">  1       -1 0.54604398E-01 0.16740632E+04</pdfrwt>
<totfact> 0.25420412E+01</totfact>
</mgrwt>
</event>
<event>
12    7  0.1544987E-007  0.1988288E+04  0.7818608E-02  0.8612116E-01
          2   -1    0    0  501    0  0.00000000000E+00  0.00000000000E+00  0.13031145804E+04  0.13031145804E+04  0.00000000000E+00 0. -1.
         -1   -1    0    0    0  501 -0.00000000000E+00 -0.00000000000E+00 -0.75843057819E+03  0.75843057819E+03  0.00000000000E+00 0.  1.
         24    2    1    2    0    0  0.39956896433E+03 -0.45338893289E+03 -0.25523766134E+03  0.66072063074E+03  0.78667695964E+02 0.  0.
        254    2    1    2    0    0 -0.39956896433E+03  0.45338893289E+03  0.79992166354E+03  0.14008245278E+04  0.97837508567E+03 0.  0.
         23    2    4    4    0    0 -0.50776535288E+02  0.10734321628E+03 -0.21949054303E+03  0.26555409607E+03  0.90785774443E+02 0.  0.
         23    2    4    4    0    0 -0.34879242904E+03  0.34604571661E+03  0.10194122066E+04  0.11352704318E+04  0.90740893670E+02 0.  0.
          4    1    3    3  502    0  0.31443622645E+03 -0.33734550471E+03 -0.15995842236E+03  0.48811763637E+03  0.00000000000E+00 0. -1.
         -3    1    3    3    0  502  0.85132737886E+02 -0.11604342819E+03 -0.95279238981E+02  0.17260299437E+03  0.00000000000E+00 0.  1.
         13    1    5    5    0    0 -0.35436037951E+01  0.10152167934E+03 -0.15716725931E+03  0.18713833360E+03  0.00000000000E+00 0. -1.
        -13    1    5    5    0    0 -0.47232931493E+02  0.58215369450E+01 -0.62323283722E+02  0.78415762470E+02  0.00000000000E+00 0.  1.
          2    1    6    6  503    0 -0.34100048962E+03  0.33642159423E+03  0.10145810489E+04  0.11219783989E+04  0.00000000000E+00 0. -1.
         -2    1    6    6    0  503 -0.77919394248E+01  0.96241223809E+01  0.48311577055E+01  0.13292032816E+02  0.00000000000E+00 0.  1.
<mgrwt>
<rscale>  0 0.19882876E+04</rscale>
<asrwt>0</asrwt>
<pdfrwt beam="1">  1        2 0.20047917E+00 0.19882876E+04</pdfrwt>
<pdfrwt beam="2">  1       -1 0.11668163E+00 0.19882876E+04</pdfrwt>
<totfact> 0.11567306E+01</totfact>
</mgrwt>
</event>
<event>
12    7  0.1544987E-007  0.1645039E+04  0.7818608E-02  0.8793347E-01
          2   -1    0    0  501    0  0.00000000000E+00  0.00000000000E+00  0.16605097889E+04  0.16605097889E+04  0.00000000000E+00 0. -1.
         -1   -1    0    0    0  501 -0.00000000000E+00 -0.00000000000E+00 -0.40742808648E+03  0.40742808648E+03  0.00000000000E+00 0.  1.
         24    2    1    2    0    0 -0.53160324486E+03 -0.61270056781E+02  0.67499396591E+03  0.86504400523E+03  0.79550280690E+02 0.  0.
        254    2    1    2    0    0  0.53160324486E+03  0.61270056781E+02  0.57808773651E+03  0.12028938701E+04  0.90907216541E+03 0.  0.
         23    2    4    4    0    0  0.25627222000E+03  0.44738317059E+03  0.11955121764E+03  0.53697312733E+03  0.90666938622E+02 0.  0.
         23    2    4    4    0    0  0.27533102486E+03 -0.38611311381E+03  0.45853651887E+03  0.66592074282E+03  0.91127310218E+02 0.  0.
          4    1    3    3  502    0 -0.25830737793E+03 -0.50069096255E+02  0.27624843858E+03  0.38150074143E+03  0.00000000000E+00 0. -1.
         -3    1    3    3    0  502 -0.27329586694E+03 -0.11200960526E+02  0.39874552733E+03  0.48354326380E+03  0.00000000000E+00 0.  1.
         13    1    5    5    0    0  0.20751746844E+03  0.38974273897E+03  0.71009848627E+02  0.44721952203E+03  0.00000000000E+00 0.  1.
        -13    1    5    5    0    0  0.48754751558E+02  0.57640431625E+02  0.48541369014E+02  0.89753605293E+02  0.00000000000E+00 0. -1.
          2    1    6    6  503    0  0.16231789512E+03 -0.17230057844E+03  0.18230075372E+03  0.29877776559E+03  0.00000000000E+00 0. -1.
         -2    1    6    6    0  503  0.11301312975E+03 -0.21381253537E+03  0.27623576515E+03  0.36714297723E+03  0.00000000000E+00 0.  1.
<mgrwt>
<rscale>  0 0.16450390E+04</rscale>
<asrwt>0</asrwt>
<pdfrwt beam="1">  1        2 0.25546304E+00 0.16450390E+04</pdfrwt>
<pdfrwt beam="2">  1       -1 0.62681245E-01 0.16450390E+04</pdfrwt>
<totfact> 0.28993811E+01</totfact>
</mgrwt>
</event>
<event>
12    7  0.1544987E-007  0.1309112E+04  0.7818608E-02  0.9022370E-01
         -1   -1    0    0    0  501 -0.00000000000E+00  0.00000000000E+00  0.27724883215E+03  0.27724883215E+03  0.00000000000E+00 0.  1.
          2   -1    0    0  501    0  0.00000000000E+00 -0.00000000000E+00 -0.15453397759E+04  0.15453397759E+04  0.00000000000E+00 0. -1.
         24    2    1    2    0    0 -0.16828617017E+03 -0.27075028879E+03 -0.17695773844E+03  0.37369342975E+03  0.81894958932E+02 0.  0.
        254    2    1    2    0    0  0.16828617017E+03  0.27075028879E+03 -0.10911332053E+04  0.14488951783E+04  0.89838722831E+03 0.  0.
         23    2    4    4    0    0  0.70102490485E+02 -0.25174758711E+03 -0.56727808681E+02  0.28228757763E+03  0.90426906509E+02 0.  0.
         23    2    4    4    0    0  0.98183679680E+02  0.52249787590E+03 -0.10344053966E+04  0.11666076007E+04  0.91294600440E+02 0.  0.
          4    1    3    3  502    0  0.60055497175E+01 -0.36066381762E+01  0.28144066812E+01  0.75495265619E+01  0.00000000000E+00 0. -1.
         -3    1    3    3    0  502 -0.17429171988E+03 -0.26714365061E+03 -0.17977214512E+03  0.36614390319E+03  0.00000000000E+00 0.  1.
         13    1    5    5    0    0 -0.13475574446E+02 -0.26104601249E+02  0.12464722112E+02  0.31912546284E+02  0.00000000000E+00 0.  1.
        -13    1    5    5    0    0  0.83578064931E+02 -0.22564298586E+03 -0.69192530793E+02  0.25037503135E+03  0.00000000000E+00 0. -1.
          4    1    6    6  503    0  0.21191116691E+02  0.34843678839E+03 -0.66526424957E+03  0.75128808102E+03  0.00000000000E+00 0. -1.
         -4    1    6    6    0  503  0.76992562990E+02  0.17406108750E+03 -0.36914114705E+03  0.41531951963E+03  0.00000000000E+00 0.  1.
<mgrwt>
<rscale>  0 0.13091121E+04</rscale>
<asrwt>0</asrwt>
<pdfrwt beam="1">  1        2 0.23774459E+00 0.13091121E+04</pdfrwt>
<pdfrwt beam="2">  1       -1 0.42653666E-01 0.13091121E+04</pdfrwt>
<totfact> 0.72258803E+01</totfact>
</mgrwt>
</event>
<event>
12    7  0.1544987E-007  0.1888923E+04  0.7818608E-02  0.8660390E-01
         -1   -1    0    0    0  501 -0.00000000000E+00  0.00000000000E+00  0.20279145842E+04  0.20279145842E+04  0.00000000000E+00 0.  1.
          2   -1    0    0  501    0  0.00000000000E+00 -0.00000000000E+00 -0.43986467668E+03  0.43986467668E+03  0.00000000000E+00 0. -1.
         24    2    1    2    0    0 -0.96194245772E+02 -0.17862368249E+02 -0.32521556557E+03  0.34876446308E+03  0.79366803498E+02 0.  0.
        254    2    1    2    0    0  0.96194245772E+02  0.17862368249E+02  0.19132654731E+04  0.21190147978E+04  0.90557525676E+03 0.  0.
         23    2    4    4    0    0  0.17234594435E+03  0.32939175171E+03  0.16510718042E+04  0.16949339083E+04  0.92524593082E+02 0.  0.
         23    2    4    4    0    0 -0.76151698578E+02 -0.31152938346E+03  0.26219366892E+03  0.42408088951E+03  0.90826443664E+02 0.  0.
          2    1    3    3  502    0 -0.81299724118E+02  0.17976767903E+02 -0.25852703785E+03  0.27160456296E+03  0.00000000000E+00 0. -1.
         -3    1    3    3    0  502 -0.14894521654E+02 -0.35839136152E+02 -0.66688527727E+02  0.77159900116E+02  0.00000000000E+00 0.  1.
         13    1    5    5    0    0  0.14153546930E+03  0.27748389712E+03  0.11969588206E+04  0.12368265928E+04  0.00000000000E+00 0.  1.
        -13    1    5    5    0    0  0.30810475054E+02  0.51907854593E+02  0.45411298356E+03  0.45810731557E+03  0.00000000000E+00 0. -1.
          2    1    6    6  503    0  0.10641466551E+02 -0.26647552046E+01  0.23331312448E+01  0.11215401556E+02  0.00000000000E+00 0. -1.
         -2    1    6    6    0  503 -0.86793165129E+02 -0.30886462825E+03  0.25986053767E+03  0.41286548795E+03  0.00000000000E+00 0.  1.
<mgrwt>
<rscale>  0 0.18889235E+04</rscale>
<asrwt>0</asrwt>
<pdfrwt beam="1">  1        2 0.67671490E-01 0.18889235E+04</pdfrwt>
<pdfrwt beam="2">  1       -1 0.31198685E+00 0.18889235E+04</pdfrwt>
<totfact> 0.21135280E+00</totfact>
</mgrwt>
</event>
<event>
12    7  0.1544987E-007  0.1353098E+04  0.7818608E-02  0.8988486E-01
         -1   -1    0    0    0  501 -0.00000000000E+00  0.00000000000E+00  0.36127225031E+03  0.36127225031E+03  0.00000000000E+00 0.  1.
          2   -1    0    0  501    0  0.00000000000E+00 -0.00000000000E+00 -0.12669634671E+04  0.12669634671E+04  0.00000000000E+00 0. -1.
         24    2    1    2    0    0 -0.89240984727E+02  0.33681025181E+03 -0.11483835385E+03  0.37631725683E+03  0.83795770739E+02 0.  0.
        254    2    1    2    0    0  0.89240984727E+02 -0.33681025181E+03 -0.79085286296E+03  0.12519184606E+04  0.90578500875E+03 0.  0.
         23    2    4    4    0    0  0.35416092878E+03 -0.52026310932E+03 -0.51286080334E+03  0.81712587447E+03  0.92546338248E+02 0.  0.
         23    2    4    4    0    0 -0.26491994406E+03  0.18345285751E+03 -0.27799205962E+03  0.43479258614E+03  0.89036397396E+02 0.  0.
          4    1    3    3  502    0 -0.33522358938E+02  0.53086902125E+02  0.57254220213E+01  0.63045603997E+02  0.00000000000E+00 0. -1.
         -3    1    3    3    0  502 -0.55718625789E+02  0.28372334969E+03 -0.12056377587E+03  0.31327165284E+03  0.00000000000E+00 0.  1.
         13    1    5    5    0    0  0.95129729077E+02 -0.15055432127E+03 -0.94298331350E+02  0.20151536989E+03  0.00000000000E+00 0. -1.
        -13    1    5    5    0    0  0.25903119971E+03 -0.36970878805E+03 -0.41856247199E+03  0.61561050457E+03  0.00000000000E+00 0.  1.
          1    1    6    6  503    0 -0.12875653682E+03  0.86174306217E+02 -0.19179254926E+03  0.24655352112E+03  0.00000000000E+00 0. -1.
         -1    1    6    6    0  503 -0.13616340724E+03  0.97278551292E+02 -0.86199510360E+02  0.18823906502E+03  0.00000000000E+00 0.  1.
<mgrwt>
<rscale>  0 0.13530983E+04</rscale>
<asrwt>0</asrwt>
<pdfrwt beam="1">  1        2 0.19491746E+00 0.13530983E+04</pdfrwt>
<pdfrwt beam="2">  1       -1 0.55580346E-01 0.13530983E+04</pdfrwt>
<totfact> 0.62985136E+01</totfact>
</mgrwt>
</event>
<event>
12    7  0.1544987E-007  0.2545649E+04  0.7818608E-02  0.8386901E-01
         -1   -1    0    0    0  501 -0.00000000000E+00  0.00000000000E+00  0.38064265787E+03  0.38064265787E+03  0.00000000000E+00 0.  1.
          2   -1    0    0  501    0  0.00000000000E+00 -0.00000000000E+00 -0.42561756367E+04  0.42561756367E+04  0.00000000000E+00 0. -1.
         24    2    1    2    0    0  0.10744277137E+03 -0.57302946456E+03 -0.34254507985E+04  0.34757140049E+04  0.83474273815E+02 0.  0.
        254    2    1    2    0    0 -0.10744277137E+03  0.57302946456E+03 -0.45008218035E+03  0.11611042897E+04  0.89759817633E+03 0.  0.
         23    2    4    4    0    0  0.10525956780E+03  0.48271804560E+03 -0.66423079986E+03  0.83280741209E+03  0.90935922408E+02 0.  0.
         23    2    4    4    0    0 -0.21270233917E+03  0.90311418958E+02  0.21414861951E+03  0.32829687763E+03  0.92308023147E+02 0.  0.
          2    1    3    3  502    0  0.21740485772E+02 -0.30445763110E+03 -0.16441637905E+04  0.16722564599E+04  0.00000000000E+00 0. -1.
         -1    1    3    3    0  502  0.85702285601E+02 -0.26857183346E+03 -0.17812870081E+04  0.18034575450E+04  0.00000000000E+00 0.  1.
         13    1    5    5    0    0  0.11961060040E+03  0.37899367208E+03 -0.53571915283E+03  0.66703666310E+03  0.00000000000E+00 0.  1.
        -13    1    5    5    0    0 -0.14351032603E+02  0.10372437352E+03 -0.12851164703E+03  0.16577074899E+03  0.00000000000E+00 0. -1.
          2    1    6    6  503    0  0.57123171883E+00  0.21121336783E+02  0.50801295277E+01  0.21731196221E+02  0.00000000000E+00 0. -1.
         -2    1    6    6    0  503 -0.21327357089E+03  0.69190082175E+02  0.20906848998E+03  0.30656568141E+03  0.00000000000E+00 0.  1.
<mgrwt>
<rscale>  0 0.25456488E+04</rscale>
<asrwt>0</asrwt>
<pdfrwt beam="1">  1        2 0.65479625E+00 0.25456488E+04</pdfrwt>
<pdfrwt beam="2">  1       -1 0.58560409E-01 0.25456488E+04</pdfrwt>
<totfact> 0.62236140E-01</totfact>
</mgrwt>
</event>
<event>
12    7  0.1544987E-007  0.1939436E+04  0.7818608E-02  0.8635472E-01
         -1   -1    0    0    0  501 -0.00000000000E+00  0.00000000000E+00  0.53410613746E+03  0.53410613746E+03  0.00000000000E+00 0.  1.
          2   -1    0    0  501    0  0.00000000000E+00 -0.00000000000E+00 -0.17606101981E+04  0.17606101981E+04  0.00000000000E+00 0. -1.
         24    2    1    2    0    0 -0.39074679248E+03  0.42155892980E+03  0.11149656803E+03  0.59090138660E+03  0.79611411740E+02 0.  0.
        254    2    1    2    0    0  0.39074679248E+03 -0.42155892980E+03 -0.13380006287E+04  0.17038149490E+04  0.88450252167E+03 0.  0.
         23    2    4    4    0    0 -0.23061658242E+03 -0.12397283934E+03 -0.12105788915E+03  0.30248472700E+03  0.91042432759E+02 0.  0.
         23    2    4    4    0    0  0.62136337489E+03 -0.29758609045E+03 -0.12169427395E+04  0.14013302220E+04  0.90148958984E+02 0.  0.
          2    1    3    3  502    0 -0.52568224182E+02  0.83698172196E+02 -0.47033466862E+01  0.98949096472E+02  0.00000000000E+00 0. -1.
         -1    1    3    3    0  502 -0.33817856830E+03  0.33786075760E+03  0.11619991472E+03  0.49195229013E+03  0.00000000000E+00 0.  1.
         13    1    5    5    0    0  0.27327467468E+01 -0.12008905992E+02  0.65139659201E+01  0.13932461373E+02  0.00000000000E+00 0.  1.
        -13    1    5    5    0    0 -0.23334932916E+03 -0.11196393335E+03 -0.12757185507E+03  0.28855226563E+03  0.00000000000E+00 0. -1.
          1    1    6    6  503    0  0.18158159367E+03 -0.97937365468E+02 -0.28715867796E+03  0.35358691865E+03  0.00000000000E+00 0. -1.
         -1    1    6    6    0  503  0.43978178122E+03 -0.19964872498E+03 -0.92978406158E+03  0.10477433033E+04  0.00000000000E+00 0.  1.
<mgrwt>
<rscale>  0 0.19394357E+04</rscale>
<asrwt>0</asrwt>
<pdfrwt beam="1">  1        2 0.27086310E+00 0.19394357E+04</pdfrwt>
<pdfrwt beam="2">  1       -1 0.82170176E-01 0.19394357E+04</pdfrwt>
<totfact> 0.14212231E+01</totfact>
</mgrwt>
</event>
<event>
12    7  0.1544987E-007  0.2130665E+04  0.7818608E-02  0.8547854E-01
         -1   -1    0    0    0  501 -0.00000000000E+00  0.00000000000E+00  0.81753156199E+03  0.81753156199E+03  0.00000000000E+00 0.  1.
          4   -1    0    0  501    0  0.00000000000E+00 -0.00000000000E+00 -0.13882438069E+04  0.13882438069E+04  0.00000000000E+00 0. -1.
         24    2    1    2    0    0  0.17669119238E+03  0.36106050949E+03  0.57205703901E+03  0.70395184938E+03  0.81941939097E+02 0.  0.
        254    2    1    2    0    0 -0.17669119238E+03 -0.36106050949E+03 -0.11427692840E+04  0.15018235196E+04  0.88767549169E+03 0.  0.
         23    2    4    4    0    0  0.22137110110E+03 -0.11422914891E+03 -0.95322274626E+03  0.98881508284E+03  0.84072594823E+02 0.  0.
         23    2    4    4    0    0 -0.39806229347E+03 -0.24683136058E+03 -0.18954653771E+03  0.51300843672E+03  0.88715591324E+02 0.  0.
          4    1    3    3  502    0  0.51742759647E+02  0.39031965815E+02  0.92147420181E+02  0.11265857525E+03  0.00000000000E+00 0. -1.
         -3    1    3    3    0  502  0.12494843273E+03  0.32202854368E+03  0.47990961883E+03  0.59129327413E+03  0.00000000000E+00 0.  1.
         13    1    5    5    0    0  0.10948704430E+03 -0.32764900370E+02 -0.29862406374E+03  0.31974565362E+03  0.00000000000E+00 0. -1.
        -13    1    5    5    0    0  0.11188405680E+03 -0.81464248544E+02 -0.65459868251E+03  0.66906942921E+03  0.00000000000E+00 0.  1.
          4    1    6    6  503    0 -0.34373490274E+03 -0.20829135163E+03 -0.12666321506E+03  0.42140543491E+03  0.00000000000E+00 0. -1.
         -4    1    6    6    0  503 -0.54327390735E+02 -0.38540008944E+02 -0.62883322648E+02  0.91603001811E+02  0.00000000000E+00 0.  1.
<mgrwt>
<rscale>  0 0.21306648E+04</rscale>
<asrwt>0</asrwt>
<pdfrwt beam="1">  1        4 0.21357597E+00 0.21306648E+04</pdfrwt>
<pdfrwt beam="2">  1       -1 0.12577409E+00 0.21306648E+04</pdfrwt>
<totfact> 0.22267280E-01</totfact>
</mgrwt>
</event>
<event>
12    7  0.1544987E-007  0.1155293E+04  0.7818608E-02  0.9152915E-01
         -1   -1    0    0    0  501 -0.00000000000E+00  0.00000000000E+00  0.12374200784E+03  0.12374200784E+03  0.00000000000E+00 0.  1.
          2   -1    0    0  501    0  0.00000000000E+00 -0.00000000000E+00 -0.26965401086E+04  0.26965401086E+04  0.00000000000E+00 0. -1.
         24    2    1    2    0    0 -0.57662782254E+02  0.15707477118E+03 -0.16051059390E+03  0.24363380214E+03  0.74808412564E+02 0.  0.
        254    2    1    2    0    0  0.57662782254E+02 -0.15707477118E+03 -0.24122875068E+04  0.25766483143E+04  0.88993709874E+03 0.  0.
         23    2    4    4    0    0 -0.17353596506E+03 -0.46276786324E+03 -0.15296317840E+04  0.16100012104E+04  0.89786839621E+02 0.  0.
         23    2    4    4    0    0  0.23119874731E+03  0.30569309206E+03 -0.88265572283E+03  0.96664710385E+03  0.91784372567E+02 0.  0.
          4    1    3    3  502    0 -0.35385580769E+02  0.13419838802E+02 -0.30478863296E+02  0.48592103347E+02  0.00000000000E+00 0. -1.
         -3    1    3    3    0  502 -0.22277201485E+02  0.14365493238E+03 -0.13003173061E+03  0.19504169879E+03  0.00000000000E+00 0.  1.
         13    1    5    5    0    0 -0.32173476213E+01 -0.17603921526E+01 -0.65171671246E+02  0.65274781035E+02  0.00000000000E+00 0. -1.
        -13    1    5    5    0    0 -0.17031861744E+03 -0.46100747108E+03 -0.14644601128E+04  0.15447264294E+04  0.00000000000E+00 0.  1.
          3    1    6    6  503    0  0.15385140992E+02  0.19140671978E+02 -0.17757999438E+02  0.30305353176E+02  0.00000000000E+00 0. -1.
         -3    1    6    6    0  503  0.21581360632E+03  0.28655242008E+03 -0.86489772340E+03  0.93634175068E+03  0.00000000000E+00 0.  1.
<mgrwt>
<rscale>  0 0.11552927E+04</rscale>
<asrwt>0</asrwt>
<pdfrwt beam="1">  1        2 0.41485230E+00 0.11552927E+04</pdfrwt>
<pdfrwt beam="2">  1       -1 0.19037233E-01 0.11552927E+04</pdfrwt>
<totfact> 0.67509302E+01</totfact>
</mgrwt>
</event>
<event>
12    7  0.1544987E-007  0.1254415E+04  0.7818608E-02  0.9066516E-01
         -1   -1    0    0    0  501 -0.00000000000E+00  0.00000000000E+00  0.24511282614E+03  0.24511282614E+03  0.00000000000E+00 0.  1.
          2   -1    0    0  501    0  0.00000000000E+00 -0.00000000000E+00 -0.16049325421E+04  0.16049325421E+04  0.00000000000E+00 0. -1.
         24    2    1    2    0    0 -0.10078768155E+03  0.11088751516E+03  0.37567465839E+02  0.18152659836E+03  0.95322576824E+02 0.  0.
        254    2    1    2    0    0  0.10078768155E+03 -0.11088751516E+03 -0.13973871818E+04  0.16685187699E+04  0.89933850792E+03 0.  0.
         23    2    4    4    0    0 -0.34391814110E+03  0.44769045021E+02 -0.28895734730E+03  0.46065956485E+03  0.91798316754E+02 0.  0.
         23    2    4    4    0    0  0.44470582265E+03 -0.15565656018E+03 -0.11084298345E+04  0.12078592050E+04  0.91186225656E+02 0.  0.
          2    1    3    3  502    0  0.77704234905E+01 -0.11560647316E+02  0.21130016955E+01  0.14088748125E+02  0.00000000000E+00 0. -1.
         -1    1    3    3    0  502 -0.10855810504E+03  0.12244816248E+03  0.35454464144E+02  0.16743785024E+03  0.00000000000E+00 0.  1.
         13    1    5    5    0    0 -0.31800386101E+03  0.45811058453E+02 -0.29249225264E+03  0.43448455271E+03  0.00000000000E+00 0. -1.
        -13    1    5    5    0    0 -0.25914280091E+02 -0.10420134324E+01  0.35349053366E+01  0.26175012137E+02  0.00000000000E+00 0.  1.
          2    1    6    6  503    0  0.43795134675E+03 -0.13536327823E+03 -0.10531356197E+04  0.11485726937E+04  0.00000000000E+00 0. -1.
         -2    1    6    6    0  503  0.67544759025E+01 -0.20293281948E+02 -0.55294214751E+02  0.59286511298E+02  0.00000000000E+00 0.  1.
<mgrwt>
<rscale>  0 0.12544155E+04</rscale>
<asrwt>0</asrwt>
<pdfrwt beam="1">  1        2 0.24691270E+00 0.12544155E+04</pdfrwt>
<pdfrwt beam="2">  1       -1 0.37709665E-01 0.12544155E+04</pdfrwt>
<totfact> 0.84168918E+01</totfact>
</mgrwt>
</event>
<event>
12    7  0.1544987E-007  0.2016090E+04  0.7818608E-02  0.8599135E-01
         -1   -1    0    0    0  501 -0.00000000000E+00  0.00000000000E+00  0.65006526326E+03  0.65006526326E+03  0.00000000000E+00 0.  1.
          2   -1    0    0  501    0  0.00000000000E+00 -0.00000000000E+00 -0.15631576112E+04  0.15631576112E+04  0.00000000000E+00 0. -1.
         24    2    1    2    0    0 -0.27484273862E+03  0.56468391660E+03  0.18469144805E+03  0.65948545421E+03  0.80022976011E+02 0.  0.
        254    2    1    2    0    0  0.27484273862E+03 -0.56468391660E+03 -0.10977837960E+04  0.15537374203E+04  0.90253213336E+03 0.  0.
         23    2    4    4    0    0  0.46202690071E+02  0.70314217453E+02  0.11150489900E+03  0.16591428029E+03  0.89528923577E+02 0.  0.
         23    2    4    4    0    0  0.22864004855E+03 -0.63499813406E+03 -0.12092886950E+04  0.13878231400E+04  0.90415805872E+02 0.  0.
          2    1    3    3  502    0 -0.15094946250E+01  0.38618220883E+02  0.35115338950E+00  0.38649306163E+02  0.00000000000E+00 0. -1.
         -1    1    3    3    0  502 -0.27333324400E+03  0.52606569572E+03  0.18434029466E+03  0.62083614805E+03  0.00000000000E+00 0.  1.
         13    1    5    5    0    0  0.22292464599E+02  0.70547260483E+00 -0.95328811747E+01  0.24255463158E+02  0.00000000000E+00 0. -1.
        -13    1    5    5    0    0  0.23910225472E+02  0.69608744848E+02  0.12103778017E+03  0.14165881713E+03  0.00000000000E+00 0.  1.
          4    1    6    6  503    0  0.44893249963E+02 -0.56288370979E+02 -0.16145393392E+03  0.17677996882E+03  0.00000000000E+00 0. -1.
         -4    1    6    6    0  503  0.18374679859E+03 -0.57870976308E+03 -0.10478347611E+04  0.12110431712E+04  0.00000000000E+00 0.  1.
<mgrwt>
<rscale>  0 0.20160897E+04</rscale>
<asrwt>0</asrwt>
<pdfrwt beam="1">  1        2 0.24048578E+00 0.20160897E+04</pdfrwt>
<pdfrwt beam="2">  1       -1 0.10001004E+00 0.20160897E+04</pdfrwt>
<totfact> 0.11780090E+01</totfact>
</mgrwt>
</event>
<event>
12    7  0.1544987E-007  0.1742392E+04  0.7818608E-02  0.8737549E-01
          2   -1    0    0  501    0  0.00000000000E+00  0.00000000000E+00  0.62762175727E+03  0.62762175727E+03  0.00000000000E+00 0. -1.
         -1   -1    0    0    0  501 -0.00000000000E+00 -0.00000000000E+00 -0.12092995631E+04  0.12092995631E+04  0.00000000000E+00 0.  1.
         24    2    1    2    0    0  0.43140402622E+03 -0.30029601720E+03  0.15524723824E+03  0.55371516407E+03  0.78813997185E+02 0.  0.
        254    2    1    2    0    0 -0.43140402622E+03  0.30029601720E+03 -0.73692504403E+03  0.12832061563E+04  0.90954515399E+03 0.  0.
         23    2    4    4    0    0 -0.79528807321E+02  0.33820188864E+03 -0.83023553369E+03  0.90550431116E+03  0.99707910646E+02 0.  0.
         23    2    4    4    0    0 -0.35187521890E+03 -0.37905871444E+02  0.93310489662E+02  0.37770184510E+03  0.93267419504E+02 0.  0.
          2    1    3    3  502    0  0.33845702797E+03 -0.21865019072E+03  0.14978745013E+03  0.42988061819E+03  0.00000000000E+00 0. -1.
         -1    1    3    3    0  502  0.92946998254E+02 -0.81645826483E+02  0.54597881158E+01  0.12383454588E+03  0.00000000000E+00 0.  1.
         13    1    5    5    0    0 -0.79748575506E+02  0.34461792923E+03 -0.80189295053E+03  0.87644375550E+03  0.00000000000E+00 0.  1.
        -13    1    5    5    0    0  0.21976818529E+00 -0.64160405893E+01 -0.28342583166E+02  0.29060555663E+02  0.00000000000E+00 0. -1.
          1    1    6    6  503    0 -0.13811304328E+03 -0.39045667553E+02 -0.22630407344E+01  0.14354406373E+03  0.00000000000E+00 0. -1.
         -1    1    6    6    0  503 -0.21376217562E+03  0.11397961099E+01  0.95573530397E+02  0.23415778136E+03  0.00000000000E+00 0.  1.
<mgrwt>
<rscale>  0 0.17423923E+04</rscale>
<asrwt>0</asrwt>
<pdfrwt beam="1">  1        2 0.96557193E-01 0.17423923E+04</pdfrwt>
<pdfrwt beam="2">  1       -1 0.18604609E+00 0.17423923E+04</pdfrwt>
<totfact> 0.95813482E+00</totfact>
</mgrwt>
</event>
<event>
12    7  0.1544987E-007  0.1670480E+04  0.7818608E-02  0.8778382E-01
         -1   -1    0    0    0  501 -0.00000000000E+00  0.00000000000E+00  0.12160696006E+04  0.12160696006E+04  0.00000000000E+00 0.  1.
          2   -1    0    0  501    0  0.00000000000E+00 -0.00000000000E+00 -0.57367283768E+03  0.57367283768E+03  0.00000000000E+00 0. -1.
         24    2    1    2    0    0 -0.45954246663E+03 -0.16455805109E+03 -0.12759754140E+03  0.51092448513E+03  0.80647790497E+02 0.  0.
        254    2    1    2    0    0  0.45954246663E+03  0.16455805109E+03  0.76999430432E+03  0.12788179531E+04  0.89678620517E+03 0.  0.
         23    2    4    4    0    0  0.39284820321E+03 -0.12407512937E+03 -0.27764505572E+02  0.42284912454E+03  0.91138169070E+02 0.  0.
         23    2    4    4    0    0  0.66694263423E+02  0.28863318047E+03  0.79775880989E+03  0.85596882861E+03  0.92229491712E+02 0.  0.
          4    1    3    3  502    0 -0.41193608068E+03 -0.14741299166E+03 -0.87075086861E+02  0.44609863867E+03  0.00000000000E+00 0. -1.
         -3    1    3    3    0  502 -0.47606385955E+02 -0.17145059434E+02 -0.40522454536E+02  0.64825846453E+02  0.00000000000E+00 0.  1.
         13    1    5    5    0    0  0.39210830641E+03 -0.13212585416E+03 -0.28367997733E+02  0.41474197833E+03  0.00000000000E+00 0.  1.
        -13    1    5    5    0    0  0.73989680412E+00  0.80507247916E+01  0.60349216106E+00  0.81071462142E+01  0.00000000000E+00 0. -1.
          1    1    6    6  503    0  0.61188561726E+01 -0.64297301598E+01  0.28008030224E+02  0.29380803049E+02  0.00000000000E+00 0. -1.
         -1    1    6    6    0  503  0.60575407250E+02  0.29506291063E+03  0.76975077967E+03  0.82658802556E+03  0.00000000000E+00 0.  1.
<mgrwt>
<rscale>  0 0.16704803E+04</rscale>
<asrwt>0</asrwt>
<pdfrwt beam="1">  1        2 0.88257360E-01 0.16704803E+04</pdfrwt>
<pdfrwt beam="2">  1       -1 0.18708763E+00 0.16704803E+04</pdfrwt>
<totfact> 0.10567066E+01</totfact>
</mgrwt>
</event>
<event>
12    7  0.1544987E-007  0.2426007E+04  0.7818608E-02  0.8429831E-01
          2   -1    0    0  501    0  0.00000000000E+00  0.00000000000E+00  0.14226787599E+04  0.14226787599E+04  0.00000000000E+00 0. -1.
         -1   -1    0    0    0  501 -0.00000000000E+00 -0.00000000000E+00 -0.10342298852E+04  0.10342298852E+04  0.00000000000E+00 0.  1.
         24    2    1    2    0    0 -0.78345089655E+03  0.28835432274E+03 -0.46418011852E+03  0.95847122717E+03  0.79122614561E+02 0.  0.
        254    2    1    2    0    0  0.78345089655E+03 -0.28835432274E+03  0.85262899320E+03  0.14984374180E+04  0.90630843139E+03 0.  0.
         23    2    4    4    0    0  0.71791182831E+03 -0.17537536713E+03  0.12688012532E+03  0.75539717100E+03  0.91500858574E+02 0.  0.
         23    2    4    4    0    0  0.65539068233E+02 -0.11297895561E+03  0.72574886788E+03  0.74304024698E+03  0.91311420622E+02 0.  0.
          2    1    3    3  502    0 -0.43126832556E+02  0.26199446806E+02 -0.10706013219E+02  0.51584429999E+02  0.00000000000E+00 0. -1.
         -1    1    3    3    0  502 -0.74032406399E+03  0.26215487594E+03 -0.45347410530E+03  0.90688679717E+03  0.00000000000E+00 0.  1.
         13    1    5    5    0    0  0.58298999260E+03 -0.13691446833E+03  0.66057228907E+02  0.60248357704E+03  0.00000000000E+00 0.  1.
        -13    1    5    5    0    0  0.13492183571E+03 -0.38460898802E+02  0.60822896417E+02  0.15291359396E+03  0.00000000000E+00 0. -1.
          3    1    6    6  503    0  0.73444108373E+01 -0.18483672319E+02  0.36653079845E+03  0.36707003790E+03  0.00000000000E+00 0. -1.
         -3    1    6    6    0  503  0.58194657395E+02 -0.94495283289E+02  0.35921806943E+03  0.37597020908E+03  0.00000000000E+00 0.  1.
<mgrwt>
<rscale>  0 0.24260065E+04</rscale>
<asrwt>0</asrwt>
<pdfrwt beam="1">  1        2 0.21887366E+00 0.24260065E+04</pdfrwt>
<pdfrwt beam="2">  1       -1 0.15911229E+00 0.24260065E+04</pdfrwt>
<totfact> 0.42616501E+00</totfact>
</mgrwt>
</event>
<event>
12    7  0.1544987E-007  0.1324561E+04  0.7818608E-02  0.9010312E-01
          2   -1    0    0  501    0  0.00000000000E+00  0.00000000000E+00  0.78037271022E+03  0.78037271022E+03  0.00000000000E+00 0. -1.
         -1   -1    0    0    0  501 -0.00000000000E+00 -0.00000000000E+00 -0.56205867516E+03  0.56205867516E+03  0.00000000000E+00 0.  1.
         24    2    1    2    0    0 -0.29729317944E+03  0.81098429646E+02 -0.12813624681E+03  0.34291775140E+03  0.78825735924E+02 0.  0.
        254    2    1    2    0    0  0.29729317944E+03 -0.81098429646E+02  0.34645028187E+03  0.99951363398E+03  0.88546005944E+03 0.  0.
         23    2    4    4    0    0  0.14876202565E+03 -0.45975366140E+03  0.63871259732E+02  0.49581962641E+03  0.90851497907E+02 0.  0.
         23    2    4    4    0    0  0.14853115379E+03  0.37865523175E+03  0.28257902214E+03  0.50369400757E+03  0.91735823569E+02 0.  0.
          2    1    3    3  502    0 -0.14648314277E+02 -0.10689214676E+02  0.24838443364E+01  0.18303057237E+02  0.00000000000E+00 0. -1.
         -1    1    3    3    0  502 -0.28264486517E+03  0.91787644322E+02 -0.13062009114E+03  0.32461469416E+03  0.00000000000E+00 0.  1.
         13    1    5    5    0    0  0.15814745783E+02 -0.41163354568E+02 -0.20441568944E+02  0.48604379272E+02  0.00000000000E+00 0.  1.
        -13    1    5    5    0    0  0.13294727987E+03 -0.41859030683E+03  0.84312828676E+02  0.44721524714E+03  0.00000000000E+00 0. -1.
          3    1    6    6  503    0  0.96734947675E+02  0.29136246272E+03  0.16559985904E+03  0.34881663965E+03  0.00000000000E+00 0. -1.
         -3    1    6    6    0  503  0.51796206118E+02  0.87292769032E+02  0.11697916309E+03  0.15487736791E+03  0.00000000000E+00 0.  1.
<mgrwt>
<rscale>  0 0.13245607E+04</rscale>
<asrwt>0</asrwt>
<pdfrwt beam="1">  1        2 0.12005734E+00 0.13245607E+04</pdfrwt>
<pdfrwt beam="2">  1       -1 0.86470565E-01 0.13245607E+04</pdfrwt>
<totfact> 0.52482469E+01</totfact>
</mgrwt>
</event>
<event>
12    7  0.1544987E-007  0.1624118E+04  0.7818608E-02  0.8805867E-01
         -1   -1    0    0    0  501 -0.00000000000E+00  0.00000000000E+00  0.19287871778E+04  0.19287871778E+04  0.00000000000E+00 0.  1.
          2   -1    0    0  501    0  0.00000000000E+00 -0.00000000000E+00 -0.34189361468E+03  0.34189361468E+03  0.00000000000E+00 0. -1.
         24    2    1    2    0    0 -0.38486086780E+03  0.39645996757E+03  0.67423045724E+03  0.87500234152E+03  0.75789146609E+02 0.  0.
        254    2    1    2    0    0  0.38486086780E+03 -0.39645996757E+03  0.91266310592E+03  0.13956784510E+04  0.89981442544E+03 0.  0.
         23    2    4    4    0    0  0.59368725297E+03 -0.11772394765E+03  0.81753902542E+03  0.10213412198E+04  0.91893128566E+02 0.  0.
         23    2    4    4    0    0 -0.20882638516E+03 -0.27873601993E+03  0.95124080501E+02  0.37433723116E+03  0.98881464386E+02 0.  0.
          4    1    3    3  502    0 -0.16650805311E+03  0.11911779182E+03  0.24712876798E+03  0.32091526614E+03  0.00000000000E+00 0. -1.
         -3    1    3    3    0  502 -0.21835281470E+03  0.27734217576E+03  0.42710168926E+03  0.55408707539E+03  0.00000000000E+00 0.  1.
         13    1    5    5    0    0  0.30833017688E+03 -0.57592212479E+02  0.34693426842E+03  0.46770476533E+03  0.00000000000E+00 0.  1.
        -13    1    5    5    0    0  0.28535707609E+03 -0.60131735168E+02  0.47060475700E+03  0.55363645451E+03  0.00000000000E+00 0. -1.
          1    1    6    6  503    0 -0.79756994913E+02 -0.10195681682E+03 -0.13197326897E+02  0.13011740918E+03  0.00000000000E+00 0. -1.
         -1    1    6    6    0  503 -0.12906939025E+03 -0.17677920310E+03  0.10832140740E+03  0.24421982198E+03  0.00000000000E+00 0.  1.
<mgrwt>
<rscale>  0 0.16241182E+04</rscale>
<asrwt>0</asrwt>
<pdfrwt beam="1">  1        2 0.52599019E-01 0.16241182E+04</pdfrwt>
<pdfrwt beam="2">  1       -1 0.29673648E+00 0.16241182E+04</pdfrwt>
<totfact> 0.36091313E+00</totfact>
</mgrwt>
</event>
<event>
12    7  0.1544987E-007  0.1241013E+04  0.7818608E-02  0.9077696E-01
         -1   -1    0    0    0  501 -0.00000000000E+00  0.00000000000E+00  0.44961743150E+03  0.44961743150E+03  0.00000000000E+00 0.  1.
          2   -1    0    0  501    0  0.00000000000E+00 -0.00000000000E+00 -0.85634705085E+03  0.85634705085E+03  0.00000000000E+00 0. -1.
         24    2    1    2    0    0 -0.16064578924E+03  0.17926641905E+03 -0.26303704988E+03  0.36559895887E+03  0.80812069123E+02 0.  0.
        254    2    1    2    0    0  0.16064578924E+03 -0.17926641905E+03 -0.14369256947E+03  0.94036552348E+03  0.89760584035E+03 0.  0.
         23    2    4    4    0    0  0.70863090962E+02 -0.27699587782E+03 -0.48029878886E+03  0.56626434969E+03  0.90664729407E+02 0.  0.
         23    2    4    4    0    0  0.89782698280E+02  0.97729458774E+02  0.33660621939E+03  0.37410117380E+03  0.95057673445E+02 0.  0.
          2    1    3    3  502    0 -0.10514060593E+03  0.70082631871E+02 -0.16985672111E+03  0.21170127069E+03  0.00000000000E+00 0. -1.
         -1    1    3    3    0  502 -0.55505183314E+02  0.10918378718E+03 -0.93180328769E+02  0.15389768818E+03  0.00000000000E+00 0.  1.
         13    1    5    5    0    0  0.46202071012E+02 -0.80715528973E+02 -0.93858079636E+02  0.13213238474E+03  0.00000000000E+00 0. -1.
        -13    1    5    5    0    0  0.24661019951E+02 -0.19628034885E+03 -0.38644070922E+03  0.43413196495E+03  0.00000000000E+00 0.  1.
          4    1    6    6  503    0  0.53316484684E+02 -0.45930070434E+01  0.13228679053E+03  0.14270086966E+03  0.00000000000E+00 0. -1.
         -4    1    6    6    0  503  0.36466213596E+02  0.10232246582E+03  0.20431942886E+03  0.23140030414E+03  0.00000000000E+00 0.  1.
<mgrwt>
<rscale>  0 0.12410134E+04</rscale>
<asrwt>0</asrwt>
<pdfrwt beam="1">  1        2 0.13174570E+00 0.12410134E+04</pdfrwt>
<pdfrwt beam="2">  1       -1 0.69171913E-01 0.12410134E+04</pdfrwt>
<totfact> 0.74628779E+01</totfact>
</mgrwt>
</event>
<event>
12    7  0.1544987E-007  0.1016082E+04  0.7818608E-02  0.9291081E-01
         -1   -1    0    0    0  501 -0.00000000000E+00  0.00000000000E+00  0.17235894052E+03  0.17235894052E+03  0.00000000000E+00 0.  1.
          2   -1    0    0  501    0  0.00000000000E+00 -0.00000000000E+00 -0.14974879411E+04  0.14974879411E+04  0.00000000000E+00 0. -1.
         24    2    1    2    0    0  0.75500075719E+02  0.15663497842E+02 -0.19431614459E+03  0.22295736097E+03  0.77495897728E+02 0.  0.
        254    2    1    2    0    0 -0.75500075719E+02 -0.15663497842E+02 -0.11308128560E+04  0.14468895206E+04  0.89933640149E+03 0.  0.
         23    2    4    4    0    0  0.10230421583E+03 -0.42463172710E+03 -0.60418207937E+03  0.75110990658E+03  0.91388459311E+02 0.  0.
         23    2    4    4    0    0 -0.17780429155E+03  0.40896822925E+03 -0.52663077658E+03  0.69577961403E+03  0.88881481874E+02 0.  0.
          2    1    3    3  502    0  0.86811244662E+02 -0.31915487477E+01 -0.14631764224E+03  0.17016236544E+03  0.00000000000E+00 0. -1.
         -1    1    3    3    0  502 -0.11311168943E+02  0.18855046590E+02 -0.47998502351E+02  0.52794995527E+02  0.00000000000E+00 0.  1.
         13    1    5    5    0    0  0.10697720562E+03 -0.25526193899E+03 -0.37922677906E+03  0.46948453646E+03  0.00000000000E+00 0.  1.
        -13    1    5    5    0    0 -0.46729897905E+01 -0.16936978810E+03 -0.22495530031E+03  0.28162537012E+03  0.00000000000E+00 0. -1.
          4    1    6    6  503    0 -0.41533601231E+02  0.20650611503E+03 -0.24018533804E+03  0.31946644923E+03  0.00000000000E+00 0. -1.
         -4    1    6    6    0  503 -0.13627069032E+03  0.20246211422E+03 -0.28644543855E+03  0.37631316480E+03  0.00000000000E+00 0.  1.
<mgrwt>
<rscale>  0 0.10160816E+04</rscale>
<asrwt>0</asrwt>
<pdfrwt beam="1">  1        2 0.23038275E+00 0.10160816E+04</pdfrwt>
<pdfrwt beam="2">  1       -1 0.26516761E-01 0.10160816E+04</pdfrwt>
<totfact> 0.18302088E+02</totfact>
</mgrwt>
</event>
<event>
12    7  0.1544987E-007  0.1292177E+04  0.7818608E-02  0.9035792E-01
         -1   -1    0    0    0  501 -0.00000000000E+00  0.00000000000E+00  0.26179462739E+03  0.26179462739E+03  0.00000000000E+00 0.  1.
          2   -1    0    0  501    0  0.00000000000E+00 -0.00000000000E+00 -0.15944951009E+04  0.15944951009E+04  0.00000000000E+00 0. -1.
         24    2    1    2    0    0 -0.10424725149E+03 -0.24379642878E+03 -0.77592523845E+02  0.28710184521E+03  0.78119662287E+02 0.  0.
        254    2    1    2    0    0  0.10424725149E+03  0.24379642878E+03 -0.12551079497E+04  0.15691878831E+04  0.90374247383E+03 0.  0.
         23    2    4    4    0    0 -0.54034503597E+02 -0.28934642520E+02  0.11504999111E+03  0.16027009891E+03  0.93236597067E+02 0.  0.
         23    2    4    4    0    0  0.15828175509E+03  0.27273107130E+03 -0.13701579408E+04  0.14089177842E+04  0.91001036639E+02 0.  0.
          4    1    3    3  502    0  0.44539352933E+01  0.35741135112E+01  0.78329013801E+00  0.57641452470E+01  0.00000000000E+00 0. -1.
         -3    1    3    3    0  502 -0.10870118679E+03 -0.24737054229E+03 -0.78375813983E+02  0.28133769996E+03  0.00000000000E+00 0.  1.
         13    1    5    5    0    0  0.73642327572E+01  0.25405438778E+02  0.13332489836E+02  0.29621335703E+02  0.00000000000E+00 0.  1.
        -13    1    5    5    0    0 -0.61398736354E+02 -0.54340081298E+02  0.10171750128E+03  0.13064876321E+03  0.00000000000E+00 0. -1.
          4    1    6    6  503    0  0.13664933492E+03  0.25793963918E+03 -0.13244063677E+04  0.13561925103E+04  0.00000000000E+00 0. -1.
         -4    1    6    6    0  503  0.21632420169E+02  0.14791432117E+02 -0.45751573040E+02  0.52725273845E+02  0.00000000000E+00 0.  1.
<mgrwt>
<rscale>  0 0.12921768E+04</rscale>
<asrwt>0</asrwt>
<pdfrwt beam="1">  1        2 0.24530694E+00 0.12921768E+04</pdfrwt>
<pdfrwt beam="2">  1       -1 0.40276096E-01 0.12921768E+04</pdfrwt>
<totfact> 0.75461137E+01</totfact>
</mgrwt>
</event>
<event>
12    7  0.1544987E-007  0.2193167E+04  0.7818608E-02  0.8521277E-01
          2   -1    0    0  501    0  0.00000000000E+00  0.00000000000E+00  0.11835867320E+04  0.11835867320E+04  0.00000000000E+00 0. -1.
         -1   -1    0    0    0  501 -0.00000000000E+00 -0.00000000000E+00 -0.10159760159E+04  0.10159760159E+04  0.00000000000E+00 0.  1.
         24    2    1    2    0    0  0.81893740629E+03  0.36431993064E+03 -0.93013500446E+02  0.90314589978E+03  0.60278667355E+02 0.  0.
        254    2    1    2    0    0 -0.81893740629E+03 -0.36431993064E+03  0.26062421654E+03  0.12964168482E+04  0.89965780977E+03 0.  0.
         23    2    4    4    0    0 -0.63400849715E+03 -0.61395990132E+01 -0.20665343479E+03  0.67289387193E+03  0.89866855018E+02 0.  0.
         23    2    4    4    0    0 -0.18492890913E+03 -0.35818033163E+03  0.46727765133E+03  0.62352297624E+03  0.89110308431E+02 0.  0.
          2    1    3    3  502    0  0.81637245462E+03  0.35830420278E+03 -0.90435261548E+02  0.89611629989E+03  0.00000000000E+00 0. -1.
         -3    1    3    3    0  502  0.25649516649E+01  0.60157278624E+01 -0.25782388987E+01  0.70295998873E+01  0.00000000000E+00 0.  1.
         13    1    5    5    0    0 -0.13600965644E+02 -0.14363602664E+02 -0.40574907494E+01  0.20193131979E+02  0.00000000000E+00 0. -1.
        -13    1    5    5    0    0 -0.62040753151E+03  0.82240036512E+01 -0.20259594404E+03  0.65270073995E+03  0.00000000000E+00 0.  1.
          3    1    6    6  503    0 -0.10689774877E+03 -0.12637555167E+03  0.15408646665E+03  0.22614276012E+03  0.00000000000E+00 0. -1.
         -3    1    6    6    0  503 -0.78031160364E+02 -0.23180477996E+03  0.31319118468E+03  0.39738021612E+03  0.00000000000E+00 0.  1.
<mgrwt>
<rscale>  0 0.21931673E+04</rscale>
<asrwt>0</asrwt>
<pdfrwt beam="1">  1        2 0.18209027E+00 0.21931673E+04</pdfrwt>
<pdfrwt beam="2">  1       -1 0.15630400E+00 0.21931673E+04</pdfrwt>
<totfact> 0.62999019E+00</totfact>
</mgrwt>
</event>
<event>
12    7  0.1544987E-007  0.2015448E+04  0.7818608E-02  0.8599432E-01
         -1   -1    0    0    0  501 -0.00000000000E+00  0.00000000000E+00  0.46463235916E+03  0.46463235916E+03  0.00000000000E+00 0.  1.
          2   -1    0    0  501    0  0.00000000000E+00 -0.00000000000E+00 -0.21856156196E+04  0.21856156196E+04  0.00000000000E+00 0. -1.
         24    2    1    2    0    0 -0.27174720140E+03  0.74130239324E+03 -0.69420735902E+03  0.10542596807E+04  0.78510109336E+02 0.  0.
        254    2    1    2    0    0  0.27174720140E+03 -0.74130239324E+03 -0.10267759014E+04  0.15959882981E+04  0.93248813197E+03 0.  0.
         23    2    4    4    0    0  0.39523352575E+03 -0.44189771456E+03 -0.97661880482E+02  0.60770020661E+03  0.90986637520E+02 0.  0.
         23    2    4    4    0    0 -0.12348632435E+03 -0.29940467867E+03 -0.92911402094E+03  0.98828809149E+03  0.92565943872E+02 0.  0.
          2    1    3    3  502    0 -0.27528729985E+03  0.70338710312E+03 -0.66232718268E+03  0.10045963424E+04  0.00000000000E+00 0. -1.
         -1    1    3    3    0  502  0.35400984500E+01  0.37915290116E+02 -0.31880176345E+02  0.49663338243E+02  0.00000000000E+00 0.  1.
         13    1    5    5    0    0  0.10123444566E+03 -0.11726700401E+03  0.14490549743E+02  0.15559543454E+03  0.00000000000E+00 0.  1.
        -13    1    5    5    0    0  0.29399908009E+03 -0.32463071055E+03 -0.11215243022E+03  0.45210477207E+03  0.00000000000E+00 0. -1.
          1    1    6    6  503    0 -0.13572131533E+03 -0.24225283408E+03 -0.79064498392E+03  0.83798938039E+03  0.00000000000E+00 0.  1.
         -1    1    6    6    0  503  0.12234990977E+02 -0.57151844599E+02 -0.13846903702E+03  0.15029871110E+03  0.00000000000E+00 0. -1.
<mgrwt>
<rscale>  0 0.20154481E+04</rscale>
<asrwt>0</asrwt>
<pdfrwt beam="1">  1        2 0.33624856E+00 0.20154481E+04</pdfrwt>
<pdfrwt beam="2">  1       -1 0.71481901E-01 0.20154481E+04</pdfrwt>
<totfact> 0.10981392E+01</totfact>
</mgrwt>
</event>
<event>
12    7  0.1544987E-007  0.1424710E+04  0.7818608E-02  0.8936124E-01
         -1   -1    0    0    0  501 -0.00000000000E+00  0.00000000000E+00  0.83268682834E+03  0.83268682834E+03  0.00000000000E+00 0.  1.
          2   -1    0    0  501    0  0.00000000000E+00 -0.00000000000E+00 -0.60941230508E+03  0.60941230508E+03  0.00000000000E+00 0. -1.
         24    2    1    2    0    0 -0.13702139268E+03  0.23614058865E+03 -0.26204109607E+03  0.38586661915E+03  0.75433892202E+02 0.  0.
        254    2    1    2    0    0  0.13702139268E+03 -0.23614058865E+03  0.48531561932E+03  0.10562325143E+04  0.89752918291E+03 0.  0.
         23    2    4    4    0    0 -0.29820853606E+03  0.15346534320E+03  0.16626361806E+03  0.38472054612E+03  0.88805210272E+02 0.  0.
         23    2    4    4    0    0  0.43522992874E+03 -0.38960593184E+03  0.31905200126E+03  0.67151196815E+03  0.88973427808E+02 0.  0.
          4    1    3    3  502    0 -0.93612817242E+02  0.14309220326E+03 -0.20982700526E+03  0.27067713299E+03  0.00000000000E+00 0. -1.
         -3    1    3    3    0  502 -0.43408575436E+02  0.93048385390E+02 -0.52214090804E+02  0.11518948617E+03  0.00000000000E+00 0.  1.
         13    1    5    5    0    0 -0.26117206136E+03  0.10779153282E+03  0.16217180832E+03  0.32577531460E+03  0.00000000000E+00 0. -1.
        -13    1    5    5    0    0 -0.37036474699E+02  0.45673810373E+02  0.40918097348E+01  0.58945231521E+02  0.00000000000E+00 0.  1.
          2    1    6    6  503    0  0.36129484722E+03 -0.32257395876E+03  0.30054183070E+03  0.57001168190E+03  0.00000000000E+00 0. -1.
         -2    1    6    6    0  503  0.73935081519E+02 -0.67031973080E+02  0.18510170564E+02  0.10150028625E+03  0.00000000000E+00 0.  1.
<mgrwt>
<rscale>  0 0.14247099E+04</rscale>
<asrwt>0</asrwt>
<pdfrwt beam="1">  1        2 0.93755739E-01 0.14247099E+04</pdfrwt>
<pdfrwt beam="2">  1       -1 0.12810567E+00 0.14247099E+04</pdfrwt>
<totfact> 0.28443238E+01</totfact>
</mgrwt>
</event>
<event>
12    7  0.1544987E-007  0.1796765E+04  0.7818608E-02  0.8708021E-01
         -3   -1    0    0    0  501 -0.00000000000E+00  0.00000000000E+00  0.47121955509E+03  0.47121955509E+03  0.00000000000E+00 0.  1.
          2   -1    0    0  501    0  0.00000000000E+00 -0.00000000000E+00 -0.17127715790E+04  0.17127715790E+04  0.00000000000E+00 0. -1.
         24    2    1    2    0    0 -0.47074916408E+03  0.28991894705E+03 -0.12426522058E+02  0.55849475997E+03  0.78129425457E+02 0.  0.
        254    2    1    2    0    0  0.47074916408E+03 -0.28991894705E+03 -0.12291255018E+04  0.16254963741E+04  0.90875254697E+03 0.  0.
         23    2    4    4    0    0  0.36595360661E+03 -0.53510844640E+03 -0.44497835770E+03  0.79153642240E+03  0.90890470173E+02 0.  0.
         23    2    4    4    0    0  0.10479555747E+03  0.24518949936E+03 -0.78414714410E+03  0.83395995167E+03  0.97480551564E+02 0.  0.
          4    1    3    3  502    0 -0.25641213234E+03  0.18808392715E+03  0.21780746821E+02  0.31874307239E+03  0.00000000000E+00 0. -1.
         -1    1    3    3    0  502 -0.21433703174E+03  0.10183501989E+03 -0.34207268879E+02  0.23975168758E+03  0.00000000000E+00 0.  1.
         13    1    5    5    0    0  0.21752196741E+03 -0.23772148910E+03 -0.22238614143E+03  0.39151361226E+03  0.00000000000E+00 0.  1.
        -13    1    5    5    0    0  0.14843163920E+03 -0.29738695731E+03 -0.22259221627E+03  0.40002281014E+03  0.00000000000E+00 0. -1.
          1    1    6    6  503    0  0.26041906014E+02  0.16525900964E+03 -0.53869138050E+03  0.56407191435E+03  0.00000000000E+00 0. -1.
         -1    1    6    6    0  503  0.78753651458E+02  0.79930489719E+02 -0.24545576360E+03  0.26988803732E+03  0.00000000000E+00 0.  1.
<mgrwt>
<rscale>  0 0.17967654E+04</rscale>
<asrwt>0</asrwt>
<pdfrwt beam="1">  1        2 0.26350331E+00 0.17967654E+04</pdfrwt>
<pdfrwt beam="2">  1       -3 0.72495318E-01 0.17967654E+04</pdfrwt>
<totfact> 0.10523361E+01</totfact>
</mgrwt>
</event>
<event>
12    7  0.1544987E-007  0.1625391E+04  0.7818608E-02  0.8805099E-01
         -1   -1    0    0    0  501 -0.00000000000E+00  0.00000000000E+00  0.88647347963E+03  0.88647347963E+03  0.00000000000E+00 0.  1.
          2   -1    0    0  501    0  0.00000000000E+00 -0.00000000000E+00 -0.74505787167E+03  0.74505787167E+03  0.00000000000E+00 0. -1.
         24    2    1    2    0    0  0.30789415556E+03  0.36507323617E+03  0.34533037253E+03  0.59438887612E+03  0.77251479329E+02 0.  0.
        254    2    1    2    0    0 -0.30789415556E+03 -0.36507323617E+03 -0.20391476457E+03  0.10371424752E+04  0.89777837121E+03 0.  0.
         23    2    4    4    0    0  0.18719409270E+03  0.11156867553E+03  0.12787268380E+03  0.26881820769E+03  0.91774766810E+02 0.  0.
         23    2    4    4    0    0 -0.49508824826E+03 -0.47664191170E+03 -0.33178744837E+03  0.76832426749E+03  0.89103218574E+02 0.  0.
          2    1    3    3  502    0  0.64864682246E+02  0.11921640981E+03  0.71666914670E+02  0.15348005092E+03  0.00000000000E+00 0. -1.
         -1    1    3    3    0  502  0.24302947331E+03  0.24585682636E+03  0.27366345786E+03  0.44090882520E+03  0.00000000000E+00 0.  1.
         13    1    5    5    0    0  0.16974842929E+02 -0.11744575007E+02  0.31320910449E+02  0.37511061914E+02  0.00000000000E+00 0.  1.
        -13    1    5    5    0    0  0.17021924977E+03  0.12331325054E+03  0.96551773352E+02  0.23130714578E+03  0.00000000000E+00 0. -1.
          2    1    6    6  503    0 -0.24136496867E+03 -0.28805490866E+03 -0.15909821748E+03  0.40809915622E+03  0.00000000000E+00 0. -1.
         -2    1    6    6    0  503 -0.25372327959E+03 -0.18858700305E+03 -0.17268923089E+03  0.36022511127E+03  0.00000000000E+00 0.  1.
<mgrwt>
<rscale>  0 0.16253911E+04</rscale>
<asrwt>0</asrwt>
<pdfrwt beam="1">  1        2 0.11462429E+00 0.16253911E+04</pdfrwt>
<pdfrwt beam="2">  1       -1 0.13638054E+00 0.16253911E+04</pdfrwt>
<totfact> 0.18551578E+01</totfact>
</mgrwt>
</event>
<event>
12    7  0.1544987E-007  0.1219301E+04  0.7818608E-02  0.9096128E-01
          2   -1    0    0  501    0  0.00000000000E+00  0.00000000000E+00  0.10306116618E+04  0.10306116618E+04  0.00000000000E+00 0. -1.
         -1   -1    0    0    0  501 -0.00000000000E+00 -0.00000000000E+00 -0.36063416269E+03  0.36063416269E+03  0.00000000000E+00 0.  1.
         24    2    1    2    0    0 -0.22423814857E+03 -0.53601357266E+01  0.27815583841E+03  0.36572082657E+03  0.77907472138E+02 0.  0.
        254    2    1    2    0    0  0.22423814857E+03  0.53601357266E+01  0.39182166068E+03  0.10255249979E+04  0.92079630170E+03 0.  0.
         23    2    4    4    0    0 -0.29009644724E+03 -0.21006569652E+03  0.74688661669E+02  0.37762314136E+03  0.93473499764E+02 0.  0.
         23    2    4    4    0    0  0.51433459581E+03  0.21542583224E+03  0.31713299901E+03  0.64790185655E+03  0.90857641437E+02 0.  0.
          2    1    3    3  502    0 -0.12474080403E+03 -0.39538005285E+02  0.13440091459E+03  0.18758232298E+03  0.00000000000E+00 0. -1.
         -1    1    3    3    0  502 -0.99497344541E+02  0.34177869559E+02  0.14375492382E+03  0.17813850359E+03  0.00000000000E+00 0.  1.
         13    1    5    5    0    0 -0.97909478655E+02 -0.85531884677E+02  0.71970852242E+02  0.14859937039E+03  0.00000000000E+00 0. -1.
        -13    1    5    5    0    0 -0.19218696858E+03 -0.12453381184E+03  0.27178094277E+01  0.22902377098E+03  0.00000000000E+00 0.  1.
          3    1    6    6  503    0  0.22885850124E+02  0.19368438329E+02  0.41793698092E+02  0.51435510490E+02  0.00000000000E+00 0. -1.
         -3    1    6    6    0  503  0.49144874569E+03  0.19605739392E+03  0.27533930092E+03  0.59646634606E+03  0.00000000000E+00 0.  1.
<mgrwt>
<rscale>  0 0.12193011E+04</rscale>
<asrwt>0</asrwt>
<pdfrwt beam="1">  1        2 0.15855564E+00 0.12193011E+04</pdfrwt>
<pdfrwt beam="2">  1       -1 0.55482179E-01 0.12193011E+04</pdfrwt>
<totfact> 0.88896471E+01</totfact>
</mgrwt>
</event>
<event>
12    7  0.1544987E-007  0.1319080E+04  0.7818608E-02  0.9014570E-01
          2   -1    0    0  501    0  0.00000000000E+00  0.00000000000E+00  0.20937063014E+04  0.20937063014E+04  0.00000000000E+00 0. -1.
         -1   -1    0    0    0  501 -0.00000000000E+00 -0.00000000000E+00 -0.20776224548E+03  0.20776224548E+03  0.00000000000E+00 0.  1.
         24    2    1    2    0    0 -0.22264092828E+03 -0.26347046243E+03  0.36939303992E+03  0.51166423941E+03  0.79770974859E+02 0.  0.
        254    2    1    2    0    0  0.22264092828E+03  0.26347046243E+03  0.15165510160E+04  0.17898043075E+04  0.88571259864E+03 0.  0.
         23    2    4    4    0    0  0.37159106995E+03  0.51313221555E+03  0.11148622816E+04  0.12855777291E+04  0.91692948815E+02 0.  0.
         23    2    4    4    0    0 -0.14895014167E+03 -0.24966175312E+03  0.40168873441E+03  0.50422657832E+03  0.91506651444E+02 0.  0.
          4    1    3    3  502    0 -0.82768301682E+02 -0.15451548232E+03  0.16045121401E+03  0.23763463156E+03  0.00000000000E+00 0. -1.
         -3    1    3    3    0  502 -0.13987262660E+03 -0.10895498011E+03  0.20894182591E+03  0.27402960785E+03  0.00000000000E+00 0.  1.
         13    1    5    5    0    0  0.31326318831E+03  0.38871139919E+03  0.81534547131E+03  0.95604320750E+03  0.00000000000E+00 0. -1.
        -13    1    5    5    0    0  0.58327881642E+02  0.12442081636E+03  0.29951681027E+03  0.32953452164E+03  0.00000000000E+00 0.  1.
          2    1    6    6  503    0 -0.14132549504E+03 -0.15545420032E+03  0.26914238313E+03  0.34143304811E+03  0.00000000000E+00 0. -1.
         -2    1    6    6    0  503 -0.76246466319E+01 -0.94207552801E+02  0.13254635128E+03  0.16279353021E+03  0.00000000000E+00 0.  1.
<mgrwt>
<rscale>  0 0.13190802E+04</rscale>
<asrwt>0</asrwt>
<pdfrwt beam="1">  1        2 0.32210865E+00 0.13190802E+04</pdfrwt>
<pdfrwt beam="2">  1       -1 0.31963424E-01 0.13190802E+04</pdfrwt>
<totfact> 0.60341443E+01</totfact>
</mgrwt>
</event>
<event>
12    7  0.1544987E-007  0.1942627E+04  0.7818608E-02  0.8633924E-01
         -1   -1    0    0    0  501 -0.00000000000E+00  0.00000000000E+00  0.95328156867E+03  0.95328156867E+03  0.00000000000E+00 0.  1.
          2   -1    0    0  501    0  0.00000000000E+00 -0.00000000000E+00 -0.98968629518E+03  0.98968629518E+03  0.00000000000E+00 0. -1.
         24    2    1    2    0    0 -0.11200035362E+03 -0.24198065632E+03  0.69391651262E+03  0.74734473958E+03  0.76846054229E+02 0.  0.
        254    2    1    2    0    0  0.11200035362E+03  0.24198065632E+03 -0.73032123912E+03  0.11956231243E+04  0.90832088258E+03 0.  0.
         23    2    4    4    0    0  0.29180075387E+03  0.32606744372E+03 -0.84086126169E+03  0.95139609948E+03  0.81481402098E+02 0.  0.
         23    2    4    4    0    0 -0.17980040026E+03 -0.84086787394E+02  0.11054002257E+03  0.24422702478E+03  0.89604527218E+02 0.  0.
          2    1    3    3  502    0 -0.24334181394E+02 -0.69188062497E+02  0.29331614978E+03  0.30234666213E+03  0.00000000000E+00 0. -1.
         -1    1    3    3    0  502 -0.87666172224E+02 -0.17279259383E+03  0.40060036283E+03  0.44499807745E+03  0.00000000000E+00 0.  1.
         13    1    5    5    0    0  0.23907631918E+03  0.22211490256E+03 -0.57592743343E+03  0.66195537985E+03  0.00000000000E+00 0. -1.
        -13    1    5    5    0    0  0.52724434693E+02  0.10395254116E+03 -0.26493382826E+03  0.28944071963E+03  0.00000000000E+00 0.  1.
          4    1    6    6  503    0 -0.18237078762E+03 -0.63911480600E+02  0.11280896118E+03  0.22376247060E+03  0.00000000000E+00 0. -1.
         -4    1    6    6    0  503  0.25703873596E+01 -0.20175306794E+02 -0.22689386072E+01  0.20464554181E+02  0.00000000000E+00 0.  1.
<mgrwt>
<rscale>  0 0.19426268E+04</rscale>
<asrwt>0</asrwt>
<pdfrwt beam="1">  1        2 0.15225943E+00 0.19426268E+04</pdfrwt>
<pdfrwt beam="2">  1       -1 0.14665870E+00 0.19426268E+04</pdfrwt>
<totfact> 0.10095425E+01</totfact>
</mgrwt>
</event>
<event>
12    7  0.1544987E-007  0.2153475E+04  0.7818608E-02  0.8538046E-01
          2   -1    0    0  501    0  0.00000000000E+00  0.00000000000E+00  0.63399705481E+03  0.63399705481E+03  0.00000000000E+00 0. -1.
         -1   -1    0    0    0  501 -0.00000000000E+00 -0.00000000000E+00 -0.18286572361E+04  0.18286572361E+04  0.00000000000E+00 0.  1.
         24    2    1    2    0    0  0.60267246309E+03  0.37152758477E+03 -0.11030806072E+04  0.13131816874E+04  0.80077925992E+02 0.  0.
        254    2    1    2    0    0 -0.60267246309E+03 -0.37152758477E+03 -0.91579574146E+02  0.11494726035E+04  0.90091820041E+03 0.  0.
         23    2    4    4    0    0 -0.48099164232E+02 -0.46806494179E+03  0.18681136744E+03  0.51424413755E+03  0.90278605777E+02 0.  0.
         23    2    4    4    0    0 -0.55457329886E+03  0.96537357028E+02 -0.27839094159E+03  0.63522846597E+03  0.95617375596E+02 0.  0.
          4    1    3    3  502    0  0.25151537845E+03  0.14108347121E+03 -0.38109631402E+03  0.47791100846E+03  0.00000000000E+00 0. -1.
         -3    1    3    3    0  502  0.35115708464E+03  0.23044411355E+03 -0.72198429317E+03  0.83527067897E+03  0.00000000000E+00 0.  1.
         13    1    5    5    0    0 -0.17978095092E+02 -0.41931426567E+03  0.14798819887E+03  0.44502603554E+03  0.00000000000E+00 0. -1.
        -13    1    5    5    0    0 -0.30121069140E+02 -0.48750676121E+02  0.38823168568E+02  0.69218102012E+02  0.00000000000E+00 0.  1.
          4    1    6    6  503    0 -0.39214514356E+03  0.11113955199E+03 -0.18942740598E+03  0.44945806898E+03  0.00000000000E+00 0. -1.
         -4    1    6    6    0  503 -0.16242815530E+03 -0.14602194962E+02 -0.88963535610E+02  0.18577039699E+03  0.00000000000E+00 0.  1.
<mgrwt>
<rscale>  0 0.21534747E+04</rscale>
<asrwt>0</asrwt>
<pdfrwt beam="1">  1        2 0.97538011E-01 0.21534747E+04</pdfrwt>
<pdfrwt beam="2">  1       -1 0.28133187E+00 0.21534747E+04</pdfrwt>
<totfact> 0.21194932E+00</totfact>
</mgrwt>
</event>
<event>
12    7  0.1544987E-007  0.2299490E+04  0.7818608E-02  0.8478122E-01
         -1   -1    0    0    0  501 -0.00000000000E+00  0.00000000000E+00  0.30256788051E+03  0.30256788051E+03  0.00000000000E+00 0.  1.
          2   -1    0    0  501    0  0.00000000000E+00 -0.00000000000E+00 -0.43689825405E+04  0.43689825405E+04  0.00000000000E+00 0. -1.
         24    2    1    2    0    0  0.36009236463E+03 -0.32074055340E+02  0.10710627105E+03  0.38499283885E+03  0.77797664320E+02 0.  0.
        254    2    1    2    0    0 -0.36009236463E+03  0.32074055340E+02 -0.41735209310E+04  0.42865575821E+04  0.90862736439E+03 0.  0.
         23    2    4    4    0    0 -0.36672835598E+03 -0.21284552324E+03 -0.86706685005E+03  0.96960280209E+03  0.92367567530E+02 0.  0.
         23    2    4    4    0    0  0.66359913473E+01  0.24491957858E+03 -0.33064540810E+04  0.33169547800E+04  0.97574520289E+02 0.  0.
          2    1    3    3  502    0  0.52097624408E+02 -0.87288268954E+01 -0.11612453870E+02  0.54085154828E+02  0.00000000000E+00 0. -1.
         -1    1    3    3    0  502  0.30799474022E+03 -0.23345228445E+02  0.11871872492E+03  0.33090768402E+03  0.00000000000E+00 0.  1.
         13    1    5    5    0    0 -0.18769887402E+03 -0.13276683596E+03 -0.55865999195E+03  0.60411827207E+03  0.00000000000E+00 0.  1.
        -13    1    5    5    0    0 -0.17902948195E+03 -0.80078687272E+02 -0.30840685810E+03  0.36548453002E+03  0.00000000000E+00 0. -1.
          4    1    6    6  503    0 -0.33701172964E+02  0.30215620856E+02 -0.57048415902E+03  0.57227696834E+03  0.00000000000E+00 0. -1.
         -4    1    6    6    0  503  0.40337164311E+02  0.21470395772E+03 -0.27359699219E+04  0.27446778117E+04  0.00000000000E+00 0.  1.
<mgrwt>
<rscale>  0 0.22994902E+04</rscale>
<asrwt>0</asrwt>
<pdfrwt beam="1">  1        2 0.67215104E+00 0.22994902E+04</pdfrwt>
<pdfrwt beam="2">  1       -1 0.46548913E-01 0.22994902E+04</pdfrwt>
<totfact> 0.78440396E-01</totfact>
</mgrwt>
</event>
<event>
12    7  0.1544987E-007  0.2093859E+04  0.7818608E-02  0.8563953E-01
         -1   -1    0    0    0  501 -0.00000000000E+00  0.00000000000E+00  0.27870945034E+03  0.27870945034E+03  0.00000000000E+00 0.  1.
          2   -1    0    0  501    0  0.00000000000E+00 -0.00000000000E+00 -0.39326323077E+04  0.39326323077E+04  0.00000000000E+00 0. -1.
         24    2    1    2    0    0  0.41675646573E+03 -0.91303163903E+02 -0.10120300296E+02  0.43428210167E+03  0.80475486238E+02 0.  0.
        254    2    1    2    0    0 -0.41675646573E+03  0.91303163903E+02 -0.36438025571E+04  0.37770596564E+04  0.89825405837E+03 0.  0.
         23    2    4    4    0    0 -0.46591379808E+03 -0.20834878142E+03 -0.31346002191E+04  0.31772893146E+04  0.94678260002E+02 0.  0.
         23    2    4    4    0    0  0.49157332349E+02  0.29965194532E+03 -0.50920233799E+03  0.59977034182E+03  0.90717750485E+02 0.  0.
          2    1    3    3  502    0  0.44455465842E+02  0.11149595572E+02 -0.14644003047E+02  0.48114953496E+02  0.00000000000E+00 0. -1.
         -1    1    3    3    0  502  0.37230099989E+03 -0.10245275947E+03  0.45237027506E+01  0.38616714818E+03  0.00000000000E+00 0.  1.
         13    1    5    5    0    0 -0.60677310637E+02 -0.58826924421E+02 -0.64229052742E+03  0.64782672427E+03  0.00000000000E+00 0. -1.
        -13    1    5    5    0    0 -0.40523648745E+03 -0.14952185700E+03 -0.24923096917E+04  0.25294625903E+04  0.00000000000E+00 0.  1.
          4    1    6    6  503    0  0.40489185025E+01 -0.63897880201E+01 -0.11606333539E+02  0.13853884300E+02  0.00000000000E+00 0. -1.
         -4    1    6    6    0  503  0.45108413847E+02  0.30604173334E+03 -0.49759600445E+03  0.58591645752E+03  0.00000000000E+00 0.  1.
<mgrwt>
<rscale>  0 0.20938594E+04</rscale>
<asrwt>0</asrwt>
<pdfrwt beam="1">  1        2 0.60502032E+00 0.20938594E+04</pdfrwt>
<pdfrwt beam="2">  1       -1 0.42878379E-01 0.20938594E+04</pdfrwt>
<totfact> 0.21962636E+00</totfact>
</mgrwt>
</event>
<event>
12    7  0.1544987E-007  0.1217067E+04  0.7818608E-02  0.9098048E-01
         -1   -1    0    0    0  501 -0.00000000000E+00  0.00000000000E+00  0.33196279684E+03  0.33196279684E+03  0.00000000000E+00 0.  1.
          2   -1    0    0  501    0  0.00000000000E+00 -0.00000000000E+00 -0.11155258368E+04  0.11155258368E+04  0.00000000000E+00 0. -1.
         24    2    1    2    0    0 -0.11962912113E+03  0.10911212368E+03  0.72419055100E+02  0.19416401459E+03  0.78984573597E+02 0.  0.
        254    2    1    2    0    0  0.11962912113E+03 -0.10911212368E+03 -0.85598209504E+03  0.12533246190E+04  0.90105530990E+03 0.  0.
         23    2    4    4    0    0 -0.17575458223E+03 -0.24761844538E+03  0.16548900266E+02  0.31742408826E+03  0.90992406525E+02 0.  0.
         23    2    4    4    0    0  0.29538370335E+03  0.13850632170E+03 -0.87253099530E+03  0.93590053077E+03  0.90354481723E+02 0.  0.
          4    1    3    3  502    0 -0.51865641609E+02  0.96994415834E+02  0.55857652096E+02  0.12336141528E+03  0.00000000000E+00 0. -1.
         -3    1    3    3    0  502 -0.67763479519E+02  0.12117707842E+02  0.16561403004E+02  0.70802599312E+02  0.00000000000E+00 0.  1.
         13    1    5    5    0    0 -0.90485114053E+02 -0.88737607534E+02 -0.31946858140E+02  0.13070011707E+03  0.00000000000E+00 0.  1.
        -13    1    5    5    0    0 -0.85269468174E+02 -0.15888083784E+03  0.48495758406E+02  0.18672397120E+03  0.00000000000E+00 0. -1.
          1    1    6    6  503    0  0.17213133725E+03  0.12137604845E+03 -0.61079524718E+03  0.64608991354E+03  0.00000000000E+00 0. -1.
         -1    1    6    6    0  503  0.12325236610E+03  0.17130273249E+02 -0.26173574813E+03  0.28981061723E+03  0.00000000000E+00 0.  1.
<mgrwt>
<rscale>  0 0.12170671E+04</rscale>
<asrwt>0</asrwt>
<pdfrwt beam="1">  1        2 0.17161936E+00 0.12170671E+04</pdfrwt>
<pdfrwt beam="2">  1       -1 0.51071200E-01 0.12170671E+04</pdfrwt>
<totfact> 0.92301422E+01</totfact>
</mgrwt>
</event>
<event>
12    7  0.1544987E-007  0.1619483E+04  0.7818608E-02  0.8808667E-01
         -1   -1    0    0    0  501 -0.00000000000E+00  0.00000000000E+00  0.17154553521E+03  0.17154553521E+03  0.00000000000E+00 0.  1.
          2   -1    0    0  501    0  0.00000000000E+00 -0.00000000000E+00 -0.38221997560E+04  0.38221997560E+04  0.00000000000E+00 0. -1.
         24    2    1    2    0    0 -0.44298047804E+03  0.30693640234E+03 -0.88270585311E+03  0.10367183021E+04  0.71927434412E+02 0.  0.
        254    2    1    2    0    0  0.44298047804E+03 -0.30693640234E+03 -0.27679483677E+04  0.29570269891E+04  0.88995999293E+03 0.  0.
         23    2    4    4    0    0  0.19839265031E+03 -0.51219110025E+03 -0.23901575703E+04  0.24541099213E+04  0.90016265856E+02 0.  0.
         23    2    4    4    0    0  0.24458782773E+03  0.20525469790E+03 -0.37779079734E+03  0.50291706774E+03  0.90812961539E+02 0.  0.
          2    1    3    3  502    0 -0.38986655229E+03  0.25790252902E+03 -0.71685041974E+03  0.85579446560E+03  0.00000000000E+00 0. -1.
         -1    1    3    3    0  502 -0.53113925747E+02  0.49033873328E+02 -0.16585543337E+03  0.18092383652E+03  0.00000000000E+00 0.  1.
         13    1    5    5    0    0  0.20731923265E+03 -0.48816871759E+03 -0.23017203568E+04  0.23620344117E+04  0.00000000000E+00 0. -1.
        -13    1    5    5    0    0 -0.89265823448E+01 -0.24022382660E+02 -0.88437213542E+02  0.92075509665E+02  0.00000000000E+00 0.  1.
          2    1    6    6  503    0  0.10933641232E+03  0.15047965480E+03 -0.20810947893E+03  0.27912028373E+03  0.00000000000E+00 0.  1.
         -2    1    6    6    0  503  0.13525141541E+03  0.54775043107E+02 -0.16968131841E+03  0.22379678401E+03  0.00000000000E+00 0. -1.
<mgrwt>
<rscale>  0 0.16194830E+04</rscale>
<asrwt>0</asrwt>
<pdfrwt beam="1">  1        2 0.58803070E+00 0.16194830E+04</pdfrwt>
<pdfrwt beam="2">  1       -1 0.26391622E-01 0.16194830E+04</pdfrwt>
<totfact> 0.66787483E+00</totfact>
</mgrwt>
</event>
<event>
12    7  0.1544987E-007  0.1701089E+04  0.7818608E-02  0.8760743E-01
         -1   -1    0    0    0  501 -0.00000000000E+00  0.00000000000E+00  0.29134473037E+03  0.29134473037E+03  0.00000000000E+00 0.  1.
          2   -1    0    0  501    0  0.00000000000E+00 -0.00000000000E+00 -0.24830596230E+04  0.24830596230E+04  0.00000000000E+00 0. -1.
         24    2    1    2    0    0  0.53996810663E+03  0.23910230045E+03 -0.10278206703E+04  0.11880721032E+04  0.79777978635E+02 0.  0.
        254    2    1    2    0    0 -0.53996810663E+03 -0.23910230045E+03 -0.11638942223E+04  0.15863322501E+04  0.90170104849E+03 0.  0.
         23    2    4    4    0    0 -0.59245152231E+03  0.18625262480E+03 -0.56527841625E+03  0.84450519297E+03  0.89221558702E+02 0.  0.
         23    2    4    4    0    0  0.52483415682E+02 -0.42535492525E+03 -0.59861580604E+03  0.74182705716E+03  0.91022953884E+02 0.  0.
          2    1    3    3  502    0  0.33623781347E+03  0.14989404430E+03 -0.56136716729E+03  0.67131005372E+03  0.00000000000E+00 0. -1.
         -1    1    3    3    0  502  0.20373029316E+03  0.89208256147E+02 -0.46645350303E+03  0.51676204950E+03  0.00000000000E+00 0.  1.
         13    1    5    5    0    0 -0.50505281309E+03  0.18969333731E+03 -0.49717771765E+03  0.73365358934E+03  0.00000000000E+00 0. -1.
        -13    1    5    5    0    0 -0.87398709223E+02 -0.34407125084E+01 -0.68100698599E+02  0.11085160362E+03  0.00000000000E+00 0.  1.
          4    1    6    6  503    0  0.13134646126E+02 -0.35133820448E+03 -0.51380642849E+03  0.62258180090E+03  0.00000000000E+00 0. -1.
         -4    1    6    6    0  503  0.39348769555E+02 -0.74016720769E+02 -0.84809377548E+02  0.11924525625E+03  0.00000000000E+00 0.  1.
<mgrwt>
<rscale>  0 0.17010895E+04</rscale>
<asrwt>0</asrwt>
<pdfrwt beam="1">  1        2 0.38200917E+00 0.17010895E+04</pdfrwt>
<pdfrwt beam="2">  1       -1 0.44822267E-01 0.17010895E+04</pdfrwt>
<totfact> 0.19063391E+01</totfact>
</mgrwt>
</event>
<event>
12    7  0.1544987E-007  0.1695963E+04  0.7818608E-02  0.8763670E-01
          2   -1    0    0  501    0  0.00000000000E+00  0.00000000000E+00  0.95557434625E+03  0.95557434625E+03  0.00000000000E+00 0. -1.
         -1   -1    0    0    0  501 -0.00000000000E+00 -0.00000000000E+00 -0.75250345996E+03  0.75250345996E+03  0.00000000000E+00 0.  1.
         24    2    1    2    0    0 -0.78956330903E+02  0.15624509689E+03 -0.51042575928E+03  0.54544368982E+03  0.79547033523E+02 0.  0.
        254    2    1    2    0    0  0.78956330903E+02 -0.15624509689E+03  0.71349664557E+03  0.11626341164E+04  0.90110709288E+03 0.  0.
         23    2    4    4    0    0  0.25802558168E+03 -0.46761275142E+03  0.36209571306E+03  0.65187752370E+03  0.92693658871E+02 0.  0.
         23    2    4    4    0    0 -0.17906925078E+03  0.31136765453E+03  0.35140093251E+03  0.51075659269E+03  0.91509937943E+02 0.  0.
          2    1    3    3  502    0 -0.16702311300E+01  0.13435098772E+02 -0.14418250585E+03  0.14481673434E+03  0.00000000000E+00 0. -1.
         -1    1    3    3    0  502 -0.77286099773E+02  0.14280999812E+03 -0.36624325343E+03  0.40062695548E+03  0.00000000000E+00 0.  1.
         13    1    5    5    0    0  0.20865144418E+03 -0.28844721274E+03  0.24658922471E+03  0.43306288855E+03  0.00000000000E+00 0.  1.
        -13    1    5    5    0    0  0.49374137498E+02 -0.17916553868E+03  0.11550648835E+03  0.21881463515E+03  0.00000000000E+00 0. -1.
          1    1    6    6  503    0 -0.29202127035E+02  0.27306976554E+02  0.83821373652E+01  0.40849668527E+02  0.00000000000E+00 0. -1.
         -1    1    6    6    0  503 -0.14986712374E+03  0.28406067797E+03  0.34301879515E+03  0.46990692416E+03  0.00000000000E+00 0.  1.
<mgrwt>
<rscale>  0 0.16959634E+04</rscale>
<asrwt>0</asrwt>
<pdfrwt beam="1">  1        2 0.14701144E+00 0.16959634E+04</pdfrwt>
<pdfrwt beam="2">  1       -1 0.11576976E+00 0.16959634E+04</pdfrwt>
<totfact> 0.19754446E+01</totfact>
</mgrwt>
</event>
<event>
12    7  0.1544987E-007  0.1191878E+04  0.7818608E-02  0.9119996E-01
         -1   -1    0    0    0  501 -0.00000000000E+00  0.00000000000E+00  0.10602737922E+04  0.10602737922E+04  0.00000000000E+00 0.  1.
          2   -1    0    0  501    0  0.00000000000E+00 -0.00000000000E+00 -0.33495415783E+03  0.33495415783E+03  0.00000000000E+00 0. -1.
         24    2    1    2    0    0  0.14251473852E+03 -0.19540558685E+03  0.14421947331E+03  0.29284166393E+03  0.80393964817E+02 0.  0.
        254    2    1    2    0    0 -0.14251473852E+03  0.19540558685E+03  0.58110016105E+03  0.11023862861E+04  0.90503277980E+03 0.  0.
         23    2    4    4    0    0  0.28692275871E+03  0.42195870250E+02  0.55994712763E+03  0.63692707507E+03  0.89611116962E+02 0.  0.
         23    2    4    4    0    0 -0.42943749724E+03  0.15320971660E+03  0.21153033417E+02  0.46545921101E+03  0.91186868566E+02 0.  0.
          4    1    3    3  502    0  0.13315660570E+02  0.65336604509E+01  0.11902932488E+02  0.19017763725E+02  0.00000000000E+00 0. -1.
         -3    1    3    3    0  502  0.12919907795E+03 -0.20193924730E+03  0.13231654083E+03  0.27382390020E+03  0.00000000000E+00 0.  1.
         13    1    5    5    0    0  0.10153844004E+03 -0.25486027067E+02  0.22500527546E+03  0.24816721453E+03  0.00000000000E+00 0. -1.
        -13    1    5    5    0    0  0.18538431868E+03  0.67681897317E+02  0.33494185217E+03  0.38875986055E+03  0.00000000000E+00 0.  1.
          4    1    6    6  503    0 -0.75383959101E+02  0.30132344833E+02  0.39277298100E+02  0.90185395940E+02  0.00000000000E+00 0. -1.
         -4    1    6    6    0  503 -0.35405353814E+03  0.12307737177E+03 -0.18124264683E+02  0.37527381507E+03  0.00000000000E+00 0.  1.
<mgrwt>
<rscale>  0 0.11918777E+04</rscale>
<asrwt>0</asrwt>
<pdfrwt beam="1">  1        2 0.51531409E-01 0.11918777E+04</pdfrwt>
<pdfrwt beam="2">  1       -1 0.16311904E+00 0.11918777E+04</pdfrwt>
<totfact> 0.30384884E+01</totfact>
</mgrwt>
</event>
<event>
12    7  0.1544987E-007  0.1098241E+04  0.7818608E-02  0.9206908E-01
          2   -1    0    0  501    0  0.00000000000E+00  0.00000000000E+00  0.16558216603E+04  0.16558216603E+04  0.00000000000E+00 0. -1.
         -1   -1    0    0    0  501 -0.00000000000E+00 -0.00000000000E+00 -0.18210507582E+03  0.18210507582E+03  0.00000000000E+00 0.  1.
         24    2    1    2    0    0 -0.12957402231E+03 -0.56212455000E+01  0.45596336416E+03  0.48081578371E+03  0.80375386446E+02 0.  0.
        254    2    1    2    0    0  0.12957402231E+03  0.56212455000E+01  0.10177532204E+04  0.13571109525E+04  0.88831722602E+03 0.  0.
         23    2    4    4    0    0 -0.16459511046E+02 -0.40721166346E+03  0.67383346149E+03  0.79286076404E+03  0.92110818947E+02 0.  0.
         23    2    4    4    0    0  0.14603353336E+03  0.41283290896E+03  0.34391975888E+03  0.56425018841E+03  0.91327274076E+02 0.  0.
          2    1    3    3  502    0 -0.11675587951E+02  0.18448256135E+02  0.15754375626E+03  0.15904934028E+03  0.00000000000E+00 0. -1.
         -1    1    3    3    0  502 -0.11789843436E+03 -0.24069501635E+02  0.29841960791E+03  0.32176644343E+03  0.00000000000E+00 0.  1.
         13    1    5    5    0    0  0.78225306376E+01 -0.12693362615E+03  0.29278208125E+03  0.31920946812E+03  0.00000000000E+00 0. -1.
        -13    1    5    5    0    0 -0.24282041683E+02 -0.28027803731E+03  0.38105138023E+03  0.47365129592E+03  0.00000000000E+00 0.  1.
          2    1    6    6  503    0  0.10539309670E+03  0.38205238964E+03  0.30307667951E+03  0.49892605357E+03  0.00000000000E+00 0.  1.
         -2    1    6    6    0  503  0.40640436656E+02  0.30780519318E+02  0.40843079372E+02  0.65324134849E+02  0.00000000000E+00 0. -1.
<mgrwt>
<rscale>  0 0.10982414E+04</rscale>
<asrwt>0</asrwt>
<pdfrwt beam="1">  1        2 0.25474178E+00 0.10982414E+04</pdfrwt>
<pdfrwt beam="2">  1       -1 0.28016167E-01 0.10982414E+04</pdfrwt>
<totfact> 0.13502066E+02</totfact>
</mgrwt>
</event>
<event>
12    7  0.1544987E-007  0.2358989E+04  0.7818608E-02  0.8455019E-01
         -1   -1    0    0    0  501 -0.00000000000E+00  0.00000000000E+00  0.14044910022E+04  0.14044910022E+04  0.00000000000E+00 0.  1.
          2   -1    0    0  501    0  0.00000000000E+00 -0.00000000000E+00 -0.99054232297E+03  0.99054232297E+03  0.00000000000E+00 0. -1.
         24    2    1    2    0    0  0.22958584025E+03  0.60509393465E+03 -0.60004678472E+03  0.88616518458E+03  0.79901581487E+02 0.  0.
        254    2    1    2    0    0 -0.22958584025E+03 -0.60509393465E+03  0.10139954640E+04  0.15088681406E+04  0.91085011776E+03 0.  0.
         23    2    4    4    0    0  0.56788590960E+02  0.20739985702E+03  0.11474793172E+03  0.26031531711E+03  0.91418443056E+02 0.  0.
         23    2    4    4    0    0 -0.28637443121E+03 -0.81249379167E+03  0.89924753225E+03  0.12485528235E+04  0.89897455295E+02 0.  0.
          2    1    3    3  502    0  0.20576800034E+03  0.52217433177E+03 -0.55291016603E+03  0.78785541466E+03  0.00000000000E+00 0. -1.
         -1    1    3    3    0  502  0.23817839912E+02  0.82919602880E+02 -0.47136618697E+02  0.98309769921E+02  0.00000000000E+00 0.  1.
         13    1    5    5    0    0  0.56825787657E+02  0.18133393532E+03  0.59334237513E+02  0.19907716590E+03  0.00000000000E+00 0. -1.
        -13    1    5    5    0    0 -0.37196697034E-01  0.26065921705E+02  0.55413694207E+02  0.61238151210E+02  0.00000000000E+00 0.  1.
          1    1    6    6  503    0 -0.15064632206E+03 -0.36746745506E+03  0.35656434928E+03  0.53372725249E+03  0.00000000000E+00 0. -1.
         -1    1    6    6    0  503 -0.13572810915E+03 -0.44502633661E+03  0.54268318297E+03  0.71482557101E+03  0.00000000000E+00 0.  1.
<mgrwt>
<rscale>  0 0.23589894E+04</rscale>
<asrwt>0</asrwt>
<pdfrwt beam="1">  1        2 0.15239113E+00 0.23589894E+04</pdfrwt>
<pdfrwt beam="2">  1       -1 0.21607554E+00 0.23589894E+04</pdfrwt>
<totfact> 0.30732811E+00</totfact>
</mgrwt>
</event>
<event>
12    7  0.1544987E-007  0.2051875E+04  0.7818608E-02  0.8582744E-01
          2   -1    0    0  501    0  0.00000000000E+00  0.00000000000E+00  0.16831978833E+04  0.16831978833E+04  0.00000000000E+00 0. -1.
         -1   -1    0    0    0  501 -0.00000000000E+00 -0.00000000000E+00 -0.62532649176E+03  0.62532649176E+03  0.00000000000E+00 0.  1.
         24    2    1    2    0    0  0.83377737950E+03 -0.48583356779E+02  0.25668491862E+03  0.87736889879E+03  0.79649080325E+02 0.  0.
        254    2    1    2    0    0 -0.83377737950E+03  0.48583356779E+02  0.80118647294E+03  0.14311554763E+04  0.84187954708E+03 0.  0.
         23    2    4    4    0    0 -0.54125257028E+03 -0.26109940087E+03  0.78836412560E+03  0.99532714546E+03  0.89615233057E+02 0.  0.
         23    2    4    4    0    0 -0.29252480922E+03  0.30968275765E+03  0.12822347340E+02  0.43582833083E+03  0.91146842871E+02 0.  0.
          4    1    3    3  502    0  0.16883257911E+03 -0.23642504631E+02  0.83275886572E+02  0.18973212980E+03  0.00000000000E+00 0. -1.
         -3    1    3    3    0  502  0.66494480039E+03 -0.24940852148E+02  0.17340903205E+03  0.68763676899E+03  0.00000000000E+00 0.  1.
         13    1    5    5    0    0 -0.52761847968E+03 -0.23760120939E+03  0.73500949031E+03  0.93545419217E+03  0.00000000000E+00 0.  1.
        -13    1    5    5    0    0 -0.13634090605E+02 -0.23498191486E+02  0.53354635288E+02  0.59872953297E+02  0.00000000000E+00 0. -1.
          1    1    6    6  503    0 -0.15647454916E+03  0.10101909896E+03  0.13362935769E+02  0.18672897724E+03  0.00000000000E+00 0. -1.
         -1    1    6    6    0  503 -0.13605026006E+03  0.20866365870E+03 -0.54058842828E+00  0.24909935359E+03  0.00000000000E+00 0.  1.
<mgrwt>
<rscale>  0 0.20518755E+04</rscale>
<asrwt>0</asrwt>
<pdfrwt beam="1">  1        2 0.25895352E+00 0.20518755E+04</pdfrwt>
<pdfrwt beam="2">  1       -1 0.96204076E-01 0.20518755E+04</pdfrwt>
<totfact> 0.10989053E+01</totfact>
</mgrwt>
</event>
<event>
12    7  0.1544987E-007  0.1816407E+04  0.7818608E-02  0.8697623E-01
          2   -1    0    0  501    0  0.00000000000E+00  0.00000000000E+00  0.46749595427E+03  0.46749595427E+03  0.00000000000E+00 0. -1.
         -1   -1    0    0    0  501 -0.00000000000E+00 -0.00000000000E+00 -0.17643659884E+04  0.17643659884E+04  0.00000000000E+00 0.  1.
         24    2    1    2    0    0  0.53461221942E+03  0.34620052485E+03 -0.20224672227E+03  0.67302823473E+03  0.79988996225E+02 0.  0.
        254    2    1    2    0    0 -0.53461221942E+03 -0.34620052485E+03 -0.10946233118E+04  0.15588337079E+04  0.90889895233E+03 0.  0.
         23    2    4    4    0    0 -0.78408570756E+03 -0.27452016470E+03 -0.79993436592E+03  0.11572688237E+04  0.96043859566E+02 0.  0.
         23    2    4    4    0    0  0.24947348814E+03 -0.71680360148E+02 -0.29468894591E+03  0.40156488418E+03  0.83890917560E+02 0.  0.
          4    1    3    3  502    0  0.11650283920E+03  0.11664678319E+03 -0.56584325553E+02  0.17430194912E+03  0.00000000000E+00 0. -1.
         -3    1    3    3    0  502  0.41810938022E+03  0.22955374166E+03 -0.14566239672E+03  0.49872628561E+03  0.00000000000E+00 0.  1.
         13    1    5    5    0    0 -0.35214281928E+03 -0.85906377671E+02 -0.39229343961E+03  0.53411479446E+03  0.00000000000E+00 0. -1.
        -13    1    5    5    0    0 -0.43194288827E+03 -0.18861378703E+03 -0.40764092631E+03  0.62315402927E+03  0.00000000000E+00 0.  1.
          4    1    6    6  503    0  0.43625722974E+02 -0.12274049690E+02 -0.10900109053E+03  0.11804699801E+03  0.00000000000E+00 0. -1.
         -4    1    6    6    0  503  0.20584776517E+03 -0.59406310459E+02 -0.18568785538E+03  0.28351788618E+03  0.00000000000E+00 0.  1.
<mgrwt>
<rscale>  0 0.18164074E+04</rscale>
<asrwt>0</asrwt>
<pdfrwt beam="1">  1        2 0.71922454E-01 0.18164074E+04</pdfrwt>
<pdfrwt beam="2">  1       -1 0.27144092E+00 0.18164074E+04</pdfrwt>
<totfact> 0.36289502E+00</totfact>
</mgrwt>
</event>
<event>
12    7  0.1544987E-007  0.1315609E+04  0.7818608E-02  0.9017278E-01
          2   -1    0    0  501    0  0.00000000000E+00  0.00000000000E+00  0.61287692188E+03  0.61287692188E+03  0.00000000000E+00 0. -1.
         -1   -1    0    0    0  501 -0.00000000000E+00 -0.00000000000E+00 -0.70602576394E+03  0.70602576394E+03  0.00000000000E+00 0.  1.
         24    2    1    2    0    0  0.86078814244E+02 -0.29997518084E+03  0.27632212608E+02  0.32326656391E+03  0.79643334872E+02 0.  0.
        254    2    1    2    0    0 -0.86078814244E+02  0.29997518084E+03 -0.12078105467E+03  0.99563612191E+03  0.93771453689E+03 0.  0.
         23    2    4    4    0    0  0.11540169740E+02 -0.20778117743E+03 -0.35468277761E+03  0.42086886690E+03  0.89579781070E+02 0.  0.
         23    2    4    4    0    0 -0.97618983983E+02  0.50775635827E+03  0.23390172294E+03  0.57476725501E+03  0.91111997245E+02 0.  0.
          2    1    3    3  502    0  0.24559694542E+02 -0.40292235849E+02 -0.21594746481E+02  0.51893891175E+02  0.00000000000E+00 0. -1.
         -1    1    3    3    0  502  0.61519119702E+02 -0.25968294499E+03  0.49226959089E+02  0.27137267274E+03  0.00000000000E+00 0.  1.
         13    1    5    5    0    0 -0.12286998121E+01  0.87175426528E+01 -0.22459309423E+02  0.24123138952E+02  0.00000000000E+00 0. -1.
        -13    1    5    5    0    0  0.12768869552E+02 -0.21649872008E+03 -0.33222346819E+03  0.39674572794E+03  0.00000000000E+00 0.  1.
          3    1    6    6  503    0 -0.92489353093E+02  0.23988816987E+03  0.11560801580E+03  0.28189683893E+03  0.00000000000E+00 0. -1.
         -3    1    6    6    0  503 -0.51296308906E+01  0.26786818839E+03  0.11829370714E+03  0.29287041608E+03  0.00000000000E+00 0.  1.
<mgrwt>
<rscale>  0 0.13156092E+04</rscale>
<asrwt>0</asrwt>
<pdfrwt beam="1">  1        2 0.94288757E-01 0.13156092E+04</pdfrwt>
<pdfrwt beam="2">  1       -1 0.10861935E+00 0.13156092E+04</pdfrwt>
<totfact> 0.42542194E+01</totfact>
</mgrwt>
</event>
<event>
12    7  0.1544987E-007  0.1487845E+04  0.7818608E-02  0.8892576E-01
          2   -1    0    0  501    0  0.00000000000E+00  0.00000000000E+00  0.58826947388E+03  0.58826947388E+03  0.00000000000E+00 0. -1.
         -3   -1    0    0    0  501 -0.00000000000E+00 -0.00000000000E+00 -0.94076015198E+03  0.94076015198E+03  0.00000000000E+00 0.  1.
         24    2    1    2    0    0 -0.31740469541E+02  0.45172241624E+03 -0.20309570333E+03  0.50251230813E+03  0.78804545375E+02 0.  0.
        254    2    1    2    0    0  0.31740469541E+02 -0.45172241624E+03 -0.14939497476E+03  0.10265173177E+04  0.90904254376E+03 0.  0.
         23    2    4    4    0    0 -0.41073841613E+03 -0.14887843607E+03 -0.18094260278E+03  0.48167369701E+03  0.91643274052E+02 0.  0.
         23    2    4    4    0    0  0.44247888567E+03 -0.30284398017E+03  0.31547628017E+02  0.54484362072E+03  0.91418147036E+02 0.  0.
          4    1    3    3  502    0 -0.20033834708E+02  0.38338037738E+03 -0.20054412671E+03  0.43312794305E+03  0.00000000000E+00 0. -1.
         -3    1    3    3    0  502 -0.11706634833E+02  0.68342038864E+02 -0.25515766253E+01  0.69384365086E+02  0.00000000000E+00 0.  1.
         13    1    5    5    0    0 -0.39209318236E+03 -0.12080947958E+03 -0.17981647259E+03  0.44795754020E+03  0.00000000000E+00 0. -1.
        -13    1    5    5    0    0 -0.18645233775E+02 -0.28068956486E+02 -0.11261301841E+01  0.33716156809E+02  0.00000000000E+00 0.  1.
          4    1    6    6  503    0  0.48142855742E+00  0.38083990625E+01  0.49036698104E+01  0.62274918294E+01  0.00000000000E+00 0.  1.
         -4    1    6    6    0  503  0.44199745712E+03 -0.30665237924E+03  0.26643958206E+02  0.53861612889E+03  0.00000000000E+00 0. -1.
<mgrwt>
<rscale>  0 0.14878447E+04</rscale>
<asrwt>0</asrwt>
<pdfrwt beam="1">  1        2 0.90502997E-01 0.14878447E+04</pdfrwt>
<pdfrwt beam="2">  1       -3 0.14473233E+00 0.14878447E+04</pdfrwt>
<totfact> 0.10921624E+01</totfact>
</mgrwt>
</event>
<event>
12    7  0.1544987E-007  0.1574721E+04  0.7818608E-02  0.8836230E-01
          2   -1    0    0  501    0  0.00000000000E+00  0.00000000000E+00  0.11534653764E+04  0.11534653764E+04  0.00000000000E+00 0. -1.
         -1   -1    0    0    0  501 -0.00000000000E+00 -0.00000000000E+00 -0.53745537519E+03  0.53745537519E+03  0.00000000000E+00 0.  1.
         24    2    1    2    0    0  0.14559187565E+03 -0.29341226630E+03 -0.23254292122E+03  0.40945334776E+03  0.79297424354E+02 0.  0.
        254    2    1    2    0    0 -0.14559187565E+03  0.29341226630E+03  0.84855292248E+03  0.12814674039E+04  0.90267873170E+03 0.  0.
         23    2    4    4    0    0  0.28530372251E+03  0.35315765821E+03  0.63630509393E+03  0.78677822038E+03  0.89539096914E+02 0.  0.
         23    2    4    4    0    0 -0.43089559815E+03 -0.59745391902E+02  0.21224782855E+03  0.49468918349E+03  0.10211620428E+03 0.  0.
          2    1    3    3  502    0  0.10128420508E+03 -0.19295937157E+03 -0.10732846311E+03  0.24292222679E+03  0.00000000000E+00 0. -1.
         -1    1    3    3    0  502  0.44307670572E+02 -0.10045289474E+03 -0.12521445811E+03  0.16653112097E+03  0.00000000000E+00 0.  1.
         13    1    5    5    0    0  0.10951956266E+03  0.19271312127E+03  0.35236568294E+03  0.41628650738E+03  0.00000000000E+00 0. -1.
        -13    1    5    5    0    0  0.17578415985E+03  0.16044453694E+03  0.28393941099E+03  0.37049171300E+03  0.00000000000E+00 0.  1.
          1    1    6    6  503    0 -0.10789424932E+03 -0.51688497518E+02  0.28466592150E+02  0.12297648833E+03  0.00000000000E+00 0. -1.
         -1    1    6    6    0  503 -0.32300134883E+03 -0.80568943843E+01  0.18378123640E+03  0.37171269516E+03  0.00000000000E+00 0.  1.
<mgrwt>
<rscale>  0 0.15747205E+04</rscale>
<asrwt>0</asrwt>
<pdfrwt beam="1">  1        2 0.17745621E+00 0.15747205E+04</pdfrwt>
<pdfrwt beam="2">  1       -1 0.82685443E-01 0.15747205E+04</pdfrwt>
<totfact> 0.32177661E+01</totfact>
</mgrwt>
</event>
<event>
12    7  0.1544987E-007  0.1255239E+04  0.7818608E-02  0.9065834E-01
         -1   -1    0    0    0  501 -0.00000000000E+00  0.00000000000E+00  0.44818714321E+03  0.44818714321E+03  0.00000000000E+00 0.  1.
          2   -1    0    0  501    0  0.00000000000E+00 -0.00000000000E+00 -0.87888781834E+03  0.87888781834E+03  0.00000000000E+00 0. -1.
         24    2    1    2    0    0  0.90907502451E+02  0.17118585601E+03  0.13415227314E+03  0.24911815084E+03  0.80586905810E+02 0.  0.
        254    2    1    2    0    0 -0.90907502451E+02 -0.17118585601E+03 -0.56485294827E+03  0.10779568107E+04  0.89742033702E+03 0.  0.
         23    2    4    4    0    0  0.17036110567E+03 -0.24803130971E+03 -0.69511603080E+03  0.76303283647E+03  0.92143238139E+02 0.  0.
         23    2    4    4    0    0 -0.26126860812E+03  0.76845453696E+02  0.13026308253E+03  0.31492397424E+03  0.89677921126E+02 0.  0.
          2    1    3    3  502    0  0.31350756831E+02  0.18085559600E+02  0.57253583273E+02  0.67734261770E+02  0.00000000000E+00 0. -1.
         -1    1    3    3    0  502  0.59556745620E+02  0.15310029641E+03  0.76898689869E+02  0.18138388907E+03  0.00000000000E+00 0.  1.
         13    1    5    5    0    0  0.17983930208E+03 -0.24539502244E+03 -0.66361583250E+03  0.73003209844E+03  0.00000000000E+00 0.  1.
        -13    1    5    5    0    0 -0.94781964017E+01 -0.26362872712E+01 -0.31500198303E+02  0.33000738033E+02  0.00000000000E+00 0. -1.
          4    1    6    6  503    0 -0.62944085763E+02  0.18450201886E+02  0.77544673378E+02  0.10156546781E+03  0.00000000000E+00 0. -1.
         -4    1    6    6    0  503 -0.19832452236E+03  0.58395251810E+02  0.52718409153E+02  0.21335850643E+03  0.00000000000E+00 0.  1.
<mgrwt>
<rscale>  0 0.12552390E+04</rscale>
<asrwt>0</asrwt>
<pdfrwt beam="1">  1        2 0.13521351E+00 0.12552390E+04</pdfrwt>
<pdfrwt beam="2">  1       -1 0.68951868E-01 0.12552390E+04</pdfrwt>
<totfact> 0.72395032E+01</totfact>
</mgrwt>
</event>
<event>
12    7  0.1544987E-007  0.2109581E+04  0.7818608E-02  0.8557034E-01
         -1   -1    0    0    0  501 -0.00000000000E+00  0.00000000000E+00  0.45745854255E+03  0.45745854255E+03  0.00000000000E+00 0.  1.
          2   -1    0    0  501    0  0.00000000000E+00 -0.00000000000E+00 -0.24320964629E+04  0.24320964629E+04  0.00000000000E+00 0. -1.
         24    2    1    2    0    0 -0.76911103227E+03  0.28779111508E+03 -0.44271317785E+03  0.93628736776E+03  0.79268980734E+02 0.  0.
        254    2    1    2    0    0  0.76911103227E+03 -0.28779111508E+03 -0.15319247425E+04  0.19532676376E+04  0.89112599659E+03 0.  0.
         23    2    4    4    0    0  0.71442830251E+03  0.57083222983E+02 -0.55088468956E+03  0.90798610766E+03  0.85431473911E+02 0.  0.
         23    2    4    4    0    0  0.54682729760E+02 -0.34487433807E+03 -0.98104005290E+03  0.10452815300E+04  0.90804083175E+02 0.  0.
          4    1    3    3  502    0 -0.31796098415E+02  0.23372812804E+02 -0.37275585556E+02  0.54283971219E+02  0.00000000000E+00 0. -1.
         -3    1    3    3    0  502 -0.73731493386E+03  0.26441830228E+03 -0.40543759229E+03  0.88200339654E+03  0.00000000000E+00 0.  1.
         13    1    5    5    0    0  0.14463276862E+03  0.27540011916E+02 -0.76191521510E+02  0.16577767631E+03  0.00000000000E+00 0. -1.
        -13    1    5    5    0    0  0.56979553390E+03  0.29543211067E+02 -0.47469316805E+03  0.74220843134E+03  0.00000000000E+00 0.  1.
          4    1    6    6  503    0  0.65248723637E+02 -0.15973251064E+03 -0.40808600991E+03  0.44306439980E+03  0.00000000000E+00 0. -1.
         -4    1    6    6    0  503 -0.10565993877E+02 -0.18514182743E+03 -0.57295404300E+03  0.60221713018E+03  0.00000000000E+00 0.  1.
<mgrwt>
<rscale>  0 0.21095813E+04</rscale>
<asrwt>0</asrwt>
<pdfrwt beam="1">  1        2 0.37416868E+00 0.21095813E+04</pdfrwt>
<pdfrwt beam="2">  1       -1 0.70378239E-01 0.21095813E+04</pdfrwt>
<totfact> 0.81496964E+00</totfact>
</mgrwt>
</event>
<event>
12    7  0.1544987E-007  0.1520250E+04  0.7818608E-02  0.8871098E-01
          2   -1    0    0  501    0  0.00000000000E+00  0.00000000000E+00  0.35517761982E+03  0.35517761982E+03  0.00000000000E+00 0. -1.
         -1   -1    0    0    0  501 -0.00000000000E+00 -0.00000000000E+00 -0.16267634504E+04  0.16267634504E+04  0.00000000000E+00 0.  1.
         24    2    1    2    0    0  0.72434125637E+02  0.25147110448E+03 -0.80207422341E+03  0.84750122208E+03  0.80317137882E+02 0.  0.
        254    2    1    2    0    0 -0.72434125637E+02 -0.25147110448E+03 -0.46951160713E+03  0.11344398481E+04  0.99901361391E+03 0.  0.
         23    2    4    4    0    0 -0.92491506857E+02 -0.52406375703E+03 -0.60697184351E+03  0.81218312556E+03  0.89605303157E+02 0.  0.
         23    2    4    4    0    0  0.20057381220E+02  0.27259265255E+03  0.13746023639E+03  0.32225672253E+03  0.10121771518E+03 0.  0.
          2    1    3    3  502    0  0.79250347491E+02  0.21443334629E+03 -0.60267722210E+03  0.64457901891E+03  0.00000000000E+00 0. -1.
         -1    1    3    3    0  502 -0.68162218548E+01  0.37037758191E+02 -0.19939700131E+03  0.20292220318E+03  0.00000000000E+00 0.  1.
         13    1    5    5    0    0 -0.50393624586E+02 -0.45295325907E+03 -0.49271153145E+03  0.67117123413E+03  0.00000000000E+00 0.  1.
        -13    1    5    5    0    0 -0.42097882270E+02 -0.71110497960E+02 -0.11426031206E+03  0.14101189143E+03  0.00000000000E+00 0. -1.
          3    1    6    6  503    0  0.11642290402E+02  0.27361143001E+02  0.56539854255E+02  0.63882158631E+02  0.00000000000E+00 0. -1.
         -3    1    6    6    0  503  0.84150908179E+01  0.24523150955E+03  0.80920382132E+02  0.25837456390E+03  0.00000000000E+00 0.  1.
<mgrwt>
<rscale>  0 0.15202499E+04</rscale>
<asrwt>0</asrwt>
<pdfrwt beam="1">  1        2 0.54642711E-01 0.15202499E+04</pdfrwt>
<pdfrwt beam="2">  1       -1 0.25027130E+00 0.15202499E+04</pdfrwt>
<totfact> 0.69723956E+00</totfact>
</mgrwt>
</event>
<event>
12    7  0.1544987E-007  0.2379645E+04  0.7818608E-02  0.8447164E-01
          2   -1    0    0  501    0  0.00000000000E+00  0.00000000000E+00  0.11364744539E+04  0.11364744539E+04  0.00000000000E+00 0. -1.
         -1   -1    0    0    0  501 -0.00000000000E+00 -0.00000000000E+00 -0.12456749269E+04  0.12456749269E+04  0.00000000000E+00 0.  1.
         24    2    1    2    0    0 -0.22679474308E+03  0.27025913380E+03  0.90873607918E+03  0.97790350943E+03  0.77576783023E+02 0.  0.
        254    2    1    2    0    0  0.22679474308E+03 -0.27025913380E+03 -0.10179365522E+04  0.14042458713E+04  0.90068628722E+03 0.  0.
         23    2    4    4    0    0  0.22318516481E+03  0.19509082426E+03 -0.84580179752E+03  0.90064964837E+03  0.88977867546E+02 0.  0.
         23    2    4    4    0    0  0.36095782661E+01 -0.46534995807E+03 -0.17213475469E+03  0.50359622298E+03  0.86111378454E+02 0.  0.
          2    1    3    3  502    0 -0.19256757678E+03  0.20120189816E+03  0.63217903520E+03  0.69080735954E+03  0.00000000000E+00 0. -1.
         -1    1    3    3    0  502 -0.34227166301E+02  0.69057235646E+02  0.27655704398E+03  0.28709614989E+03  0.00000000000E+00 0.  1.
         13    1    5    5    0    0  0.67081483982E+02  0.26273043091E+02 -0.29729852122E+03  0.30590294050E+03  0.00000000000E+00 0. -1.
        -13    1    5    5    0    0  0.15610368083E+03  0.16881778117E+03 -0.54850327630E+03  0.59474670787E+03  0.00000000000E+00 0.  1.
          3    1    6    6  503    0  0.37163456695E+02 -0.10982598153E+03 -0.35674205283E+02  0.12130753338E+03  0.00000000000E+00 0. -1.
         -3    1    6    6    0  503 -0.33553878429E+02 -0.35552397654E+03 -0.13646054941E+03  0.38228868960E+03  0.00000000000E+00 0.  1.
<mgrwt>
<rscale>  0 0.23796451E+04</rscale>
<asrwt>0</asrwt>
<pdfrwt beam="1">  1        2 0.17484222E+00 0.23796451E+04</pdfrwt>
<pdfrwt beam="2">  1       -1 0.19164230E+00 0.23796451E+04</pdfrwt>
<totfact> 0.36557961E+00</totfact>
</mgrwt>
</event>
<event>
12    7  0.1544987E-007  0.1142537E+04  0.7818608E-02  0.9164696E-01
         -1   -1    0    0    0  501 -0.00000000000E+00  0.00000000000E+00  0.84996098399E+03  0.84996098399E+03  0.00000000000E+00 0.  1.
          2   -1    0    0  501    0  0.00000000000E+00 -0.00000000000E+00 -0.38395612228E+03  0.38395612228E+03  0.00000000000E+00 0. -1.
         24    2    1    2    0    0 -0.15695327849E+03  0.54741010992E+02  0.16000803009E+03  0.24408918833E+03  0.79662113033E+02 0.  0.
        254    2    1    2    0    0  0.15695327849E+03 -0.54741010992E+02  0.30599683163E+03  0.98982791794E+03  0.92654969444E+03 0.  0.
         23    2    4    4    0    0  0.20971963155E+03 -0.41443415014E+02 -0.29734888776E+03  0.37699173964E+03  0.89479216594E+02 0.  0.
         23    2    4    4    0    0 -0.52766353058E+02 -0.13297595978E+02  0.60334571939E+03  0.61283617830E+03  0.92633742530E+02 0.  0.
          4    1    3    3  502    0 -0.62778771748E+02 -0.57713458784E+01  0.22865735210E+02  0.67062094078E+02  0.00000000000E+00 0. -1.
         -3    1    3    3    0  502 -0.94174506741E+02  0.60512356870E+02  0.13714229488E+03  0.17702709425E+03  0.00000000000E+00 0.  1.
         13    1    5    5    0    0  0.13659612296E+02  0.20749620779E+02 -0.45324961361E+02  0.51686399497E+02  0.00000000000E+00 0. -1.
        -13    1    5    5    0    0  0.19606001925E+03 -0.62193035793E+02 -0.25202392640E+03  0.32530534015E+03  0.00000000000E+00 0.  1.
          4    1    6    6  503    0 -0.93840968904E+00  0.15575477226E+02  0.41661776292E+03  0.41690986614E+03  0.00000000000E+00 0.  1.
         -4    1    6    6    0  503 -0.51827943369E+02 -0.28873073204E+02  0.18672795647E+03  0.19592631216E+03  0.00000000000E+00 0. -1.
<mgrwt>
<rscale>  0 0.11425370E+04</rscale>
<asrwt>0</asrwt>
<pdfrwt beam="1">  1        2 0.59070173E-01 0.11425370E+04</pdfrwt>
<pdfrwt beam="2">  1       -1 0.13076323E+00 0.11425370E+04</pdfrwt>
<totfact> 0.47189317E+01</totfact>
</mgrwt>
</event>
<event>
12    7  0.1544987E-007  0.2162866E+04  0.7818608E-02  0.8534045E-01
         -1   -1    0    0    0  501 -0.00000000000E+00  0.00000000000E+00  0.57135417222E+03  0.57135417222E+03  0.00000000000E+00 0.  1.
          2   -1    0    0  501    0  0.00000000000E+00 -0.00000000000E+00 -0.20468872753E+04  0.20468872753E+04  0.00000000000E+00 0. -1.
         24    2    1    2    0    0  0.26183728326E+03  0.58987528791E+03 -0.13632641237E+04  0.15108880982E+04  0.88216528893E+02 0.  0.
        254    2    1    2    0    0 -0.26183728326E+03 -0.58987528791E+03 -0.11226897942E+03  0.11073533494E+04  0.89281324952E+03 0.  0.
         23    2    4    4    0    0 -0.22895692947E+03  0.18331958512E+03  0.51636430840E+02  0.31099941955E+03  0.89593371002E+02 0.  0.
         23    2    4    4    0    0 -0.32880353786E+02 -0.77319487303E+03 -0.16390541026E+03  0.79635392986E+03  0.91668799212E+02 0.  0.
          4    1    3    3  502    0  0.20872103191E+03  0.36668578748E+03 -0.88973363842E+03  0.98470751151E+03  0.00000000000E+00 0. -1.
         -3    1    3    3    0  502  0.53116251351E+02  0.22318950043E+03 -0.47353048529E+03  0.52618058665E+03  0.00000000000E+00 0.  1.
         13    1    5    5    0    0 -0.61058722645E+02  0.33223714157E+02  0.50274275761E+02  0.85787444284E+02  0.00000000000E+00 0. -1.
        -13    1    5    5    0    0 -0.16789820683E+03  0.15009587097E+03  0.13621550787E+01  0.22521197527E+03  0.00000000000E+00 0.  1.
          1    1    6    6  503    0 -0.29205352800E+02 -0.34854219971E+03 -0.29878025687E+02  0.35103748237E+03  0.00000000000E+00 0. -1.
         -1    1    6    6    0  503 -0.36750009863E+01 -0.42465267332E+03 -0.13402738457E+03  0.44531644749E+03  0.00000000000E+00 0.  1.
<mgrwt>
<rscale>  0 0.21628662E+04</rscale>
<asrwt>0</asrwt>
<pdfrwt beam="1">  1        2 0.31490574E+00 0.21628662E+04</pdfrwt>
<pdfrwt beam="2">  1       -1 0.87900641E-01 0.21628662E+04</pdfrwt>
<totfact> 0.83531289E+00</totfact>
</mgrwt>
</event>
<event>
12    7  0.1544987E-007  0.1290942E+04  0.7818608E-02  0.9036779E-01
          2   -1    0    0  501    0  0.00000000000E+00  0.00000000000E+00  0.93665654060E+03  0.93665654060E+03  0.00000000000E+00 0. -1.
         -1   -1    0    0    0  501 -0.00000000000E+00 -0.00000000000E+00 -0.44480878415E+03  0.44480878415E+03  0.00000000000E+00 0.  1.
         24    2    1    2    0    0 -0.10304050551E+03 -0.78951861006E+02 -0.25503164339E+03  0.29698214520E+03  0.79413558691E+02 0.  0.
        254    2    1    2    0    0  0.10304050551E+03  0.78951861006E+02  0.74687939985E+03  0.10844831795E+04  0.77551543290E+03 0.  0.
         23    2    4    4    0    0 -0.27000466290E+03 -0.62049190614E+02  0.80506584387E+02  0.30277355553E+03  0.91858019542E+02 0.  0.
         23    2    4    4    0    0  0.37304516841E+03  0.14100105162E+03  0.66637281546E+03  0.78170962402E+03  0.89292848836E+02 0.  0.
          2    1    3    3  502    0  0.16340290204E+01  0.61794632013E+01 -0.56993154930E+02  0.57350462293E+02  0.00000000000E+00 0. -1.
         -1    1    3    3    0  502 -0.10467453453E+03 -0.85131324207E+02 -0.19803848846E+03  0.23963168291E+03  0.00000000000E+00 0.  1.
         13    1    5    5    0    0 -0.87843098950E+02 -0.30444049741E+01  0.67553455076E+02  0.11085642844E+03  0.00000000000E+00 0.  1.
        -13    1    5    5    0    0 -0.18216156395E+03 -0.59004785640E+02  0.12953129311E+02  0.19191712709E+03  0.00000000000E+00 0. -1.
          2    1    6    6  503    0  0.84542232759E+02  0.30544687334E+02  0.23097393550E+03  0.24784940170E+03  0.00000000000E+00 0. -1.
         -2    1    6    6    0  503  0.28850293566E+03  0.11045636429E+03  0.43539887996E+03  0.53386022231E+03  0.00000000000E+00 0.  1.
<mgrwt>
<rscale>  0 0.12909424E+04</rscale>
<asrwt>0</asrwt>
<pdfrwt beam="1">  1        2 0.14410101E+00 0.12909424E+04</pdfrwt>
<pdfrwt beam="2">  1       -1 0.68432121E-01 0.12909424E+04</pdfrwt>
<totfact> 0.67034405E+01</totfact>
</mgrwt>
</event>
<event>
12    7  0.1544987E-007  0.1679232E+04  0.7818608E-02  0.8773299E-01
          2   -1    0    0  501    0  0.00000000000E+00  0.00000000000E+00  0.15172919853E+04  0.15172919853E+04  0.00000000000E+00 0. -1.
         -1   -1    0    0    0  501 -0.00000000000E+00 -0.00000000000E+00 -0.46461391230E+03  0.46461391230E+03  0.00000000000E+00 0.  1.
         24    2    1    2    0    0 -0.31640976230E+03  0.49642591887E+03  0.28682377719E+03  0.65946664642E+03  0.77939386550E+02 0.  0.
        254    2    1    2    0    0  0.31640976230E+03 -0.49642591887E+03  0.76585429579E+03  0.13224392512E+04  0.90319374448E+03 0.  0.
         23    2    4    4    0    0 -0.26937347728E+03 -0.60320799491E+02  0.41827649648E+03  0.50852147777E+03  0.86244980924E+02 0.  0.
         23    2    4    4    0    0  0.58578323957E+03 -0.43610511937E+03  0.34757779931E+03  0.81391777340E+03  0.91225744067E+02 0.  0.
          2    1    3    3  502    0 -0.25163872526E+03  0.42530726784E+03  0.21259686493E+03  0.53796444781E+03  0.00000000000E+00 0. -1.
         -1    1    3    3    0  502 -0.64771037037E+02  0.71118651026E+02  0.74226912267E+02  0.12150219861E+03  0.00000000000E+00 0.  1.
         13    1    5    5    0    0 -0.23293646955E+03 -0.21235823501E+02  0.31626516229E+03  0.39336244346E+03  0.00000000000E+00 0. -1.
        -13    1    5    5    0    0 -0.36437007728E+02 -0.39084975991E+02  0.10201133419E+03  0.11515903431E+03  0.00000000000E+00 0.  1.
          2    1    6    6  503    0  0.33918262300E+03 -0.20598086932E+03  0.21651241870E+03  0.45205154321E+03  0.00000000000E+00 0. -1.
         -2    1    6    6    0  503  0.24660061657E+03 -0.23012425005E+03  0.13106538061E+03  0.36186623019E+03  0.00000000000E+00 0.  1.
<mgrwt>
<rscale>  0 0.16792319E+04</rscale>
<asrwt>0</asrwt>
<pdfrwt beam="1">  1        2 0.23342953E+00 0.16792319E+04</pdfrwt>
<pdfrwt beam="2">  1       -1 0.71479064E-01 0.16792319E+04</pdfrwt>
<totfact> 0.26636227E+01</totfact>
</mgrwt>
</event>
<event>
12    7  0.1544987E-007  0.2126311E+04  0.7818608E-02  0.8549741E-01
         -1   -1    0    0    0  501 -0.00000000000E+00  0.00000000000E+00  0.63007613659E+03  0.63007613659E+03  0.00000000000E+00 0.  1.
          2   -1    0    0  501    0  0.00000000000E+00 -0.00000000000E+00 -0.17939095298E+04  0.17939095298E+04  0.00000000000E+00 0. -1.
         24    2    1    2    0    0  0.71650032803E+03  0.49429870388E+03 -0.51011448349E+03  0.10113319338E+04  0.69796599786E+02 0.  0.
        254    2    1    2    0    0 -0.71650032803E+03 -0.49429870388E+03 -0.65371890968E+03  0.14126537325E+04  0.90029896506E+03 0.  0.
         23    2    4    4    0    0  0.17410983230E+03 -0.25128859958E+03 -0.11142789934E+03  0.33795568288E+03  0.91310858374E+02 0.  0.
         23    2    4    4    0    0 -0.89061016033E+03 -0.24301010430E+03 -0.54229101034E+03  0.10746980497E+04  0.93037570818E+02 0.  0.
          2    1    3    3  502    0  0.44844880909E+03  0.27297774492E+03 -0.28780672703E+03  0.59871186369E+03  0.00000000000E+00 0. -1.
         -1    1    3    3    0  502  0.26805151894E+03  0.22132095896E+03 -0.22230775646E+03  0.41262007011E+03  0.00000000000E+00 0.  1.
         13    1    5    5    0    0  0.44389528518E+02 -0.10602274690E+02 -0.16348448866E+02  0.48477935713E+02  0.00000000000E+00 0.  1.
        -13    1    5    5    0    0  0.12972030378E+03 -0.24068632489E+03 -0.95079450472E+02  0.28947774717E+03  0.00000000000E+00 0. -1.
          2    1    6    6  503    0 -0.80118839621E+03 -0.24658884444E+03 -0.48593006005E+03  0.96893597708E+03  0.00000000000E+00 0. -1.
         -2    1    6    6    0  503 -0.89421764116E+02  0.35787401429E+01 -0.56360950291E+02  0.10576207258E+03  0.00000000000E+00 0.  1.
<mgrwt>
<rscale>  0 0.21263110E+04</rscale>
<asrwt>0</asrwt>
<pdfrwt beam="1">  1        2 0.27598608E+00 0.21263110E+04</pdfrwt>
<pdfrwt beam="2">  1       -1 0.96934792E-01 0.21263110E+04</pdfrwt>
<totfact> 0.93158701E+00</totfact>
</mgrwt>
</event>
<event>
12    7  0.1544987E-007  0.2523651E+04  0.7818608E-02  0.8394608E-01
         -1   -1    0    0    0  501 -0.00000000000E+00  0.00000000000E+00  0.12766330635E+04  0.12766330635E+04  0.00000000000E+00 0.  1.
          2   -1    0    0  501    0  0.00000000000E+00 -0.00000000000E+00 -0.12471895386E+04  0.12471895386E+04  0.00000000000E+00 0. -1.
         24    2    1    2    0    0 -0.86536877107E+03 -0.65985386041E+03 -0.17110213078E+03  0.11043797155E+04  0.78156188719E+02 0.  0.
        254    2    1    2    0    0  0.86536877107E+03  0.65985386041E+03  0.20054565572E+03  0.14194428866E+04  0.88900468014E+03 0.  0.
         23    2    4    4    0    0  0.75088902948E+03  0.30788169747E+02  0.14824097495E+03  0.77140239225E+03  0.91126385409E+02 0.  0.
         23    2    4    4    0    0  0.11447974159E+03  0.62906569066E+03  0.52304680771E+02  0.64804049438E+03  0.91604848789E+02 0.  0.
          4    1    3    3  502    0 -0.87765986406E+02 -0.61034021834E+02 -0.40310570519E+02  0.11424956143E+03  0.00000000000E+00 0. -1.
         -3    1    3    3    0  502 -0.77760278467E+03 -0.59881983857E+03 -0.13079156026E+03  0.99013015408E+03  0.00000000000E+00 0.  1.
         13    1    5    5    0    0  0.40157402999E+03  0.61601134261E+02  0.85221965867E+02  0.41511346012E+03  0.00000000000E+00 0. -1.
        -13    1    5    5    0    0  0.34931499949E+03 -0.30812964514E+02  0.63019009083E+02  0.35628893213E+03  0.00000000000E+00 0.  1.
          3    1    6    6  503    0  0.72607344547E+01  0.22589774779E+03 -0.99830529380E+01  0.22623477201E+03  0.00000000000E+00 0. -1.
         -3    1    6    6    0  503  0.10721900713E+03  0.40316794287E+03  0.62287733709E+02  0.42180572236E+03  0.00000000000E+00 0.  1.
<mgrwt>
<rscale>  0 0.25236508E+04</rscale>
<asrwt>0</asrwt>
<pdfrwt beam="1">  1        2 0.19187531E+00 0.25236508E+04</pdfrwt>
<pdfrwt beam="2">  1       -1 0.19640509E+00 0.25236508E+04</pdfrwt>
<totfact> 0.28707266E+00</totfact>
</mgrwt>
</event>
<event>
12    7  0.1544987E-007  0.1650539E+04  0.7818608E-02  0.8790088E-01
          2   -1    0    0  501    0  0.00000000000E+00  0.00000000000E+00  0.19421246073E+04  0.19421246073E+04  0.00000000000E+00 0. -1.
         -1   -1    0    0    0  501 -0.00000000000E+00 -0.00000000000E+00 -0.35068282864E+03  0.35068282864E+03  0.00000000000E+00 0.  1.
         24    2    1    2    0    0 -0.36422520482E+03 -0.37653463053E+03  0.89127634566E+03  0.10367948281E+04  0.78304938601E+02 0.  0.
        254    2    1    2    0    0  0.36422520482E+03  0.37653463053E+03  0.70016543298E+03  0.12560126078E+04  0.90160840149E+03 0.  0.
         23    2    4    4    0    0  0.40853388235E+03  0.34170276952E+03  0.88821930240E+03  0.10396760167E+04  0.91279652259E+02 0.  0.
         23    2    4    4    0    0 -0.44308677524E+02  0.34831861018E+02 -0.18805386943E+03  0.21633659107E+03  0.90888642755E+02 0.  0.
          2    1    3    3  502    0 -0.11771714261E+03 -0.12477795037E+03  0.22327973940E+03  0.28156829471E+03  0.00000000000E+00 0. -1.
         -1    1    3    3    0  502 -0.24650806221E+03 -0.25175668017E+03  0.66799660626E+03  0.75522653338E+03  0.00000000000E+00 0.  1.
         13    1    5    5    0    0  0.21306808281E+02  0.42439816644E+02  0.49341858805E+02  0.68481655545E+02  0.00000000000E+00 0. -1.
        -13    1    5    5    0    0  0.38722707407E+03  0.29926295287E+03  0.83887744360E+03  0.97119436120E+03  0.00000000000E+00 0.  1.
          4    1    6    6  503    0 -0.26437251635E+02  0.48704861903E+02 -0.44671522300E+02  0.71180311545E+02  0.00000000000E+00 0. -1.
         -4    1    6    6    0  503 -0.17871425889E+02 -0.13873000885E+02 -0.14338234713E+03  0.14515627952E+03  0.00000000000E+00 0.  1.
<mgrwt>
<rscale>  0 0.16505390E+04</rscale>
<asrwt>0</asrwt>
<pdfrwt beam="1">  1        2 0.29878840E+00 0.16505390E+04</pdfrwt>
<pdfrwt beam="2">  1       -1 0.53951205E-01 0.16505390E+04</pdfrwt>
<totfact> 0.27153117E+01</totfact>
</mgrwt>
</event>
<event>
12    7  0.1544987E-007  0.2235440E+04  0.7818608E-02  0.8503820E-01
          2   -1    0    0  501    0  0.00000000000E+00  0.00000000000E+00  0.11654467865E+04  0.11654467865E+04  0.00000000000E+00 0. -1.
         -1   -1    0    0    0  501 -0.00000000000E+00 -0.00000000000E+00 -0.10719475641E+04  0.10719475641E+04  0.00000000000E+00 0.  1.
         24    2    1    2    0    0 -0.30973482559E+03  0.67537040343E+03 -0.52697366012E+03  0.91592996798E+03  0.95737264310E+02 0.  0.
        254    2    1    2    0    0  0.30973482559E+03 -0.67537040343E+03  0.62047288247E+03  0.13214643826E+04  0.89956693615E+03 0.  0.
         23    2    4    4    0    0  0.55139440726E+02 -0.83983839380E+03  0.39551659531E+03  0.93454629494E+03  0.92598674891E+02 0.  0.
         23    2    4    4    0    0  0.25459538486E+03  0.16446799037E+03  0.22495628716E+03  0.38691808767E+03  0.85039670673E+02 0.  0.
          2    1    3    3  502    0 -0.51299548130E+00  0.28613644009E+02 -0.47533762816E+01  0.29010314957E+02  0.00000000000E+00 0. -1.
         -1    1    3    3    0  502 -0.30922183011E+03  0.64675675942E+03 -0.52222028384E+03  0.88691965302E+03  0.00000000000E+00 0.  1.
         13    1    5    5    0    0 -0.23062304557E+02 -0.19958920128E+03  0.76840307693E+02  0.21510962797E+03  0.00000000000E+00 0. -1.
        -13    1    5    5    0    0  0.78201745282E+02 -0.64024919252E+03  0.31867628762E+03  0.71943666697E+03  0.00000000000E+00 0.  1.
          2    1    6    6  503    0  0.11699824723E+03  0.12592286600E+03  0.12061691811E+03  0.20998475890E+03  0.00000000000E+00 0.  1.
         -2    1    6    6    0  503  0.13759713763E+03  0.38545124368E+02  0.10433936905E+03  0.17693332877E+03  0.00000000000E+00 0. -1.
<mgrwt>
<rscale>  0 0.22354399E+04</rscale>
<asrwt>0</asrwt>
<pdfrwt beam="1">  1        2 0.17929950E+00 0.22354399E+04</pdfrwt>
<pdfrwt beam="2">  1       -1 0.16491501E+00 0.22354399E+04</pdfrwt>
<totfact> 0.55408264E+00</totfact>
</mgrwt>
</event>
<event>
12    7  0.1544987E-007  0.1623541E+04  0.7818608E-02  0.8806215E-01
          2   -1    0    0  501    0  0.00000000000E+00  0.00000000000E+00  0.17912649734E+04  0.17912649734E+04  0.00000000000E+00 0. -1.
         -1   -1    0    0    0  501 -0.00000000000E+00 -0.00000000000E+00 -0.36788046906E+03  0.36788046906E+03  0.00000000000E+00 0.  1.
         24    2    1    2    0    0 -0.19271008206E+03 -0.38008668944E+03  0.78783200257E+03  0.89928715615E+03  0.80218811555E+02 0.  0.
        254    2    1    2    0    0  0.19271008206E+03  0.38008668944E+03  0.63555250181E+03  0.12598582863E+04  0.10008560595E+04 0.  0.
         23    2    4    4    0    0  0.10496399192E+03 -0.36899506374E+02  0.78599435879E+03  0.79909725344E+03  0.91598445553E+02 0.  0.
         23    2    4    4    0    0  0.87746090134E+02  0.41698619581E+03 -0.15044185699E+03  0.46076103290E+03  0.89950615718E+02 0.  0.
          2    1    3    3  502    0 -0.15542596470E+03 -0.34020181144E+03  0.72682950602E+03  0.81742010853E+03  0.00000000000E+00 0. -1.
         -1    1    3    3    0  502 -0.37284117362E+02 -0.39884878006E+02  0.61002496548E+02  0.81867047620E+02  0.00000000000E+00 0.  1.
         13    1    5    5    0    0  0.10553873395E+03 -0.30296502752E+02  0.45589238543E+03  0.46892874676E+03  0.00000000000E+00 0. -1.
        -13    1    5    5    0    0 -0.57474202969E+00 -0.66030036219E+01  0.33010197336E+03  0.33016850668E+03  0.00000000000E+00 0.  1.
          1    1    6    6  503    0  0.90186007742E+02  0.41474520592E+03 -0.15769619343E+03  0.45278603252E+03  0.00000000000E+00 0. -1.
         -1    1    6    6    0  503 -0.24399176079E+01  0.22409898961E+01  0.72543364474E+01  0.79750003724E+01  0.00000000000E+00 0.  1.
<mgrwt>
<rscale>  0 0.16235411E+04</rscale>
<asrwt>0</asrwt>
<pdfrwt beam="1">  1        2 0.27557922E+00 0.16235411E+04</pdfrwt>
<pdfrwt beam="2">  1       -1 0.56596996E-01 0.16235411E+04</pdfrwt>
<totfact> 0.30062586E+01</totfact>
</mgrwt>
</event>
<event>
12    7  0.1544987E-007  0.2778650E+04  0.7818608E-02  0.8309928E-01
          2   -1    0    0  501    0  0.00000000000E+00  0.00000000000E+00  0.23237463586E+04  0.23237463586E+04  0.00000000000E+00 0. -1.
         -1   -1    0    0    0  501 -0.00000000000E+00 -0.00000000000E+00 -0.83065163574E+03  0.83065163574E+03  0.00000000000E+00 0.  1.
         24    2    1    2    0    0 -0.71174677200E+03  0.10051085515E+04  0.82121417351E+03  0.14824410169E+04  0.80074853640E+02 0.  0.
        254    2    1    2    0    0  0.71174677200E+03 -0.10051085515E+04  0.67188054937E+03  0.16719569775E+04  0.90949985934E+03 0.  0.
         23    2    4    4    0    0  0.91687281990E+03 -0.84484503686E+03  0.48909470790E+03  0.13423161776E+04  0.90444365071E+02 0.  0.
         23    2    4    4    0    0 -0.20512604790E+03 -0.16026351461E+03  0.18278584147E+03  0.32964079985E+03  0.86552316222E+02 0.  0.
          4    1    3    3  502    0 -0.65212694963E+03  0.88632198789E+03  0.71460347488E+03  0.13120572971E+04  0.00000000000E+00 0. -1.
         -3    1    3    3    0  502 -0.59619822377E+02  0.11878656357E+03  0.10661069863E+03  0.17038371978E+03  0.00000000000E+00 0.  1.
         13    1    5    5    0    0  0.23474082886E+03 -0.17111782071E+03  0.13410644475E+03  0.31995172108E+03  0.00000000000E+00 0. -1.
        -13    1    5    5    0    0  0.68213199104E+03 -0.67372721615E+03  0.35498826314E+03  0.10223644565E+04  0.00000000000E+00 0.  1.
          3    1    6    6  503    0 -0.54031522491E+02 -0.95628197293E+02  0.78510964968E+02  0.13501158899E+03  0.00000000000E+00 0. -1.
         -3    1    6    6    0  503 -0.15109452541E+03 -0.64635317314E+02  0.10427487651E+03  0.19462921087E+03  0.00000000000E+00 0.  1.
<mgrwt>
<rscale>  0 0.27786498E+04</rscale>
<asrwt>0</asrwt>
<pdfrwt beam="1">  1        2 0.35749944E+00 0.27786498E+04</pdfrwt>
<pdfrwt beam="2">  1       -1 0.12779256E+00 0.27786498E+04</pdfrwt>
<totfact> 0.23062709E+00</totfact>
</mgrwt>
</event>
<event>
12    7  0.1544987E-007  0.2161863E+04  0.7818608E-02  0.8534471E-01
          2   -1    0    0  501    0  0.00000000000E+00  0.00000000000E+00  0.82644426960E+03  0.82644426960E+03  0.00000000000E+00 0. -1.
         -1   -1    0    0    0  501 -0.00000000000E+00 -0.00000000000E+00 -0.14137834610E+04  0.14137834610E+04  0.00000000000E+00 0.  1.
         24    2    1    2    0    0 -0.58532960045E+03  0.65440649432E+03 -0.66413909641E+02  0.88342150440E+03  0.71861993202E+02 0.  0.
        254    2    1    2    0    0  0.58532960045E+03 -0.65440649432E+03 -0.52092528181E+03  0.13568062262E+04  0.89370094852E+03 0.  0.
         23    2    4    4    0    0  0.72388524516E+03 -0.75918965815E+03 -0.46621074547E+03  0.11513205521E+04  0.88361582849E+02 0.  0.
         23    2    4    4    0    0 -0.13855564471E+03  0.10478316383E+03 -0.54714536343E+02  0.20548567414E+03  0.95149901124E+02 0.  0.
          4    1    3    3  502    0 -0.18751630943E+03  0.19819326896E+03  0.11762695102E+02  0.27309576921E+03  0.00000000000E+00 0. -1.
         -3    1    3    3    0  502 -0.39781329102E+03  0.45621322536E+03 -0.78176604743E+02  0.61032573519E+03  0.00000000000E+00 0.  1.
         13    1    5    5    0    0  0.20517034581E+03 -0.19891207968E+03 -0.16892085881E+03  0.33195653749E+03  0.00000000000E+00 0. -1.
        -13    1    5    5    0    0  0.51871489935E+03 -0.56027757848E+03 -0.29728988665E+03  0.81936401462E+03  0.00000000000E+00 0.  1.
          2    1    6    6  503    0 -0.83316794080E+02  0.67436627428E+02  0.15903617345E+02  0.10836194876E+03  0.00000000000E+00 0. -1.
         -2    1    6    6    0  503 -0.55238850631E+02  0.37346536404E+02 -0.70618153688E+02  0.97123725375E+02  0.00000000000E+00 0.  1.
<mgrwt>
<rscale>  0 0.21618633E+04</rscale>
<asrwt>0</asrwt>
<pdfrwt beam="1">  1        2 0.12714527E+00 0.21618633E+04</pdfrwt>
<pdfrwt beam="2">  1       -1 0.21750515E+00 0.21618633E+04</pdfrwt>
<totfact> 0.39453229E+00</totfact>
</mgrwt>
</event>
<event>
12    7  0.1544987E-007  0.1613766E+04  0.7818608E-02  0.8812136E-01
          2   -1    0    0  501    0  0.00000000000E+00  0.00000000000E+00  0.57232140644E+03  0.57232140644E+03  0.00000000000E+00 0. -1.
         -1   -1    0    0    0  501 -0.00000000000E+00 -0.00000000000E+00 -0.11375772134E+04  0.11375772134E+04  0.00000000000E+00 0.  1.
         24    2    1    2    0    0  0.25469286955E+03 -0.16266477507E+02 -0.72800686931E+03  0.77552921365E+03  0.79489014156E+02 0.  0.
        254    2    1    2    0    0 -0.25469286955E+03  0.16266477507E+02  0.16275106240E+03  0.93436940615E+03  0.88398259188E+03 0.  0.
         23    2    4    4    0    0 -0.28621136207E+03  0.14463301869E+03 -0.29787769467E+03  0.44634238581E+03  0.87491431078E+02 0.  0.
         23    2    4    4    0    0  0.31518492525E+02 -0.12836654118E+03  0.46062875707E+03  0.48802702034E+03  0.92304585325E+02 0.  0.
          2    1    3    3  502    0  0.13286412956E+03  0.31280384855E+02 -0.36604506457E+03  0.39066651852E+03  0.00000000000E+00 0. -1.
         -1    1    3    3    0  502  0.12182873999E+03 -0.47546862362E+02 -0.36196180474E+03  0.38486269512E+03  0.00000000000E+00 0.  1.
         13    1    5    5    0    0 -0.50903884072E+02  0.51571316690E+02 -0.31735798646E+02  0.79107313407E+02  0.00000000000E+00 0. -1.
        -13    1    5    5    0    0 -0.23530747800E+03  0.93061702001E+02 -0.26614189602E+03  0.36723507240E+03  0.00000000000E+00 0.  1.
          2    1    6    6  503    0  0.17699311058E+02  0.76746784144E+01  0.10998091412E+03  0.11166005450E+03  0.00000000000E+00 0. -1.
         -2    1    6    6    0  503  0.13819181467E+02 -0.13604121960E+03  0.35064784296E+03  0.37636696584E+03  0.00000000000E+00 0.  1.
<mgrwt>
<rscale>  0 0.16137655E+04</rscale>
<asrwt>0</asrwt>
<pdfrwt beam="1">  1        2 0.88049448E-01 0.16137655E+04</pdfrwt>
<pdfrwt beam="2">  1       -1 0.17501188E+00 0.16137655E+04</pdfrwt>
<totfact> 0.12994445E+01</totfact>
</mgrwt>
</event>
<event>
12    7  0.1544987E-007  0.1442792E+04  0.7818608E-02  0.8923413E-01
         -1   -1    0    0    0  501 -0.00000000000E+00  0.00000000000E+00  0.33721331424E+03  0.33721331424E+03  0.00000000000E+00 0.  1.
          2   -1    0    0  501    0  0.00000000000E+00 -0.00000000000E+00 -0.15432733421E+04  0.15432733421E+04  0.00000000000E+00 0. -1.
         24    2    1    2    0    0  0.27316861766E+03  0.32026391543E+03 -0.25698627579E+03  0.49977356364E+03  0.80880156791E+02 0.  0.
        254    2    1    2    0    0 -0.27316861766E+03 -0.32026391543E+03 -0.94907375210E+03  0.13807130927E+04  0.91018546917E+03 0.  0.
         23    2    4    4    0    0 -0.48192353383E+03  0.11987611863E+03 -0.41981853269E+03  0.65585900543E+03  0.85339664510E+02 0.  0.
         23    2    4    4    0    0  0.20875491617E+03 -0.44014003406E+03 -0.52925521942E+03  0.72485408730E+03  0.89445491722E+02 0.  0.
          2    1    3    3  502    0  0.10637973497E+03  0.73069819877E+02 -0.59533360004E+02  0.14212694165E+03  0.00000000000E+00 0. -1.
         -1    1    3    3    0  502  0.16678888269E+03  0.24719409556E+03 -0.19745291578E+03  0.35764662199E+03  0.00000000000E+00 0.  1.
         13    1    5    5    0    0 -0.12492006269E+03 -0.42381502702E+01 -0.87465571838E+02  0.15255559720E+03  0.00000000000E+00 0.  1.
        -13    1    5    5    0    0 -0.35700347114E+03  0.12411426890E+03 -0.33235296085E+03  0.50330340823E+03  0.00000000000E+00 0. -1.
          1    1    6    6  503    0  0.14175738429E+03 -0.32929563829E+03 -0.33040547918E+03  0.48754338686E+03  0.00000000000E+00 0. -1.
         -1    1    6    6    0  503  0.66997531879E+02 -0.11084439577E+03 -0.19884974024E+03  0.23731070044E+03  0.00000000000E+00 0.  1.
<mgrwt>
<rscale>  0 0.14427922E+04</rscale>
<asrwt>0</asrwt>
<pdfrwt beam="1">  1        2 0.23742667E+00 0.14427922E+04</pdfrwt>
<pdfrwt beam="2">  1       -1 0.51878972E-01 0.14427922E+04</pdfrwt>
<totfact> 0.49618109E+01</totfact>
</mgrwt>
</event>
<event>
12    7  0.1544987E-007  0.1264171E+04  0.7818608E-02  0.9058470E-01
         -1   -1    0    0    0  501 -0.00000000000E+00  0.00000000000E+00  0.63247022820E+03  0.63247022820E+03  0.00000000000E+00 0.  1.
          2   -1    0    0  501    0  0.00000000000E+00 -0.00000000000E+00 -0.63170144199E+03  0.63170144199E+03  0.00000000000E+00 0. -1.
         24    2    1    2    0    0 -0.12666860730E+03  0.24188329818E+03  0.12944580161E+03  0.31276228093E+03  0.80694255094E+02 0.  0.
        254    2    1    2    0    0  0.12666860730E+03 -0.24188329818E+03 -0.12867701541E+03  0.95140938926E+03  0.90225804827E+03 0.  0.
         23    2    4    4    0    0  0.26668934289E+03 -0.32375349262E+03  0.27262419017E+03  0.50938211708E+03  0.95951355078E+02 0.  0.
         23    2    4    4    0    0 -0.14002073559E+03  0.81870194441E+02 -0.40130120558E+03  0.44202727218E+03  0.89648851753E+02 0.  0.
          4    1    3    3  502    0 -0.12814874032E+03  0.23650884860E+03  0.10676844256E+03  0.28940980536E+03  0.00000000000E+00 0. -1.
         -3    1    3    3    0  502  0.14801330147E+01  0.53744495773E+01  0.22677359044E+02  0.23352475570E+02  0.00000000000E+00 0.  1.
         13    1    5    5    0    0  0.12511075738E+03 -0.14547153332E+03  0.18164977972E+03  0.26421830196E+03  0.00000000000E+00 0.  1.
        -13    1    5    5    0    0  0.14157858551E+03 -0.17828195930E+03  0.90974410447E+02  0.24516381512E+03  0.00000000000E+00 0. -1.
          2    1    6    6  503    0 -0.10137118814E+03  0.96830740668E+02 -0.34258651646E+03  0.37015919735E+03  0.00000000000E+00 0.  1.
         -2    1    6    6    0  503 -0.38649547452E+02 -0.14960546227E+02 -0.58714689117E+02  0.71868074830E+02  0.00000000000E+00 0. -1.
<mgrwt>
<rscale>  0 0.12641714E+04</rscale>
<asrwt>0</asrwt>
<pdfrwt beam="1">  1        2 0.97184837E-01 0.12641714E+04</pdfrwt>
<pdfrwt beam="2">  1       -1 0.97303113E-01 0.12641714E+04</pdfrwt>
<totfact> 0.53070240E+01</totfact>
</mgrwt>
</event>
<event>
12    7  0.1544987E-007  0.1416092E+04  0.7818608E-02  0.8942252E-01
          2   -1    0    0  501    0  0.00000000000E+00  0.00000000000E+00  0.72265486633E+03  0.72265486633E+03  0.00000000000E+00 0. -1.
         -1   -1    0    0    0  501 -0.00000000000E+00 -0.00000000000E+00 -0.69373200940E+03  0.69373200940E+03  0.00000000000E+00 0.  1.
         24    2    1    2    0    0 -0.21789368394E+03  0.14813907350E+03  0.33916994026E+03  0.43631135750E+03  0.76866831001E+02 0.  0.
        254    2    1    2    0    0  0.21789368394E+03 -0.14813907350E+03 -0.31024708334E+03  0.98007551822E+03  0.89155590184E+03 0.  0.
         23    2    4    4    0    0  0.22361922719E+03  0.97608719737E+02 -0.56124553899E+03  0.61885747116E+03  0.91951039335E+02 0.  0.
         23    2    4    4    0    0 -0.57255432478E+01 -0.24574779324E+03  0.25099845566E+03  0.36121804706E+03  0.83985076381E+02 0.  0.
          2    1    3    3  502    0 -0.17149668866E+03  0.14161881384E+03  0.24351248975E+03  0.32979589949E+03  0.00000000000E+00 0. -1.
         -1    1    3    3    0  502 -0.46396995284E+02  0.65202596579E+01  0.95657450513E+02  0.10651545801E+03  0.00000000000E+00 0.  1.
         13    1    5    5    0    0  0.20579542223E+03  0.56531680051E+02 -0.49326402180E+03  0.53745416722E+03  0.00000000000E+00 0. -1.
        -13    1    5    5    0    0  0.17823804958E+02  0.41077039685E+02 -0.67981517194E+02  0.81403303941E+02  0.00000000000E+00 0.  1.
          2    1    6    6  503    0 -0.13602084278E+02 -0.24361826525E+03  0.25429186375E+03  0.35241910821E+03  0.00000000000E+00 0. -1.
         -2    1    6    6    0  503  0.78765410299E+01 -0.21295279864E+01 -0.32934080958E+01  0.87989388523E+01  0.00000000000E+00 0.  1.
<mgrwt>
<rscale>  0 0.14160915E+04</rscale>
<asrwt>0</asrwt>
<pdfrwt beam="1">  1        2 0.11117767E+00 0.14160915E+04</pdfrwt>
<pdfrwt beam="2">  1       -1 0.10672800E+00 0.14160915E+04</pdfrwt>
<totfact> 0.35810858E+01</totfact>
</mgrwt>
</event>
<event>
12    7  0.1544987E-007  0.1374897E+04  0.7818608E-02  0.8972192E-01
          2   -1    0    0  501    0  0.00000000000E+00  0.00000000000E+00  0.69109969581E+03  0.69109969581E+03  0.00000000000E+00 0. -1.
         -1   -1    0    0    0  501 -0.00000000000E+00 -0.00000000000E+00 -0.68381671722E+03  0.68381671722E+03  0.00000000000E+00 0.  1.
         24    2    1    2    0    0  0.11325619746E+03  0.26489944429E+03  0.26544002219E+03  0.39953524235E+03  0.78557766329E+02 0.  0.
        254    2    1    2    0    0 -0.11325619746E+03 -0.26489944429E+03 -0.25815704360E+03  0.97538117069E+03  0.89539080134E+03 0.  0.
         23    2    4    4    0    0  0.32468703469E+02  0.14415797519E+03 -0.45761037883E+03  0.48988095200E+03  0.93489837927E+02 0.  0.
         23    2    4    4    0    0 -0.14572490093E+03 -0.40905741948E+03  0.19945333523E+03  0.48550021870E+03  0.85820220418E+02 0.  0.
          4    1    3    3  502    0  0.12513847475E+03  0.24897995970E+03  0.25015126309E+03  0.37446803952E+03  0.00000000000E+00 0. -1.
         -3    1    3    3    0  502 -0.11882277283E+02  0.15919484586E+02  0.15288759095E+02  0.25067202827E+02  0.00000000000E+00 0.  1.
         13    1    5    5    0    0  0.58861705463E+02  0.13024362109E+03 -0.40385609165E+03  0.42840149856E+03  0.00000000000E+00 0. -1.
        -13    1    5    5    0    0 -0.26393001994E+02  0.13914354107E+02 -0.53754287185E+02  0.61479453439E+02  0.00000000000E+00 0.  1.
          1    1    6    6  503    0 -0.14059307536E+03 -0.28914545483E+03  0.16025472939E+03  0.35923959301E+03  0.00000000000E+00 0. -1.
         -1    1    6    6    0  503 -0.51318255704E+01 -0.11991196465E+03  0.39198605841E+02  0.12626062569E+03  0.00000000000E+00 0.  1.
<mgrwt>
<rscale>  0 0.13748971E+04</rscale>
<asrwt>0</asrwt>
<pdfrwt beam="1">  1        2 0.10632303E+00 0.13748971E+04</pdfrwt>
<pdfrwt beam="2">  1       -1 0.10520257E+00 0.13748971E+04</pdfrwt>
<totfact> 0.39326678E+01</totfact>
</mgrwt>
</event>
<event>
12    7  0.1544987E-007  0.1427234E+04  0.7818608E-02  0.8934337E-01
         -1   -1    0    0    0  501 -0.00000000000E+00  0.00000000000E+00  0.14403506433E+03  0.14403506433E+03  0.00000000000E+00 0.  1.
          2   -1    0    0  501    0  0.00000000000E+00 -0.00000000000E+00 -0.35355941727E+04  0.35355941727E+04  0.00000000000E+00 0. -1.
         24    2    1    2    0    0 -0.29046069686E+03  0.31320169967E+03 -0.14352506456E+04  0.14995182044E+04  0.78407324645E+02 0.  0.
        254    2    1    2    0    0  0.29046069686E+03 -0.31320169967E+03 -0.19563084627E+04  0.21801110326E+04  0.86213606348E+03 0.  0.
         23    2    4    4    0    0 -0.18960003005E+03 -0.63256981546E+02 -0.94645100730E+02  0.23921806847E+03  0.91202917072E+02 0.  0.
         23    2    4    4    0    0  0.48006072691E+03 -0.24994471813E+03 -0.18616633620E+04  0.19408929641E+04  0.91347474452E+02 0.  0.
          2    1    3    3  502    0 -0.29511026888E+03  0.31170424660E+03 -0.14229653383E+04  0.14862974003E+04  0.00000000000E+00 0. -1.
         -1    1    3    3    0  502  0.46495720222E+01  0.14974530772E+01 -0.12285307283E+02  0.13220804088E+02  0.00000000000E+00 0.  1.
         13    1    5    5    0    0 -0.35672890397E+02 -0.20427100389E+02 -0.64710456970E+02  0.76663320961E+02  0.00000000000E+00 0.  1.
        -13    1    5    5    0    0 -0.15392713965E+03 -0.42829881157E+02 -0.29934643761E+02  0.16255474751E+03  0.00000000000E+00 0. -1.
          2    1    6    6  503    0  0.47394843711E+02  0.28803027193E+01 -0.17949788451E+03  0.18567190928E+03  0.00000000000E+00 0.  1.
         -2    1    6    6    0  503  0.43266588320E+03 -0.25282502085E+03 -0.16821654775E+04  0.17552210548E+04  0.00000000000E+00 0. -1.
<mgrwt>
<rscale>  0 0.14272344E+04</rscale>
<asrwt>0</asrwt>
<pdfrwt beam="1">  1        2 0.54393761E+00 0.14272344E+04</pdfrwt>
<pdfrwt beam="2">  1       -1 0.22159239E-01 0.14272344E+04</pdfrwt>
<totfact> 0.14858876E+01</totfact>
</mgrwt>
</event>
<event>
12    7  0.1544987E-007  0.1618854E+04  0.7818608E-02  0.8809049E-01
          2   -1    0    0  501    0  0.00000000000E+00  0.00000000000E+00  0.83425574707E+03  0.83425574707E+03  0.00000000000E+00 0. -1.
         -1   -1    0    0    0  501 -0.00000000000E+00 -0.00000000000E+00 -0.78533683961E+03  0.78533683961E+03  0.00000000000E+00 0.  1.
         24    2    1    2    0    0  0.40087600819E+02 -0.51051578728E+03 -0.19390010645E+03  0.55325646543E+03  0.79133308154E+02 0.  0.
        254    2    1    2    0    0 -0.40087600819E+02  0.51051578728E+03  0.24281901391E+03  0.10663361213E+04  0.90325979938E+03 0.  0.
         23    2    4    4    0    0  0.91719311342E+02  0.22378917304E+03 -0.32196494305E+03  0.41313110014E+03  0.92313895542E+02 0.  0.
         23    2    4    4    0    0 -0.13180691216E+03  0.28672661423E+03  0.56478395695E+03  0.65320502111E+03  0.90059248106E+02 0.  0.
          4    1    3    3  502    0  0.39069805120E+02 -0.23570541324E+03 -0.54276879355E+02  0.24500912460E+03  0.00000000000E+00 0. -1.
         -3    1    3    3    0  502  0.10177956992E+01 -0.27481037403E+03 -0.13962322709E+03  0.30824734083E+03  0.00000000000E+00 0.  1.
         13    1    5    5    0    0  0.89264089859E+02  0.23252025120E+03 -0.31564557029E+03  0.40207694661E+03  0.00000000000E+00 0.  1.
        -13    1    5    5    0    0  0.24552214833E+01 -0.87310781520E+01 -0.63193727579E+01  0.11054153531E+02  0.00000000000E+00 0. -1.
          4    1    6    6  503    0 -0.21959364882E+02  0.11069202016E+02  0.16018585183E+02  0.29348526548E+02  0.00000000000E+00 0. -1.
         -4    1    6    6    0  503 -0.10984754728E+03  0.27565741222E+03  0.54876537177E+03  0.62385649456E+03  0.00000000000E+00 0.  1.
<mgrwt>
<rscale>  0 0.16188536E+04</rscale>
<asrwt>0</asrwt>
<pdfrwt beam="1">  1        2 0.12834704E+00 0.16188536E+04</pdfrwt>
<pdfrwt beam="2">  1       -1 0.12082105E+00 0.16188536E+04</pdfrwt>
<totfact> 0.21670491E+01</totfact>
</mgrwt>
</event>
<event>
12    7  0.1544987E-007  0.2321634E+04  0.7818608E-02  0.8469440E-01
         -1   -1    0    0    0  501 -0.00000000000E+00  0.00000000000E+00  0.11231531289E+04  0.11231531289E+04  0.00000000000E+00 0.  1.
          2   -1    0    0  501    0  0.00000000000E+00 -0.00000000000E+00 -0.11997437112E+04  0.11997437112E+04  0.00000000000E+00 0. -1.
         24    2    1    2    0    0  0.82907127371E+02 -0.48307456577E+03 -0.88766698313E+03  0.10168567887E+04  0.76226163568E+02 0.  0.
        254    2    1    2    0    0 -0.82907127371E+02  0.48307456577E+03  0.81107640087E+03  0.13060400514E+04  0.89869964940E+03 0.  0.
         23    2    4    4    0    0 -0.46477260059E+03  0.21278373065E+03  0.57382379003E+03  0.77370120911E+03  0.89718073391E+02 0.  0.
         23    2    4    4    0    0  0.38186547322E+03  0.27029083512E+03  0.23725261084E+03  0.53233884224E+03  0.90650242250E+02 0.  0.
          4    1    3    3  502    0  0.96439741512E+02 -0.43264590391E+03 -0.80810230975E+03  0.92168999395E+03  0.00000000000E+00 0. -1.
         -3    1    3    3    0  502 -0.13532614141E+02 -0.50428661853E+02 -0.79564673378E+02  0.95166794795E+02  0.00000000000E+00 0.  1.
         13    1    5    5    0    0 -0.32999362329E+03  0.12919717366E+03  0.33957104822E+03  0.49081177440E+03  0.00000000000E+00 0.  1.
        -13    1    5    5    0    0 -0.13477897730E+03  0.83586556982E+02  0.23425274181E+03  0.28288943472E+03  0.00000000000E+00 0. -1.
          2    1    6    6  503    0  0.34203340197E+03  0.26985140087E+03  0.20714383646E+03  0.48240563388E+03  0.00000000000E+00 0.  1.
         -2    1    6    6    0  503  0.39832071247E+02  0.43943424831E+00  0.30108774380E+02  0.49933208359E+02  0.00000000000E+00 0. -1.
<mgrwt>
<rscale>  0 0.23216338E+04</rscale>
<asrwt>0</asrwt>
<pdfrwt beam="1">  1        2 0.18457596E+00 0.23216338E+04</pdfrwt>
<pdfrwt beam="2">  1       -1 0.17279279E+00 0.23216338E+04</pdfrwt>
<totfact> 0.45882876E+00</totfact>
</mgrwt>
</event>
<event>
12    7  0.1544987E-007  0.1766460E+04  0.7818608E-02  0.8724342E-01
          2   -1    0    0  501    0  0.00000000000E+00  0.00000000000E+00  0.16436829093E+04  0.16436829093E+04  0.00000000000E+00 0. -1.
         -1   -1    0    0    0  501 -0.00000000000E+00 -0.00000000000E+00 -0.47460176272E+03  0.47460176272E+03  0.00000000000E+00 0.  1.
         24    2    1    2    0    0 -0.31641853650E+03  0.55540919255E+03  0.57483952973E+03  0.86318386954E+03  0.77755040198E+02 0.  0.
        254    2    1    2    0    0  0.31641853650E+03 -0.55540919255E+03  0.59424161683E+03  0.12551008025E+04  0.90197276220E+03 0.  0.
         23    2    4    4    0    0  0.21645247520E+03 -0.34122952392E+03  0.81836106043E+03  0.91706693766E+03  0.89485646378E+02 0.  0.
         23    2    4    4    0    0  0.99966061305E+02 -0.21417966863E+03 -0.22411944359E+03  0.33803386480E+03  0.90394827774E+02 0.  0.
          4    1    3    3  502    0 -0.68219136839E+02  0.72289444051E+02  0.11029947496E+03  0.14847756911E+03  0.00000000000E+00 0. -1.
         -3    1    3    3    0  502 -0.24819939966E+03  0.48311974850E+03  0.46454005477E+03  0.71470630043E+03  0.00000000000E+00 0.  1.
         13    1    5    5    0    0  0.11016925035E+03 -0.20077459067E+03  0.55327129832E+03  0.59879615022E+03  0.00000000000E+00 0. -1.
        -13    1    5    5    0    0  0.10628322485E+03 -0.14045493325E+03  0.26508976211E+03  0.31827078743E+03  0.00000000000E+00 0.  1.
          2    1    6    6  503    0  0.79747748574E+02 -0.16197075104E+03 -0.21591482625E+03  0.28144882269E+03  0.00000000000E+00 0. -1.
         -2    1    6    6    0  503  0.20218312731E+02 -0.52208917591E+02 -0.82046173424E+01  0.56585042118E+02  0.00000000000E+00 0.  1.
<mgrwt>
<rscale>  0 0.17664595E+04</rscale>
<asrwt>0</asrwt>
<pdfrwt beam="1">  1        2 0.25287429E+00 0.17664595E+04</pdfrwt>
<pdfrwt beam="2">  1       -1 0.73015656E-01 0.17664595E+04</pdfrwt>
<totfact> 0.21494547E+01</totfact>
</mgrwt>
</event>
<event>
12    7  0.1544987E-007  0.1787606E+04  0.7818608E-02  0.8712918E-01
          2   -1    0    0  501    0  0.00000000000E+00  0.00000000000E+00  0.35101714118E+04  0.35101714118E+04  0.00000000000E+00 0. -1.
         -1   -1    0    0    0  501 -0.00000000000E+00 -0.00000000000E+00 -0.22759123296E+03  0.22759123296E+03  0.00000000000E+00 0.  1.
         24    2    1    2    0    0 -0.61606141813E+03  0.17343913289E+03  0.97713692820E+03  0.11708042064E+04  0.79831757400E+02 0.  0.
        254    2    1    2    0    0  0.61606141813E+03 -0.17343913289E+03  0.23054432507E+04  0.25669584384E+04  0.92983559771E+03 0.  0.
         23    2    4    4    0    0  0.14722291798E+03 -0.16005222462E+03  0.24390194871E+02  0.23641744630E+03  0.89481982114E+02 0.  0.
         23    2    4    4    0    0  0.46883850014E+03 -0.13386908273E+02  0.22810530558E+04  0.23305409921E+04  0.90716724147E+02 0.  0.
          2    1    3    3  502    0 -0.29856281786E+03  0.11639926601E+03  0.44161752204E+03  0.54563227645E+03  0.00000000000E+00 0. -1.
         -1    1    3    3    0  502 -0.31749860027E+03  0.57039866877E+02  0.53551940617E+03  0.62517192993E+03  0.00000000000E+00 0.  1.
         13    1    5    5    0    0  0.48152416817E+02 -0.30253465681E+01  0.14948588204E+02  0.50510080742E+02  0.00000000000E+00 0. -1.
        -13    1    5    5    0    0  0.99070501167E+02 -0.15702687805E+03  0.94416066662E+01  0.18590736555E+03  0.00000000000E+00 0.  1.
          2    1    6    6  503    0  0.20275117841E+02  0.55620248070E+01  0.22821482574E+03  0.22918120169E+03  0.00000000000E+00 0. -1.
         -2    1    6    6    0  503  0.44856338230E+03 -0.18948933080E+02  0.20528382301E+04  0.21013597904E+04  0.00000000000E+00 0.  1.
<mgrwt>
<rscale>  0 0.17876065E+04</rscale>
<asrwt>0</asrwt>
<pdfrwt beam="1">  1        2 0.54002633E+00 0.17876065E+04</pdfrwt>
<pdfrwt beam="2">  1       -1 0.35014038E-01 0.17876065E+04</pdfrwt>
<totfact> 0.67289257E+00</totfact>
</mgrwt>
</event>
<event>
12    7  0.1544987E-007  0.1755849E+04  0.7818608E-02  0.8730137E-01
         -1   -1    0    0    0  501 -0.00000000000E+00  0.00000000000E+00  0.33462628697E+03  0.33462628697E+03  0.00000000000E+00 0.  1.
          2   -1    0    0  501    0  0.00000000000E+00 -0.00000000000E+00 -0.23033207239E+04  0.23033207239E+04  0.00000000000E+00 0. -1.
         24    2    1    2    0    0 -0.31283759282E+03 -0.16651764582E+03  0.80382733176E+02  0.37242771699E+03  0.81520149271E+02 0.  0.
        254    2    1    2    0    0  0.31283759282E+03  0.16651764582E+03 -0.20490771701E+04  0.22655192939E+04  0.89903555885E+03 0.  0.
         23    2    4    4    0    0  0.38187636125E+03  0.21388868055E+03 -0.20906958299E+04  0.21377227028E+04  0.85272376099E+02 0.  0.
         23    2    4    4    0    0 -0.69038768436E+02 -0.47371034724E+02  0.41618659783E+02  0.12779659106E+03  0.87117675397E+02 0.  0.
          4    1    3    3  502    0 -0.14907843476E+03 -0.77135740732E+02 -0.34647417580E+01  0.16788777991E+03  0.00000000000E+00 0. -1.
         -3    1    3    3    0  502 -0.16375915806E+03 -0.89381905091E+02  0.83847474934E+02  0.20453993708E+03  0.00000000000E+00 0.  1.
         13    1    5    5    0    0  0.32578373708E+03  0.15202592821E+03 -0.17838773390E+04  0.18197431925E+04  0.00000000000E+00 0. -1.
        -13    1    5    5    0    0  0.56092624175E+02  0.61862752333E+02 -0.30681849089E+03  0.31797951030E+03  0.00000000000E+00 0.  1.
          2    1    6    6  503    0 -0.67853637819E+02 -0.46302395580E+02 -0.39105642976E+01  0.82239409743E+02  0.00000000000E+00 0. -1.
         -2    1    6    6    0  503 -0.11851306163E+01 -0.10686391438E+01  0.45529224081E+02  0.45557181317E+02  0.00000000000E+00 0.  1.
<mgrwt>
<rscale>  0 0.17558493E+04</rscale>
<asrwt>0</asrwt>
<pdfrwt beam="1">  1        2 0.35435704E+00 0.17558493E+04</pdfrwt>
<pdfrwt beam="2">  1       -1 0.51480966E-01 0.17558493E+04</pdfrwt>
<totfact> 0.18497547E+01</totfact>
</mgrwt>
</event>
<event>
12    7  0.1544987E-007  0.1480260E+04  0.7818608E-02  0.8897687E-01
         -1   -1    0    0    0  501 -0.00000000000E+00  0.00000000000E+00  0.47832192686E+03  0.47832192686E+03  0.00000000000E+00 0.  1.
          2   -1    0    0  501    0  0.00000000000E+00 -0.00000000000E+00 -0.11452373071E+04  0.11452373071E+04  0.00000000000E+00 0. -1.
         24    2    1    2    0    0 -0.11731172579E+03 -0.34434801671E+03 -0.54820129645E+03  0.66308081516E+03  0.82546401381E+02 0.  0.
        254    2    1    2    0    0  0.11731172579E+03  0.34434801671E+03 -0.11871408379E+03  0.96047841880E+03  0.88095866059E+03 0.  0.
         23    2    4    4    0    0  0.44289285070E+03  0.55277879489E+02 -0.21647350504E+03  0.50494500742E+03  0.94334304311E+02 0.  0.
         23    2    4    4    0    0 -0.32558112491E+03  0.28907013722E+03  0.97759421253E+02  0.45553341139E+03  0.91592419511E+02 0.  0.
          4    1    3    3  502    0 -0.27984273031E+02 -0.15622172815E+03 -0.29729891931E+03  0.33700889500E+03  0.00000000000E+00 0. -1.
         -3    1    3    3    0  502 -0.89327452755E+02 -0.18812628856E+03 -0.25090237714E+03  0.32607192016E+03  0.00000000000E+00 0.  1.
         13    1    5    5    0    0  0.40021774255E+03  0.62378004084E+02 -0.16413599275E+03  0.43704219586E+03  0.00000000000E+00 0. -1.
        -13    1    5    5    0    0  0.42675108145E+02 -0.71001245952E+01 -0.52337512287E+02  0.67902811553E+02  0.00000000000E+00 0.  1.
          2    1    6    6  503    0 -0.20013176466E+03  0.12017077264E+03  0.67315091105E+02  0.24295073433E+03  0.00000000000E+00 0. -1.
         -2    1    6    6    0  503 -0.12544936025E+03  0.16889936458E+03  0.30444330149E+02  0.21258267705E+03  0.00000000000E+00 0.  1.
<mgrwt>
<rscale>  0 0.14802596E+04</rscale>
<asrwt>0</asrwt>
<pdfrwt beam="1">  1        2 0.17619035E+00 0.14802596E+04</pdfrwt>
<pdfrwt beam="2">  1       -1 0.73587990E-01 0.14802596E+04</pdfrwt>
<totfact> 0.41961860E+01</totfact>
</mgrwt>
</event>
<event>
12    7  0.1544987E-007  0.2410164E+04  0.7818608E-02  0.8435708E-01
         -1   -1    0    0    0  501 -0.00000000000E+00  0.00000000000E+00  0.15936706367E+04  0.15936706367E+04  0.00000000000E+00 0.  1.
          2   -1    0    0  501    0  0.00000000000E+00 -0.00000000000E+00 -0.91124399084E+03  0.91124399084E+03  0.00000000000E+00 0. -1.
         24    2    1    2    0    0 -0.58325794992E+03 -0.78661787660E+02  0.11802471433E+04  0.13212434414E+04  0.79519803613E+02 0.  0.
        254    2    1    2    0    0  0.58325794992E+03  0.78661787660E+02 -0.49782049747E+03  0.11836711861E+04  0.89826205318E+03 0.  0.
         23    2    4    4    0    0  0.70502265719E+03 -0.20082403764E+03 -0.44415463698E+03  0.86127752637E+03  0.84489020752E+02 0.  0.
         23    2    4    4    0    0 -0.12176470727E+03  0.27948582530E+03 -0.53665860482E+02  0.32239365976E+03  0.90103700213E+02 0.  0.
          2    1    3    3  502    0 -0.15382324943E+03  0.66991707903E+01  0.26051016712E+03  0.30260868812E+03  0.00000000000E+00 0. -1.
         -1    1    3    3    0  502 -0.42943470049E+03 -0.85360958450E+02  0.91973697615E+03  0.10186347532E+04  0.00000000000E+00 0.  1.
         13    1    5    5    0    0  0.22998112660E+03 -0.10678015953E+03 -0.14600675856E+03  0.29259407821E+03  0.00000000000E+00 0. -1.
        -13    1    5    5    0    0  0.47504153059E+03 -0.94043878116E+02 -0.29814787842E+03  0.56868344816E+03  0.00000000000E+00 0.  1.
          4    1    6    6  503    0 -0.12910984278E+03  0.20151795113E+03 -0.45952808122E+02  0.24370165512E+03  0.00000000000E+00 0.  1.
         -4    1    6    6    0  503  0.73451355163E+01  0.77967874169E+02 -0.77130523595E+01  0.78692004644E+02  0.00000000000E+00 0. -1.
<mgrwt>
<rscale>  0 0.24101641E+04</rscale>
<asrwt>0</asrwt>
<pdfrwt beam="1">  1        2 0.14019138E+00 0.24101641E+04</pdfrwt>
<pdfrwt beam="2">  1       -1 0.24518010E+00 0.24101641E+04</pdfrwt>
<totfact> 0.22132577E+00</totfact>
</mgrwt>
</event>
<event>
12    7  0.1544987E-007  0.2053631E+04  0.7818608E-02  0.8581949E-01
          2   -1    0    0  501    0  0.00000000000E+00  0.00000000000E+00  0.35144331590E+04  0.35144331590E+04  0.00000000000E+00 0. -1.
         -1   -1    0    0    0  501 -0.00000000000E+00 -0.00000000000E+00 -0.30000570629E+03  0.30000570629E+03  0.00000000000E+00 0.  1.
         24    2    1    2    0    0 -0.21318848919E+03  0.73602286791E+03  0.18515429218E+04  0.20054153868E+04  0.79376875708E+02 0.  0.
        254    2    1    2    0    0  0.21318848919E+03 -0.73602286791E+03  0.13628845310E+04  0.18090234785E+04  0.90990807619E+03 0.  0.
         23    2    4    4    0    0  0.40593356960E+03  0.38365670415E+01  0.54794012282E+03  0.68791481020E+03  0.90507600360E+02 0.  0.
         23    2    4    4    0    0 -0.19274508041E+03 -0.73985943495E+03  0.81494440814E+03  0.11211086683E+04  0.90595851598E+02 0.  0.
          2    1    3    3  502    0 -0.36478662371E+02  0.11909557112E+03  0.38397469064E+03  0.40367191000E+03  0.00000000000E+00 0. -1.
         -1    1    3    3    0  502 -0.17670982682E+03  0.61692729679E+03  0.14675682312E+04  0.16017434768E+04  0.00000000000E+00 0.  1.
         13    1    5    5    0    0  0.39950417564E+03 -0.79156453524E+00  0.50333718388E+03  0.64261382930E+03  0.00000000000E+00 0.  1.
        -13    1    5    5    0    0  0.64293939565E+01  0.46281315768E+01  0.44602938940E+02  0.45300980901E+02  0.00000000000E+00 0. -1.
          3    1    6    6  503    0 -0.11421751035E+03 -0.29057497469E+03  0.36685726797E+03  0.48172991463E+03  0.00000000000E+00 0. -1.
         -3    1    6    6    0  503 -0.78527570055E+02 -0.44928446026E+03  0.44808714018E+03  0.63937875370E+03  0.00000000000E+00 0.  1.
<mgrwt>
<rscale>  0 0.20536309E+04</rscale>
<asrwt>0</asrwt>
<pdfrwt beam="1">  1        2 0.54068199E+00 0.20536309E+04</pdfrwt>
<pdfrwt beam="2">  1       -1 0.46154727E-01 0.20536309E+04</pdfrwt>
<totfact> 0.39252078E+00</totfact>
</mgrwt>
</event>
<event>
12    7  0.1544987E-007  0.1621160E+04  0.7818608E-02  0.8807653E-01
          2   -1    0    0  501    0  0.00000000000E+00  0.00000000000E+00  0.59162244713E+03  0.59162244713E+03  0.00000000000E+00 0. -1.
         -1   -1    0    0    0  501 -0.00000000000E+00 -0.00000000000E+00 -0.11105724157E+04  0.11105724157E+04  0.00000000000E+00 0.  1.
         24    2    1    2    0    0  0.45751013051E+02  0.24993469259E+03  0.34534551837E+03  0.43573916591E+03  0.77746947803E+02 0.  0.
        254    2    1    2    0    0 -0.45751013051E+02 -0.24993469259E+03 -0.86429548698E+03  0.12664556970E+04  0.89013641527E+03 0.  0.
         23    2    4    4    0    0  0.26016904387E+03 -0.42067217572E+01  0.38091147816E+02  0.27839448580E+03  0.91361514234E+02 0.  0.
         23    2    4    4    0    0 -0.30592005692E+03 -0.24572797083E+03 -0.90238663480E+03  0.98806121117E+03  0.89409180021E+02 0.  0.
          2    1    3    3  502    0  0.65739373600E+02  0.19111945011E+03  0.24356753225E+03  0.31650189923E+03  0.00000000000E+00 0. -1.
         -3    1    3    3    0  502 -0.19988360548E+02  0.58815242477E+02  0.10177798612E+03  0.11923726668E+03  0.00000000000E+00 0.  1.
         13    1    5    5    0    0  0.88507313198E+02  0.37319328706E+02  0.33480478500E+02  0.10172128207E+03  0.00000000000E+00 0. -1.
        -13    1    5    5    0    0  0.17166173067E+03 -0.41526050463E+02  0.46106693162E+01  0.17667320373E+03  0.00000000000E+00 0.  1.
          1    1    6    6  503    0 -0.23917928230E+02 -0.39247428795E+02 -0.17688636415E+03  0.18275998955E+03  0.00000000000E+00 0. -1.
         -1    1    6    6    0  503 -0.28200212869E+03 -0.20648054204E+03 -0.72550027065E+03  0.80530122162E+03  0.00000000000E+00 0.  1.
<mgrwt>
<rscale>  0 0.16211595E+04</rscale>
<asrwt>0</asrwt>
<pdfrwt beam="1">  1        2 0.91018838E-01 0.16211595E+04</pdfrwt>
<pdfrwt beam="2">  1       -1 0.17085730E+00 0.16211595E+04</pdfrwt>
<totfact> 0.13381833E+01</totfact>
</mgrwt>
</event>
<event>
12    7  0.1544987E-007  0.1696446E+04  0.7818608E-02  0.8763394E-01
         -1   -1    0    0    0  501 -0.00000000000E+00  0.00000000000E+00  0.60762924454E+03  0.60762924454E+03  0.00000000000E+00 0.  1.
          2   -1    0    0  501    0  0.00000000000E+00 -0.00000000000E+00 -0.11840814107E+04  0.11840814107E+04  0.00000000000E+00 0. -1.
         24    2    1    2    0    0  0.10914533813E+03  0.49019350615E+03  0.15201981521E+03  0.53078939175E+03  0.80155947190E+02 0.  0.
        254    2    1    2    0    0 -0.10914533813E+03 -0.49019350615E+03 -0.72847198140E+03  0.12609212635E+04  0.89835885192E+03 0.  0.
         23    2    4    4    0    0 -0.57659459888E+01 -0.70408374719E+03 -0.31784305020E+03  0.77769738861E+03  0.89564806224E+02 0.  0.
         23    2    4    4    0    0 -0.10337939214E+03  0.21389024104E+03 -0.41062893121E+03  0.48322387492E+03  0.91939437767E+02 0.  0.
          2    1    3    3  502    0  0.61195323565E+02  0.16513716455E+03  0.22223854102E+02  0.17750788837E+03  0.00000000000E+00 0. -1.
         -1    1    3    3    0  502  0.47950014565E+02  0.32505634160E+03  0.12979596111E+03  0.35328150338E+03  0.00000000000E+00 0.  1.
         13    1    5    5    0    0  0.34772499288E+02 -0.52268072453E+03 -0.23929705119E+03  0.57590567388E+03  0.00000000000E+00 0. -1.
        -13    1    5    5    0    0 -0.40538445277E+02 -0.18140302266E+03 -0.78545999004E+02  0.20179171473E+03  0.00000000000E+00 0.  1.
          2    1    6    6  503    0 -0.94170040976E+02  0.13984941545E+03 -0.21086634940E+03  0.26998235670E+03  0.00000000000E+00 0. -1.
         -2    1    6    6    0  503 -0.92093511650E+01  0.74040825584E+02 -0.19976258181E+03  0.21324151822E+03  0.00000000000E+00 0.  1.
<mgrwt>
<rscale>  0 0.16964463E+04</rscale>
<asrwt>0</asrwt>
<pdfrwt beam="1">  1        2 0.18216637E+00 0.16964463E+04</pdfrwt>
<pdfrwt beam="2">  1       -1 0.93481423E-01 0.16964463E+04</pdfrwt>
<totfact> 0.23333307E+01</totfact>
</mgrwt>
</event>
<event>
12    7  0.1758705E-007  0.1778385E+04  0.7818608E-02  0.8717879E-01
          2   -1    0    0  501    0  0.00000000000E+00  0.00000000000E+00  0.65359339060E+03  0.65359339060E+03  0.00000000000E+00 0. -1.
         -1   -1    0    0    0  501 -0.00000000000E+00 -0.00000000000E+00 -0.12097173665E+04  0.12097173665E+04  0.00000000000E+00 0.  1.
         24    2    1    2    0    0 -0.37890536492E+02 -0.16383594838E+02 -0.89275631004E+03  0.89729296450E+03  0.80104432315E+02 0.  0.
        254    2    1    2    0    0  0.37890536492E+02  0.16383594838E+02  0.33663233413E+03  0.96601779261E+03  0.90452469968E+03 0.  0.
         23    2    4    4    0    0  0.31061509882E+03  0.30000237694E+03  0.12392485635E+01  0.44093436100E+03  0.89097750752E+02 0.  0.
         23    2    4    4    0    0 -0.27272456233E+03 -0.28361878210E+03  0.33539308557E+03  0.52508343161E+03  0.91683083747E+02 0.  0.
          4    1    3    3  502    0  0.17633449455E+01 -0.79126291400E+01 -0.73012999201E+01  0.10909998434E+02  0.00000000000E+00 0. -1.
         -3    1    3    3    0  502 -0.39653881438E+02 -0.84709656984E+01 -0.88545501012E+03  0.88638296606E+03  0.00000000000E+00 0.  1.
         13    1    5    5    0    0  0.17496352428E+02 -0.45537475045E+01 -0.22795530159E+01  0.18222385315E+02  0.00000000000E+00 0. -1.
        -13    1    5    5    0    0  0.29311874639E+03  0.30455612445E+03  0.35188015794E+01  0.42271197569E+03  0.00000000000E+00 0.  1.
          2    1    6    6  503    0 -0.35187966163E+02 -0.14429436410E+02  0.72744604077E+01  0.38721045595E+02  0.00000000000E+00 0. -1.
         -2    1    6    6    0  503 -0.23753659617E+03 -0.26918934569E+03  0.32811862516E+03  0.48636238601E+03  0.00000000000E+00 0.  1.
<mgrwt>
<rscale>  0 0.17783850E+04</rscale>
<asrwt>0</asrwt>
<pdfrwt beam="1">  1        2 0.10055283E+00 0.17783850E+04</pdfrwt>
<pdfrwt beam="2">  1       -1 0.18611036E+00 0.17783850E+04</pdfrwt>
<totfact> 0.90770130E+00</totfact>
</mgrwt>
</event>
<event>
12    7  0.1544987E-007  0.1098892E+04  0.7818608E-02  0.9206272E-01
          2   -1    0    0  501    0  0.00000000000E+00  0.00000000000E+00  0.69007161966E+03  0.69007161966E+03  0.00000000000E+00 0. -1.
         -1   -1    0    0    0  501 -0.00000000000E+00 -0.00000000000E+00 -0.43747787939E+03  0.43747787939E+03  0.00000000000E+00 0.  1.
         24    2    1    2    0    0  0.47285239213E+02  0.66156151626E+02 -0.13796422215E+03  0.17867503156E+03  0.79234525693E+02 0.  0.
        254    2    1    2    0    0 -0.47285239213E+02 -0.66156151626E+02  0.39055796242E+03  0.94887446749E+03  0.86093826886E+03 0.  0.
         23    2    4    4    0    0 -0.20134882809E+03  0.17652761921E+03  0.54174292431E+03  0.61121391285E+03  0.91617139809E+02 0.  0.
         23    2    4    4    0    0  0.15406358888E+03 -0.24268377084E+03 -0.15118496189E+03  0.33766055464E+03  0.92340432151E+02 0.  0.
          4    1    3    3  502    0  0.43423376265E+02 -0.26486881599E+01 -0.65895026448E+02  0.78960494337E+02  0.00000000000E+00 0. -1.
         -3    1    3    3    0  502  0.38618629480E+01  0.68804839786E+02 -0.72069195706E+02  0.99714537220E+02  0.00000000000E+00 0.  1.
         13    1    5    5    0    0 -0.20978532683E+03  0.15896929306E+03  0.49648445703E+03  0.56194122074E+03  0.00000000000E+00 0. -1.
        -13    1    5    5    0    0  0.84364987339E+01  0.17558326157E+02  0.45258467275E+02  0.49272692116E+02  0.00000000000E+00 0.  1.
          3    1    6    6  503    0  0.14746835493E+03 -0.16161798925E+03 -0.12620798898E+03  0.25257819905E+03  0.00000000000E+00 0. -1.
         -3    1    6    6    0  503  0.65952339467E+01 -0.81065781592E+02 -0.24976972903E+02  0.85082355581E+02  0.00000000000E+00 0.  1.
<mgrwt>
<rscale>  0 0.10988923E+04</rscale>
<asrwt>0</asrwt>
<pdfrwt beam="1">  1        2 0.10616486E+00 0.10988923E+04</pdfrwt>
<pdfrwt beam="2">  1       -1 0.67304289E-01 0.10988923E+04</pdfrwt>
<totfact> 0.10582788E+02</totfact>
</mgrwt>
</event>
<event>
12    7  0.1544987E-007  0.1812569E+04  0.7818608E-02  0.8699644E-01
          2   -1    0    0  501    0  0.00000000000E+00  0.00000000000E+00  0.14047820199E+04  0.14047820199E+04  0.00000000000E+00 0. -1.
         -1   -1    0    0    0  501 -0.00000000000E+00 -0.00000000000E+00 -0.58468239089E+03  0.58468239089E+03  0.00000000000E+00 0.  1.
         24    2    1    2    0    0  0.38292592578E+02 -0.29246693300E+02 -0.43404212988E+03  0.44405852533E+03  0.80459379109E+02 0.  0.
        254    2    1    2    0    0 -0.38292592578E+02  0.29246693300E+02  0.12541417589E+04  0.15454058854E+04  0.90171287431E+03 0.  0.
         23    2    4    4    0    0 -0.32878809934E+03 -0.28253651983E+03  0.81066280753E+03  0.92369027592E+03  0.90005772068E+02 0.  0.
         23    2    4    4    0    0  0.29049550677E+03  0.31178321313E+03  0.44347895135E+03  0.62171560953E+03  0.90886233291E+02 0.  0.
          4    1    3    3  502    0  0.31766974042E+02 -0.22930836185E+02 -0.72553954855E+02  0.82456292986E+02  0.00000000000E+00 0. -1.
         -3    1    3    3    0  502  0.65256185359E+01 -0.63158571144E+01 -0.36148817503E+03  0.36160223234E+03  0.00000000000E+00 0.  1.
         13    1    5    5    0    0 -0.40160368651E+02 -0.19042833312E+02  0.14630659450E+03  0.15290881042E+03  0.00000000000E+00 0. -1.
        -13    1    5    5    0    0 -0.28862773069E+03 -0.26349368652E+03  0.66435621303E+03  0.77078146550E+03  0.00000000000E+00 0.  1.
          2    1    6    6  503    0  0.79830670923E+02  0.13875227635E+03  0.12950658194E+03  0.20590552440E+03  0.00000000000E+00 0. -1.
         -2    1    6    6    0  503  0.21066483584E+03  0.17303093678E+03  0.31397236941E+03  0.41581008513E+03  0.00000000000E+00 0.  1.
<mgrwt>
<rscale>  0 0.18125687E+04</rscale>
<asrwt>0</asrwt>
<pdfrwt beam="1">  1        2 0.21612031E+00 0.18125687E+04</pdfrwt>
<pdfrwt beam="2">  1       -1 0.89951137E-01 0.18125687E+04</pdfrwt>
<totfact> 0.18693247E+01</totfact>
</mgrwt>
</event>
<event>
12    7  0.1544987E-007  0.1933083E+04  0.7818608E-02  0.8638562E-01
          2   -1    0    0  501    0  0.00000000000E+00  0.00000000000E+00  0.23976136780E+04  0.23976136780E+04  0.00000000000E+00 0. -1.
         -1   -1    0    0    0  501 -0.00000000000E+00 -0.00000000000E+00 -0.38963857663E+03  0.38963857663E+03  0.00000000000E+00 0.  1.
         24    2    1    2    0    0  0.20290779052E+03 -0.71427257539E+03  0.59451674182E+03  0.95468683899E+03  0.81362895883E+02 0.  0.
        254    2    1    2    0    0 -0.20290779052E+03  0.71427257539E+03  0.14134583596E+04  0.18325654156E+04  0.89948573363E+03 0.  0.
         23    2    4    4    0    0 -0.44136645902E+03  0.33415106632E+03  0.12058101408E+04  0.13300252903E+04  0.92346579639E+02 0.  0.
         23    2    4    4    0    0  0.23845866850E+03  0.38012150907E+03  0.20764821873E+03  0.50254012537E+03  0.89854864258E+02 0.  0.
          4    1    3    3  502    0  0.49108997296E+02 -0.11810258049E+03  0.13839684102E+03  0.18845052066E+03  0.00000000000E+00 0. -1.
         -3    1    3    3    0  502  0.15379879323E+03 -0.59616999490E+03  0.45611990080E+03  0.76623631832E+03  0.00000000000E+00 0.  1.
         13    1    5    5    0    0 -0.41608308259E+03  0.30815853061E+03  0.10589443914E+04  0.11787493523E+04  0.00000000000E+00 0. -1.
        -13    1    5    5    0    0 -0.25283376424E+02  0.25992535714E+02  0.14686574946E+03  0.15127593794E+03  0.00000000000E+00 0.  1.
          1    1    6    6  503    0  0.22342972682E+03  0.30449620039E+03  0.15046112298E+03  0.40654314458E+03  0.00000000000E+00 0. -1.
         -1    1    6    6    0  503  0.15028941681E+02  0.75625308682E+02  0.57187095756E+02  0.95996980798E+02  0.00000000000E+00 0.  1.
<mgrwt>
<rscale>  0 0.19330833E+04</rscale>
<asrwt>0</asrwt>
<pdfrwt beam="1">  1        2 0.36886363E+00 0.19330833E+04</pdfrwt>
<pdfrwt beam="2">  1       -1 0.59944398E-01 0.19330833E+04</pdfrwt>
<totfact> 0.11972330E+01</totfact>
</mgrwt>
</event>
<event>
12    7  0.1544987E-007  0.2732391E+04  0.7818608E-02  0.8324571E-01
          2   -1    0    0  501    0  0.00000000000E+00  0.00000000000E+00  0.12858861584E+04  0.12858861584E+04  0.00000000000E+00 0. -1.
         -1   -1    0    0    0  501 -0.00000000000E+00 -0.00000000000E+00 -0.14515208022E+04  0.14515208022E+04  0.00000000000E+00 0.  1.
         24    2    1    2    0    0  0.41364666014E+03 -0.71309811885E+03 -0.97338841034E+03  0.12779319718E+04  0.77541218716E+02 0.  0.
        254    2    1    2    0    0 -0.41364666014E+03  0.71309811885E+03  0.80775376659E+03  0.14594749888E+04  0.89330208152E+03 0.  0.
         23    2    4    4    0    0 -0.72581479974E+02  0.45577587942E+03  0.89929547352E+03  0.10149797967E+04  0.91934299566E+02 0.  0.
         23    2    4    4    0    0 -0.34106518017E+03  0.25732223943E+03 -0.91541706934E+02  0.44449519211E+03  0.81583697347E+02 0.  0.
          4    1    3    3  502    0  0.13332603398E+02 -0.58349484195E+01 -0.25371389150E+02  0.29249142275E+02  0.00000000000E+00 0. -1.
         -3    1    3    3    0  502  0.40031405674E+03 -0.70726317043E+03 -0.94801702119E+03  0.12486828295E+04  0.00000000000E+00 0.  1.
         13    1    5    5    0    0 -0.47858222577E+02  0.20709997230E+03  0.50819282117E+03  0.55085456472E+03  0.00000000000E+00 0.  1.
        -13    1    5    5    0    0 -0.24723257397E+02  0.24867590712E+03  0.39110265235E+03  0.46412523193E+03  0.00000000000E+00 0. -1.
          4    1    6    6  503    0 -0.10341719162E+03  0.36019037104E+02 -0.12027434030E+02  0.11016871482E+03  0.00000000000E+00 0. -1.
         -4    1    6    6    0  503 -0.23764798855E+03  0.22130320232E+03 -0.79514272904E+02  0.33432647729E+03  0.00000000000E+00 0.  1.
<mgrwt>
<rscale>  0 0.27323913E+04</rscale>
<asrwt>0</asrwt>
<pdfrwt beam="1">  1        2 0.19782864E+00 0.27323913E+04</pdfrwt>
<pdfrwt beam="2">  1       -1 0.22331089E+00 0.27323913E+04</pdfrwt>
<totfact> 0.17564452E+00</totfact>
</mgrwt>
</event>
<event>
12    7  0.1544987E-007  0.1475035E+04  0.7818608E-02  0.8901226E-01
         -1   -1    0    0    0  501 -0.00000000000E+00  0.00000000000E+00  0.51838552263E+03  0.51838552263E+03  0.00000000000E+00 0.  1.
          2   -1    0    0  501    0  0.00000000000E+00 -0.00000000000E+00 -0.10492805411E+04  0.10492805411E+04  0.00000000000E+00 0. -1.
         24    2    1    2    0    0 -0.40487488572E+03 -0.78866490442E+02 -0.38741474633E+03  0.57198824598E+03  0.83287282738E+02 0.  0.
        254    2    1    2    0    0  0.40487488572E+03  0.78866490442E+02 -0.14348027212E+03  0.99567781773E+03  0.89478719918E+03 0.  0.
         23    2    4    4    0    0 -0.94604556463E+02 -0.29469799085E+03  0.70085051471E+02  0.33018492620E+03  0.91176987983E+02 0.  0.
         23    2    4    4    0    0  0.49947944218E+03  0.37356448129E+03 -0.21356532359E+03  0.66549289153E+03  0.90777234972E+02 0.  0.
          2    1    3    3  502    0 -0.35684110712E+03 -0.50485938744E+02 -0.36155045474E+03  0.51049303331E+03  0.00000000000E+00 0. -1.
         -1    1    3    3    0  502 -0.48033778605E+02 -0.28380551699E+02 -0.25864291591E+02  0.61495212670E+02  0.00000000000E+00 0.  1.
         13    1    5    5    0    0 -0.67503709691E+02 -0.81391781067E+02  0.64197713203E+01  0.10593670899E+03  0.00000000000E+00 0.  1.
        -13    1    5    5    0    0 -0.27100846771E+02 -0.21330620978E+03  0.63665280151E+02  0.22424821721E+03  0.00000000000E+00 0. -1.
          3    1    6    6  503    0  0.48865857726E+03  0.34775754857E+03 -0.19070163165E+03  0.62935652061E+03  0.00000000000E+00 0. -1.
         -3    1    6    6    0  503  0.10820864921E+02  0.25806932720E+02 -0.22863691941E+02  0.36136370919E+02  0.00000000000E+00 0.  1.
<mgrwt>
<rscale>  0 0.14750347E+04</rscale>
<asrwt>0</asrwt>
<pdfrwt beam="1">  1        2 0.16142777E+00 0.14750347E+04</pdfrwt>
<pdfrwt beam="2">  1       -1 0.79751621E-01 0.14750347E+04</pdfrwt>
<totfact> 0.40639117E+01</totfact>
</mgrwt>
</event>
<event>
12    7  0.1544987E-007  0.2018575E+04  0.7818608E-02  0.8597985E-01
          2   -1    0    0  501    0  0.00000000000E+00  0.00000000000E+00  0.20305290293E+04  0.20305290293E+04  0.00000000000E+00 0. -1.
         -1   -1    0    0    0  501 -0.00000000000E+00 -0.00000000000E+00 -0.50167292365E+03  0.50167292365E+03  0.00000000000E+00 0.  1.
         24    2    1    2    0    0 -0.81265564581E+01  0.66215916706E+03  0.39312253080E+02  0.66802704363E+03  0.78701171137E+02 0.  0.
        254    2    1    2    0    0  0.81265564581E+01 -0.66215916706E+03  0.14895438526E+04  0.18641749093E+04  0.90437072066E+03 0.  0.
         23    2    4    4    0    0 -0.37334046909E+03 -0.53461221433E+03  0.63177570207E+03  0.91246232715E+03  0.90849519381E+02 0.  0.
         23    2    4    4    0    0  0.38146702555E+03 -0.12754695273E+03  0.85776815052E+03  0.95171258219E+03  0.90583234241E+02 0.  0.
          4    1    3    3  502    0  0.53737858553E+01  0.29890361113E+03  0.55939840833E+02  0.30414061241E+03  0.00000000000E+00 0. -1.
         -3    1    3    3    0  502 -0.13500342313E+02  0.36325555593E+03 -0.16627587753E+02  0.36388643122E+03  0.00000000000E+00 0.  1.
         13    1    5    5    0    0 -0.20118961870E+03 -0.24887585959E+03  0.25471761388E+03  0.40902019385E+03  0.00000000000E+00 0. -1.
        -13    1    5    5    0    0 -0.17215085039E+03 -0.28573635475E+03  0.37705808819E+03  0.50344213330E+03  0.00000000000E+00 0.  1.
          3    1    6    6  503    0  0.25116962900E+03 -0.58238582497E+02  0.62508178317E+03  0.67616946890E+03  0.00000000000E+00 0. -1.
         -3    1    6    6    0  503  0.13029739655E+03 -0.69308370229E+02  0.23268636735E+03  0.27554311329E+03  0.00000000000E+00 0.  1.
<mgrwt>
<rscale>  0 0.20185752E+04</rscale>
<asrwt>0</asrwt>
<pdfrwt beam="1">  1        2 0.31238908E+00 0.20185752E+04</pdfrwt>
<pdfrwt beam="2">  1       -1 0.77180451E-01 0.20185752E+04</pdfrwt>
<totfact> 0.11421571E+01</totfact>
</mgrwt>
</event>
<event>
12    7  0.1544987E-007  0.1877093E+04  0.7818608E-02  0.8666343E-01
         -1   -1    0    0    0  501 -0.00000000000E+00  0.00000000000E+00  0.25133429711E+03  0.25133429711E+03  0.00000000000E+00 0.  1.
          2   -1    0    0  501    0  0.00000000000E+00 -0.00000000000E+00 -0.35047719785E+04  0.35047719785E+04  0.00000000000E+00 0. -1.
         24    2    1    2    0    0  0.29647442859E+03  0.26357255688E+03 -0.23698157595E+04  0.24041411215E+04  0.80623933343E+02 0.  0.
        254    2    1    2    0    0 -0.29647442859E+03 -0.26357255688E+03 -0.88362192183E+03  0.13519651540E+04  0.94321497944E+03 0.  0.
         23    2    4    4    0    0  0.23992804005E+03 -0.36266765706E+03 -0.24483535192E+03  0.50685139280E+03  0.88660537739E+02 0.  0.
         23    2    4    4    0    0 -0.53640246864E+03  0.99095100180E+02 -0.63878656991E+03  0.84511376124E+03  0.92852249830E+02 0.  0.
          4    1    3    3  502    0  0.27226767433E+03  0.24280122542E+03 -0.22760156329E+04  0.23050660039E+04  0.00000000000E+00 0. -1.
         -3    1    3    3    0  502  0.24206754259E+02  0.20771331457E+02 -0.93800126669E+02  0.99075117589E+02  0.00000000000E+00 0.  1.
         13    1    5    5    0    0  0.43583012485E+02 -0.18108267186E+02 -0.27665007996E+02  0.54705950181E+02  0.00000000000E+00 0.  1.
        -13    1    5    5    0    0  0.19634502757E+03 -0.34455938988E+03 -0.21717034393E+03  0.45214544262E+03  0.00000000000E+00 0. -1.
          2    1    6    6  503    0 -0.22013066289E+03  0.86828089853E+02 -0.28395926791E+03  0.36963426757E+03  0.00000000000E+00 0.  1.
         -2    1    6    6    0  503 -0.31627180574E+03  0.12267010327E+02 -0.35482730200E+03  0.47547949366E+03  0.00000000000E+00 0. -1.
<mgrwt>
<rscale>  0 0.18770929E+04</rscale>
<asrwt>0</asrwt>
<pdfrwt beam="1">  1        2 0.53919565E+00 0.18770929E+04</pdfrwt>
<pdfrwt beam="2">  1       -1 0.38666818E-01 0.18770929E+04</pdfrwt>
<totfact> 0.56240639E+00</totfact>
</mgrwt>
</event>
<event>
12    7  0.1544987E-007  0.2539292E+04  0.7818608E-02  0.8389120E-01
         -1   -1    0    0    0  501 -0.00000000000E+00  0.00000000000E+00  0.85836373523E+03  0.85836373523E+03  0.00000000000E+00 0.  1.
          2   -1    0    0  501    0  0.00000000000E+00 -0.00000000000E+00 -0.18779935847E+04  0.18779935847E+04  0.00000000000E+00 0. -1.
         24    2    1    2    0    0 -0.70972842778E+03  0.67234534483E+03 -0.10120005106E+04  0.14094307639E+04  0.81162434863E+02 0.  0.
        254    2    1    2    0    0  0.70972842778E+03 -0.67234534483E+03 -0.76293388719E+01  0.13269265560E+04  0.89716953491E+03 0.  0.
         23    2    4    4    0    0  0.62076251699E+02 -0.27951994696E+03 -0.37430761772E+03  0.48042996174E+03  0.93391079248E+02 0.  0.
         23    2    4    4    0    0  0.64765217608E+03 -0.39282539787E+03  0.36667827885E+03  0.84649659429E+03  0.91314782837E+02 0.  0.
          4    1    3    3  502    0 -0.17460633847E+03  0.15765125749E+03 -0.19600106639E+03  0.30619880870E+03  0.00000000000E+00 0. -1.
         -3    1    3    3    0  502 -0.53512208932E+03  0.51469408735E+03 -0.81599944418E+03  0.11032319552E+04  0.00000000000E+00 0.  1.
         13    1    5    5    0    0  0.68709170832E+02 -0.27307865282E+03 -0.37722462371E+03  0.47073486966E+03  0.00000000000E+00 0.  1.
        -13    1    5    5    0    0 -0.66329191324E+01 -0.64412941465E+01  0.29170059938E+01  0.96950920814E+01  0.00000000000E+00 0. -1.
          3    1    6    6  503    0  0.10665561765E+03 -0.44310821674E+02  0.26149868544E+02  0.11841741983E+03  0.00000000000E+00 0. -1.
         -3    1    6    6    0  503  0.54099655843E+03 -0.34851457619E+03  0.34052841030E+03  0.72807917445E+03  0.00000000000E+00 0.  1.
<mgrwt>
<rscale>  0 0.25392925E+04</rscale>
<asrwt>0</asrwt>
<pdfrwt beam="1">  1        2 0.28892208E+00 0.25392925E+04</pdfrwt>
<pdfrwt beam="2">  1       -1 0.13205596E+00 0.25392925E+04</pdfrwt>
<totfact> 0.38509400E+00</totfact>
</mgrwt>
</event>
<event>
12    7  0.1544987E-007  0.3922811E+04  0.7818608E-02  0.8020302E-01
          2   -1    0    0  501    0  0.00000000000E+00  0.00000000000E+00  0.21194837953E+04  0.21194837953E+04  0.00000000000E+00 0. -1.
         -1   -1    0    0    0  501 -0.00000000000E+00 -0.00000000000E+00 -0.18151169182E+04  0.18151169182E+04  0.00000000000E+00 0.  1.
         24    2    1    2    0    0  0.17431578893E+04  0.62993658443E+03  0.10439336325E+03  0.18581450366E+04  0.79909168049E+02 0.  0.
        254    2    1    2    0    0 -0.17431578893E+04 -0.62993658443E+03  0.19997351387E+03  0.20764556770E+04  0.91447211253E+03 0.  0.
         23    2    4    4    0    0 -0.88269653625E+03 -0.49378655659E+03 -0.31127092763E+03  0.10624144241E+04  0.94108871035E+02 0.  0.
         23    2    4    4    0    0 -0.86046135309E+03 -0.13615002783E+03  0.51124444149E+03  0.10140412528E+04  0.89320844639E+02 0.  0.
          2    1    3    3  502    0  0.15648317237E+04  0.54705120334E+03  0.11076253222E+03  0.16613944990E+04  0.00000000000E+00 0. -1.
         -1    1    3    3    0  502  0.17832616562E+03  0.82885381089E+02 -0.63691689739E+01  0.19675053763E+03  0.00000000000E+00 0.  1.
         13    1    5    5    0    0 -0.82608491225E+03 -0.47338121573E+03 -0.27070733524E+03  0.98984267387E+03  0.00000000000E+00 0.  1.
        -13    1    5    5    0    0 -0.56611624003E+02 -0.20405340868E+02 -0.40563592381E+02  0.72571750255E+02  0.00000000000E+00 0. -1.
          4    1    6    6  503    0 -0.48689452530E+03 -0.10053983744E+03  0.24748232948E+03  0.55535757948E+03  0.00000000000E+00 0. -1.
         -4    1    6    6    0  503 -0.37356682778E+03 -0.35610190393E+02  0.26376211202E+03  0.45868367337E+03  0.00000000000E+00 0.  1.
<mgrwt>
<rscale>  0 0.39228107E+04</rscale>
<asrwt>0</asrwt>
<pdfrwt beam="1">  1        2 0.32607443E+00 0.39228107E+04</pdfrwt>
<pdfrwt beam="2">  1       -1 0.27924876E+00 0.39228107E+04</pdfrwt>
<totfact> 0.23286360E-01</totfact>
</mgrwt>
</event>
<event>
12    7  0.1544987E-007  0.1362935E+04  0.7818608E-02  0.8981094E-01
         -1   -1    0    0    0  501 -0.00000000000E+00  0.00000000000E+00  0.56400561790E+03  0.56400561790E+03  0.00000000000E+00 0.  1.
          2   -1    0    0  501    0  0.00000000000E+00 -0.00000000000E+00 -0.82339277857E+03  0.82339277857E+03  0.00000000000E+00 0. -1.
         24    2    1    2    0    0 -0.91723126949E+01  0.13746027908E+03 -0.37401936851E+03  0.41062092819E+03  0.98689406752E+02 0.  0.
        254    2    1    2    0    0  0.91723126949E+01 -0.13746027908E+03  0.11463220784E+03  0.97677746828E+03  0.96019488637E+03 0.  0.
         23    2    4    4    0    0 -0.86104454747E+02  0.30280008475E+03 -0.23177566122E+03  0.40084296818E+03  0.88618618561E+02 0.  0.
         23    2    4    4    0    0  0.95276767442E+02 -0.44026036383E+03  0.34640786907E+03  0.57593450010E+03  0.93783187602E+02 0.  0.
          4    1    3    3  502    0 -0.41655352149E+02  0.10336576815E+03 -0.32055531832E+03  0.33937495855E+03  0.00000000000E+00 0. -1.
         -3    1    3    3    0  502  0.32483039454E+02  0.34094510930E+02 -0.53464050190E+02  0.71245969643E+02  0.00000000000E+00 0.  1.
         13    1    5    5    0    0  0.34665907519E+01  0.13625556668E+02  0.65962120806E+01  0.15530069535E+02  0.00000000000E+00 0.  1.
        -13    1    5    5    0    0 -0.89571045499E+02  0.28917452808E+03 -0.23837187330E+03  0.38531289865E+03  0.00000000000E+00 0. -1.
          4    1    6    6  503    0  0.26223831913E+02 -0.99446201847E+02  0.33574017400E+02  0.10818711137E+03  0.00000000000E+00 0.  1.
         -4    1    6    6    0  503  0.69052935529E+02 -0.34081416198E+03  0.31283385167E+03  0.46774738873E+03  0.00000000000E+00 0. -1.
<mgrwt>
<rscale>  0 0.13629353E+04</rscale>
<asrwt>0</asrwt>
<pdfrwt beam="1">  1        2 0.12667581E+00 0.13629353E+04</pdfrwt>
<pdfrwt beam="2">  1       -1 0.86770096E-01 0.13629353E+04</pdfrwt>
<totfact> 0.48347752E+01</totfact>
</mgrwt>
</event>
<event>
12    7  0.2373167E-007  0.1689162E+04  0.7818608E-02  0.8767570E-01
          2   -1    0    0  501    0  0.00000000000E+00  0.00000000000E+00  0.19782883227E+04  0.19782883227E+04  0.00000000000E+00 0. -1.
         -1   -1    0    0    0  501 -0.00000000000E+00 -0.00000000000E+00 -0.36057280885E+03  0.36057280885E+03  0.00000000000E+00 0.  1.
         24    2    1    2    0    0  0.39174769395E+03 -0.39014012842E+01  0.12398443667E+04  0.13035007243E+04  0.91752972464E+02 0.  0.
        254    2    1    2    0    0 -0.39174769395E+03  0.39014012842E+01  0.37787114715E+03  0.10353604073E+04  0.88074008221E+03 0.  0.
         23    2    4    4    0    0  0.80383954886E+02 -0.54682973661E+02 -0.22528152144E+03  0.26171274236E+03  0.91049370115E+02 0.  0.
         23    2    4    4    0    0 -0.47213164883E+03  0.58584374945E+02  0.60315266859E+03  0.77364766489E+03  0.91635937027E+02 0.  0.
          2    1    3    3  502    0  0.37729085106E+03 -0.23488438660E+02  0.11658871739E+04  0.12256398310E+04  0.00000000000E+00 0. -1.
         -1    1    3    3    0  502  0.14456842884E+02  0.19587037376E+02  0.73957192856E+02  0.77860893358E+02  0.00000000000E+00 0.  1.
         13    1    5    5    0    0  0.65638549431E+02 -0.70941393161E+02 -0.21820436119E+03  0.23865088242E+03  0.00000000000E+00 0. -1.
        -13    1    5    5    0    0  0.14745405455E+02  0.16258419500E+02 -0.70771602459E+01  0.23061859939E+02  0.00000000000E+00 0.  1.
          4    1    6    6  503    0 -0.41708308939E+03  0.77513509606E+02  0.50508397201E+03  0.65960326440E+03  0.00000000000E+00 0. -1.
         -4    1    6    6    0  503 -0.55048559446E+02 -0.18929134661E+02  0.98068696573E+02  0.11404440049E+03  0.00000000000E+00 0.  1.
<mgrwt>
<rscale>  0 0.16891619E+04</rscale>
<asrwt>0</asrwt>
<pdfrwt beam="1">  1        2 0.30435204E+00 0.16891619E+04</pdfrwt>
<pdfrwt beam="2">  1       -1 0.55472741E-01 0.16891619E+04</pdfrwt>
<totfact> 0.24487613E+01</totfact>
</mgrwt>
</event>
<event>
12    7  0.1544987E-007  0.1047067E+04  0.7818608E-02  0.9258378E-01
          2   -1    0    0  501    0  0.00000000000E+00  0.00000000000E+00  0.10401422392E+04  0.10401422392E+04  0.00000000000E+00 0. -1.
         -1   -1    0    0    0  501 -0.00000000000E+00 -0.00000000000E+00 -0.26350934430E+03  0.26350934430E+03  0.00000000000E+00 0.  1.
         24    2    1    2    0    0  0.32007136714E+02 -0.11015265504E+03  0.19105464290E+03  0.23693560354E+03  0.80489374707E+02 0.  0.
        254    2    1    2    0    0 -0.32007136714E+02  0.11015265504E+03  0.58557825196E+03  0.10667159799E+04  0.88420757088E+03 0.  0.
         23    2    4    4    0    0  0.28360332687E+03 -0.24016298616E+03  0.12875485377E+03  0.40381655038E+03  0.91547184877E+02 0.  0.
         23    2    4    4    0    0 -0.31561046359E+03  0.35031564121E+03  0.45682339820E+03  0.66289942952E+03  0.91744336745E+02 0.  0.
          4    1    3    3  502    0  0.58361768547E+02 -0.88405545763E+02  0.14653280207E+03  0.18081343599E+03  0.00000000000E+00 0. -1.
         -1    1    3    3    0  502 -0.26354631833E+02 -0.21747109278E+02  0.44521840824E+02  0.56122167558E+02  0.00000000000E+00 0.  1.
         13    1    5    5    0    0  0.57245281007E+02 -0.85493125725E+01  0.30265117216E+02  0.65315314155E+02  0.00000000000E+00 0.  1.
        -13    1    5    5    0    0  0.22635804587E+03 -0.23161367359E+03  0.98489736550E+02  0.33850123623E+03  0.00000000000E+00 0. -1.
          4    1    6    6  503    0 -0.14768903603E+03  0.10047919898E+03  0.15288746054E+03  0.23512272622E+03  0.00000000000E+00 0. -1.
         -4    1    6    6    0  503 -0.16792142756E+03  0.24983644223E+03  0.30393593765E+03  0.42777670331E+03  0.00000000000E+00 0.  1.
<mgrwt>
<rscale>  0 0.10470668E+04</rscale>
<asrwt>0</asrwt>
<pdfrwt beam="1">  1        2 0.16002188E+00 0.10470668E+04</pdfrwt>
<pdfrwt beam="2">  1       -1 0.40539900E-01 0.10470668E+04</pdfrwt>
<totfact> 0.16010142E+02</totfact>
</mgrwt>
</event>
<event>
12    7  0.1544987E-007  0.1189308E+04  0.7818608E-02  0.9122267E-01
         -1   -1    0    0    0  501 -0.00000000000E+00  0.00000000000E+00  0.13274768567E+04  0.13274768567E+04  0.00000000000E+00 0.  1.
          2   -1    0    0  501    0  0.00000000000E+00 -0.00000000000E+00 -0.26638014760E+03  0.26638014760E+03  0.00000000000E+00 0. -1.
         24    2    1    2    0    0 -0.10592237604E+03  0.12664213149E+03 -0.14371998995E+02  0.18443720040E+03  0.80949041527E+02 0.  0.
        254    2    1    2    0    0  0.10592237604E+03 -0.12664213149E+03  0.10754687081E+04  0.14094198039E+04  0.89586464510E+03 0.  0.
         23    2    4    4    0    0 -0.76423187745E+01 -0.49634242270E+03  0.70004361426E+03  0.86276639076E+03  0.88828922924E+02 0.  0.
         23    2    4    4    0    0  0.11356469481E+03  0.36970029121E+03  0.37542509384E+03  0.54665341315E+03  0.91163083498E+02 0.  0.
          2    1    3    3  502    0 -0.34252501040E+02  0.58781024156E+02 -0.44437311971E+02  0.81259567582E+02  0.00000000000E+00 0. -1.
         -1    1    3    3    0  502 -0.71669874996E+02  0.67861107330E+02  0.30065312975E+02  0.10317763282E+03  0.00000000000E+00 0.  1.
         13    1    5    5    0    0  0.19446600477E+02 -0.16829006899E+03  0.30177503549E+03  0.34607497690E+03  0.00000000000E+00 0. -1.
        -13    1    5    5    0    0 -0.27088919251E+02 -0.32805235371E+03  0.39826857877E+03  0.51669141386E+03  0.00000000000E+00 0.  1.
          4    1    6    6  503    0  0.80634636446E+02  0.25279831135E+03  0.19556571395E+03  0.32962839576E+03  0.00000000000E+00 0. -1.
         -4    1    6    6    0  503  0.32930058365E+02  0.11690197986E+03  0.17985937989E+03  0.21702501739E+03  0.00000000000E+00 0.  1.
<mgrwt>
<rscale>  0 0.11893082E+04</rscale>
<asrwt>0</asrwt>
<pdfrwt beam="1">  1        2 0.40981562E-01 0.11893082E+04</pdfrwt>
<pdfrwt beam="2">  1       -1 0.20422720E+00 0.11893082E+04</pdfrwt>
<totfact> 0.19983767E+01</totfact>
</mgrwt>
</event>
<event>
12    7  0.1544987E-007  0.1332027E+04  0.7818608E-02  0.9004546E-01
         -1   -1    0    0    0  501 -0.00000000000E+00  0.00000000000E+00  0.21719317641E+03  0.21719317641E+03  0.00000000000E+00 0.  1.
          2   -1    0    0  501    0  0.00000000000E+00 -0.00000000000E+00 -0.20423007659E+04  0.20423007659E+04  0.00000000000E+00 0. -1.
         24    2    1    2    0    0  0.17639672142E+03  0.43064184377E+02 -0.10359090247E+04  0.10548167840E+04  0.80997612450E+02 0.  0.
        254    2    1    2    0    0 -0.17639672142E+03 -0.43064184377E+02 -0.78919856484E+03  0.12046771583E+04  0.89187575012E+03 0.  0.
         23    2    4    4    0    0  0.32027447346E+03  0.12351844422E+03 -0.18855334962E+03  0.40242200674E+03  0.92512493441E+02 0.  0.
         23    2    4    4    0    0 -0.49667119487E+03 -0.16658262860E+03 -0.60064521522E+03  0.80225515155E+03  0.91687543612E+02 0.  0.
          2    1    3    3  502    0  0.16686035560E+03  0.61688987194E+02 -0.92792112380E+03  0.94482036462E+03  0.00000000000E+00 0. -1.
         -1    1    3    3    0  502  0.95363658195E+01 -0.18624802817E+02 -0.10798790087E+03  0.10999641943E+03  0.00000000000E+00 0.  1.
         13    1    5    5    0    0  0.72794369807E+02  0.70600970075E+02 -0.68037994390E+02  0.12211750870E+03  0.00000000000E+00 0. -1.
        -13    1    5    5    0    0  0.24748010365E+03  0.52917474149E+02 -0.12051535523E+03  0.28030449804E+03  0.00000000000E+00 0.  1.
          3    1    6    6  503    0 -0.17952660480E+03 -0.71209711281E+02 -0.15857025655E+03  0.24989027807E+03  0.00000000000E+00 0. -1.
         -3    1    6    6    0  503 -0.31714459007E+03 -0.95372917320E+02 -0.44207495867E+03  0.55236487348E+03  0.00000000000E+00 0.  1.
<mgrwt>
<rscale>  0 0.13320267E+04</rscale>
<asrwt>0</asrwt>
<pdfrwt beam="1">  1        2 0.31420011E+00 0.13320267E+04</pdfrwt>
<pdfrwt beam="2">  1       -1 0.33414335E-01 0.13320267E+04</pdfrwt>
<totfact> 0.59499018E+01</totfact>
</mgrwt>
</event>
<event>
12    7  0.1544987E-007  0.1335630E+04  0.7818608E-02  0.9001777E-01
         -1   -1    0    0    0  501 -0.00000000000E+00  0.00000000000E+00  0.32128576977E+03  0.32128576977E+03  0.00000000000E+00 0.  1.
          2   -1    0    0  501    0  0.00000000000E+00 -0.00000000000E+00 -0.13881013315E+04  0.13881013315E+04  0.00000000000E+00 0. -1.
         24    2    1    2    0    0 -0.22755617677E+03 -0.23421909933E+03 -0.51554960375E+03  0.61530983740E+03  0.78577363123E+02 0.  0.
        254    2    1    2    0    0  0.22755617677E+03  0.23421909933E+03 -0.55126595799E+03  0.10940772639E+04  0.88683172182E+03 0.  0.
         23    2    4    4    0    0  0.66526469388E+02  0.50774451778E+03 -0.55915748410E+03  0.76377203670E+03  0.91980245480E+02 0.  0.
         23    2    4    4    0    0  0.16102970738E+03 -0.27352541845E+03  0.78915261033E+01  0.33030522719E+03  0.91063415964E+02 0.  0.
          4    1    3    3  502    0 -0.20329541183E+03 -0.23588985876E+03 -0.47313496663E+03  0.56641834945E+03  0.00000000000E+00 0. -1.
         -3    1    3    3    0  502 -0.24260764937E+02  0.16707594312E+01 -0.42414637115E+02  0.48891487950E+02  0.00000000000E+00 0.  1.
         13    1    5    5    0    0 -0.49597315013E+01  0.72639924130E+00 -0.18354895739E+02  0.19027054160E+02  0.00000000000E+00 0. -1.
        -13    1    5    5    0    0  0.71486200890E+02  0.50701811854E+03 -0.54080258836E+03  0.74474498254E+03  0.00000000000E+00 0.  1.
          4    1    6    6  503    0  0.63148145368E+02 -0.19421965034E+03  0.38957468703E+01  0.20426487139E+03  0.00000000000E+00 0. -1.
         -4    1    6    6    0  503  0.97881562015E+02 -0.79305768112E+02  0.39957792330E+01  0.12604035580E+03  0.00000000000E+00 0.  1.
<mgrwt>
<rscale>  0 0.13356305E+04</rscale>
<asrwt>0</asrwt>
<pdfrwt beam="1">  1        2 0.21355406E+00 0.13356305E+04</pdfrwt>
<pdfrwt beam="2">  1       -1 0.49428579E-01 0.13356305E+04</pdfrwt>
<totfact> 0.67190515E+01</totfact>
</mgrwt>
</event>
<event>
12    7  0.1544987E-007  0.1154366E+04  0.7818608E-02  0.9153765E-01
          2   -1    0    0  501    0  0.00000000000E+00  0.00000000000E+00  0.16220197455E+04  0.16220197455E+04  0.00000000000E+00 0. -1.
         -1   -1    0    0    0  501 -0.00000000000E+00 -0.00000000000E+00 -0.20538615197E+03  0.20538615197E+03  0.00000000000E+00 0.  1.
         24    2    1    2    0    0  0.14291732515E+03 -0.19621536508E+02  0.15655887180E+02  0.16892914903E+03  0.86496150583E+02 0.  0.
        254    2    1    2    0    0 -0.14291732515E+03  0.19621536508E+02  0.14009777063E+04  0.16584767484E+04  0.87578320656E+03 0.  0.
         23    2    4    4    0    0  0.28878772420E+02 -0.32720610130E+03  0.11207461677E+04  0.11713154013E+04  0.89498495880E+02 0.  0.
         23    2    4    4    0    0 -0.17179609757E+03  0.34682763781E+03  0.28023153861E+03  0.48716134707E+03  0.94832237959E+02 0.  0.
          4    1    3    3  502    0 -0.26502732632E+01  0.10323027635E+02  0.17282620832E+02  0.20304625846E+02  0.00000000000E+00 0. -1.
         -3    1    3    3    0  502  0.14556759841E+03 -0.29944564143E+02 -0.16267336515E+01  0.14862452318E+03  0.00000000000E+00 0.  1.
         13    1    5    5    0    0  0.22633987461E+02 -0.20625343596E+03  0.54946012994E+03  0.58733228383E+03  0.00000000000E+00 0. -1.
        -13    1    5    5    0    0  0.62447849593E+01 -0.12095266534E+03  0.57128603776E+03  0.58398311750E+03  0.00000000000E+00 0.  1.
          2    1    6    6  503    0 -0.45925119071E+02  0.24712464029E+02  0.28689187750E+02  0.59522196984E+02  0.00000000000E+00 0. -1.
         -2    1    6    6    0  503 -0.12587097850E+03  0.32211517378E+03  0.25154235086E+03  0.42763915008E+03  0.00000000000E+00 0.  1.
<mgrwt>
<rscale>  0 0.11543663E+04</rscale>
<asrwt>0</asrwt>
<pdfrwt beam="1">  1        2 0.24954149E+00 0.11543663E+04</pdfrwt>
<pdfrwt beam="2">  1       -1 0.31597871E-01 0.11543663E+04</pdfrwt>
<totfact> 0.11376171E+02</totfact>
</mgrwt>
</event>
<event>
12    7  0.1544987E-007  0.2437523E+04  0.7818608E-02  0.8425588E-01
         -1   -1    0    0    0  501 -0.00000000000E+00  0.00000000000E+00  0.20634904001E+04  0.20634904001E+04  0.00000000000E+00 0.  1.
          2   -1    0    0  501    0  0.00000000000E+00 -0.00000000000E+00 -0.71983843250E+03  0.71983843250E+03  0.00000000000E+00 0. -1.
         24    2    1    2    0    0 -0.53221241911E+02 -0.27666468955E+03  0.17519431714E+04  0.17761273629E+04  0.77121217990E+02 0.  0.
        254    2    1    2    0    0  0.53221241911E+02  0.27666468955E+03 -0.40829120381E+03  0.10072014697E+04  0.87657129915E+03 0.  0.
         23    2    4    4    0    0  0.90539003744E+01 -0.30329272759E+03 -0.58284326741E+02  0.32201396529E+03  0.90705453945E+02 0.  0.
         23    2    4    4    0    0  0.44167341537E+02  0.57995741714E+03 -0.35000687707E+03  0.68518750444E+03  0.93143665872E+02 0.  0.
          2    1    3    3  502    0 -0.58556103571E+02 -0.14671518455E+03  0.81137373218E+03  0.82660842962E+03  0.00000000000E+00 0. -1.
         -1    1    3    3    0  502  0.53348616597E+01 -0.12994950500E+03  0.94056943921E+03  0.94951893324E+03  0.00000000000E+00 0.  1.
         13    1    5    5    0    0 -0.37039020174E+02 -0.12459533953E+03 -0.56429070422E+01  0.13010661031E+03  0.00000000000E+00 0. -1.
        -13    1    5    5    0    0  0.46092920549E+02 -0.17869738807E+03 -0.52641419699E+02  0.19190735498E+03  0.00000000000E+00 0.  1.
          3    1    6    6  503    0  0.63977181908E+02  0.43509068643E+03 -0.29201643849E+03  0.52789258904E+03  0.00000000000E+00 0. -1.
         -3    1    6    6    0  503 -0.19809840371E+02  0.14486673071E+03 -0.57990438584E+02  0.15729491540E+03  0.00000000000E+00 0.  1.
<mgrwt>
<rscale>  0 0.24375231E+04</rscale>
<asrwt>0</asrwt>
<pdfrwt beam="1">  1        2 0.11074438E+00 0.24375231E+04</pdfrwt>
<pdfrwt beam="2">  1       -1 0.31746006E+00 0.24375231E+04</pdfrwt>
<totfact> 0.10284631E+00</totfact>
</mgrwt>
</event>
<event>
12    7  0.1544987E-007  0.2742199E+04  0.7818608E-02  0.8321441E-01
          2   -1    0    0  501    0  0.00000000000E+00  0.00000000000E+00  0.15813024594E+04  0.15813024594E+04  0.00000000000E+00 0. -1.
         -1   -1    0    0    0  501 -0.00000000000E+00 -0.00000000000E+00 -0.11888389829E+04  0.11888389829E+04  0.00000000000E+00 0.  1.
         24    2    1    2    0    0  0.64233631471E+03  0.99070723211E+03  0.47798123352E+03  0.12757349303E+04  0.70262307825E+02 0.  0.
        254    2    1    2    0    0 -0.64233631471E+03 -0.99070723211E+03 -0.85517756973E+02  0.14944065120E+04  0.91205305510E+03 0.  0.
         23    2    4    4    0    0 -0.50362948614E+03 -0.29391177071E+03 -0.39910718865E+03  0.71249204819E+03  0.91277502313E+02 0.  0.
         23    2    4    4    0    0 -0.13870682857E+03 -0.69679546140E+03  0.31358943168E+03  0.78191446378E+03  0.91040637589E+02 0.  0.
          2    1    3    3  502    0  0.41448118634E+03  0.66002456375E+03  0.28142739997E+03  0.82863047255E+03  0.00000000000E+00 0. -1.
         -1    1    3    3    0  502  0.22785512837E+03  0.33068266836E+03  0.19655383356E+03  0.44710445777E+03  0.00000000000E+00 0.  1.
         13    1    5    5    0    0 -0.31339750158E+02 -0.91762041003E+01 -0.16267242224E+01  0.32696007300E+02  0.00000000000E+00 0.  1.
        -13    1    5    5    0    0 -0.47228973598E+03 -0.28473556660E+03 -0.39748046443E+03  0.67979604089E+03  0.00000000000E+00 0. -1.
          2    1    6    6  503    0 -0.84125489668E+02 -0.24194438385E+03  0.14078645834E+03  0.29229267822E+03  0.00000000000E+00 0. -1.
         -2    1    6    6    0  503 -0.54581338902E+02 -0.45485107755E+03  0.17280297334E+03  0.48962178557E+03  0.00000000000E+00 0.  1.
<mgrwt>
<rscale>  0 0.27421991E+04</rscale>
<asrwt>0</asrwt>
<pdfrwt beam="1">  1        2 0.24327730E+00 0.27421991E+04</pdfrwt>
<pdfrwt beam="2">  1       -1 0.18289831E+00 0.27421991E+04</pdfrwt>
<totfact> 0.22563304E+00</totfact>
</mgrwt>
</event>
<event>
12    7  0.1544987E-007  0.3928929E+04  0.7818608E-02  0.8019039E-01
          2   -1    0    0  501    0  0.00000000000E+00  0.00000000000E+00  0.12559624913E+04  0.12559624913E+04  0.00000000000E+00 0. -1.
         -1   -1    0    0    0  501 -0.00000000000E+00 -0.00000000000E+00 -0.30726395472E+04  0.30726395472E+04  0.00000000000E+00 0.  1.
         24    2    1    2    0    0  0.66406538250E+01  0.17946763116E+04 -0.31170721148E+03  0.18232299320E+04  0.78095053591E+02 0.  0.
        254    2    1    2    0    0 -0.66406538250E+01 -0.17946763116E+04 -0.15049698444E+04  0.25053721066E+04  0.88940879122E+03 0.  0.
         23    2    4    4    0    0 -0.31940670093E+03 -0.31565226351E+03 -0.54371312161E+03  0.71156018118E+03  0.95062825426E+02 0.  0.
         23    2    4    4    0    0  0.31276604710E+03 -0.14790240481E+04 -0.96125672280E+03  0.17938119254E+04  0.91716963092E+02 0.  0.
          4    1    3    3  502    0  0.27715883655E+02  0.12519784479E+04 -0.24521800294E+03  0.12760682086E+04  0.00000000000E+00 0. -1.
         -3    1    3    3    0  502 -0.21075229830E+02  0.54269786379E+03 -0.66489208532E+02  0.54716172337E+03  0.00000000000E+00 0.  1.
         13    1    5    5    0    0 -0.11070279421E+03 -0.53456931736E+02 -0.16687390361E+03  0.20726710280E+03  0.00000000000E+00 0. -1.
        -13    1    5    5    0    0 -0.20870390671E+03 -0.26219533177E+03 -0.37683921800E+03  0.50429307838E+03  0.00000000000E+00 0.  1.
          3    1    6    6  503    0  0.15013959193E+03 -0.92452382928E+03 -0.58998370810E+03  0.11069629550E+04  0.00000000000E+00 0. -1.
         -3    1    6    6    0  503  0.16262645517E+03 -0.55450021885E+03 -0.37127301470E+03  0.68684897035E+03  0.00000000000E+00 0.  1.
<mgrwt>
<rscale>  0 0.39289286E+04</rscale>
<asrwt>0</asrwt>
<pdfrwt beam="1">  1        2 0.19322500E+00 0.39289286E+04</pdfrwt>
<pdfrwt beam="2">  1       -1 0.47271376E+00 0.39289286E+04</pdfrwt>
<totfact> 0.35880994E-02</totfact>
</mgrwt>
</event>
<event>
12    7  0.1544987E-007  0.1464921E+04  0.7818608E-02  0.8908121E-01
         -1   -1    0    0    0  501 -0.00000000000E+00  0.00000000000E+00  0.41613401678E+03  0.41613401678E+03  0.00000000000E+00 0.  1.
          2   -1    0    0  501    0  0.00000000000E+00 -0.00000000000E+00 -0.12892436457E+04  0.12892436457E+04  0.00000000000E+00 0. -1.
         24    2    1    2    0    0 -0.26409024582E+03 -0.16922593672E+03 -0.68075549975E+03  0.75379122800E+03  0.79950543283E+02 0.  0.
        254    2    1    2    0    0  0.26409024582E+03  0.16922593672E+03 -0.19235412920E+03  0.95158643450E+03  0.87757367538E+03 0.  0.
         23    2    4    4    0    0  0.19655198598E+02 -0.21167378362E+03  0.22936240054E+03  0.32642563731E+03  0.93565316272E+02 0.  0.
         23    2    4    4    0    0  0.24443504723E+03  0.38089972034E+03 -0.42171652974E+03  0.62516079719E+03  0.90266835695E+02 0.  0.
          2    1    3    3  502    0 -0.22822627222E+03 -0.11127130787E+03 -0.50382523989E+03  0.56418827322E+03  0.00000000000E+00 0. -1.
         -1    1    3    3    0  502 -0.35863973601E+02 -0.57954628845E+02 -0.17693025986E+03  0.18960295478E+03  0.00000000000E+00 0.  1.
         13    1    5    5    0    0 -0.14583502011E+02 -0.18728873684E+03  0.16782943848E+03  0.25190567659E+03  0.00000000000E+00 0. -1.
        -13    1    5    5    0    0  0.34238700609E+02 -0.24385046777E+02  0.61532962062E+02  0.74519960721E+02  0.00000000000E+00 0.  1.
          2    1    6    6  503    0  0.22708966888E+03  0.29507781188E+03 -0.32008311350E+03  0.49101306737E+03  0.00000000000E+00 0. -1.
         -2    1    6    6    0  503  0.17345378342E+02  0.85821908455E+02 -0.10163341624E+03  0.13414772982E+03  0.00000000000E+00 0.  1.
<mgrwt>
<rscale>  0 0.14649207E+04</rscale>
<asrwt>0</asrwt>
<pdfrwt beam="1">  1        2 0.19834517E+00 0.14649207E+04</pdfrwt>
<pdfrwt beam="2">  1       -1 0.64020619E-01 0.14649207E+04</pdfrwt>
<totfact> 0.45828957E+01</totfact>
</mgrwt>
</event>
<event>
12    7  0.1544987E-007  0.1048325E+04  0.7818608E-02  0.9257075E-01
          2   -1    0    0  501    0  0.00000000000E+00  0.00000000000E+00  0.11118221880E+04  0.11118221880E+04  0.00000000000E+00 0. -1.
         -1   -1    0    0    0  501 -0.00000000000E+00 -0.00000000000E+00 -0.24711336989E+03  0.24711336989E+03  0.00000000000E+00 0.  1.
         24    2    1    2    0    0  0.93504503894E+02 -0.86799192044E+02  0.16580575928E+03  0.22352748379E+03  0.78713367436E+02 0.  0.
        254    2    1    2    0    0 -0.93504503894E+02  0.86799192044E+02  0.69890305881E+03  0.11354080741E+04  0.88566857068E+03 0.  0.
         23    2    4    4    0    0 -0.28464334655E+03  0.38772457032E+02 -0.92267339166E+02  0.31504577392E+03  0.90639062374E+02 0.  0.
         23    2    4    4    0    0  0.19113884266E+03  0.48026735012E+02  0.79117039797E+03  0.82036230016E+03  0.90570858674E+02 0.  0.
          4    1    3    3  502    0  0.10391113901E+03 -0.86039689274E+02  0.13438605344E+03  0.19042049339E+03  0.00000000000E+00 0. -1.
         -3    1    3    3    0  502 -0.10406635120E+02 -0.75950276982E+00  0.31419705838E+02  0.33106990409E+02  0.00000000000E+00 0.  1.
         13    1    5    5    0    0 -0.19896380932E+03 -0.78395069052E+01 -0.35705220913E+02  0.20229413756E+03  0.00000000000E+00 0.  1.
        -13    1    5    5    0    0 -0.85679537228E+02  0.46611963937E+02 -0.56562118252E+02  0.11275163636E+03  0.00000000000E+00 0. -1.
          1    1    6    6  503    0  0.10692594142E+03 -0.18805775638E+02  0.36190458480E+03  0.37783824932E+03  0.00000000000E+00 0. -1.
         -1    1    6    6    0  503  0.84212901240E+02  0.66832510650E+02  0.42926581317E+03  0.44252405084E+03  0.00000000000E+00 0.  1.
<mgrwt>
<rscale>  0 0.10483246E+04</rscale>
<asrwt>0</asrwt>
<pdfrwt beam="1">  1        2 0.17104956E+00 0.10483246E+04</pdfrwt>
<pdfrwt beam="2">  1       -1 0.38017442E-01 0.10483246E+04</pdfrwt>
<totfact> 0.16236864E+02</totfact>
</mgrwt>
</event>
<event>
12    7  0.1544987E-007  0.1110360E+04  0.7818608E-02  0.9195153E-01
         -1   -1    0    0    0  501 -0.00000000000E+00  0.00000000000E+00  0.21416694669E+03  0.21416694669E+03  0.00000000000E+00 0.  1.
          2   -1    0    0  501    0  0.00000000000E+00 -0.00000000000E+00 -0.14391798014E+04  0.14391798014E+04  0.00000000000E+00 0. -1.
         24    2    1    2    0    0 -0.49884613331E+02  0.13553943775E+00 -0.53473399013E+03  0.54305385496E+03  0.80489478628E+02 0.  0.
        254    2    1    2    0    0  0.49884613331E+02 -0.13553943775E+00 -0.69027886459E+03  0.11102928931E+04  0.86820326227E+03 0.  0.
         23    2    4    4    0    0  0.20163844398E+03  0.11306525577E+03 -0.82434432600E+03  0.86107970805E+03  0.92048257193E+02 0.  0.
         23    2    4    4    0    0 -0.15175383065E+03 -0.11320079520E+03  0.13406546141E+03  0.24921318508E+03  0.91049538848E+02 0.  0.
          2    1    3    3  502    0 -0.16041109102E+02  0.39487749619E+02 -0.25736061325E+03  0.26086602846E+03  0.00000000000E+00 0. -1.
         -1    1    3    3    0  502 -0.33843504229E+02 -0.39352210181E+02 -0.27737337688E+03  0.28218782650E+03  0.00000000000E+00 0.  1.
         13    1    5    5    0    0  0.21066173681E+03  0.10491364325E+03 -0.76026672928E+03  0.79585849216E+03  0.00000000000E+00 0.  1.
        -13    1    5    5    0    0 -0.90232928341E+01  0.81516125118E+01 -0.64077596720E+02  0.65221215885E+02  0.00000000000E+00 0. -1.
          4    1    6    6  503    0 -0.54088883597E+02 -0.40003704076E+02 -0.85426675852E+00  0.67280260406E+02  0.00000000000E+00 0. -1.
         -4    1    6    6    0  503 -0.97664947052E+02 -0.73197091128E+02  0.13491972817E+03  0.18193292468E+03  0.00000000000E+00 0.  1.
<mgrwt>
<rscale>  0 0.11103598E+04</rscale>
<asrwt>0</asrwt>
<pdfrwt beam="1">  1        2 0.22141228E+00 0.11103598E+04</pdfrwt>
<pdfrwt beam="2">  1       -1 0.32948761E-01 0.11103598E+04</pdfrwt>
<totfact> 0.13422025E+02</totfact>
</mgrwt>
</event>
<event>
12    7  0.1544987E-007  0.1518373E+04  0.7818608E-02  0.8872326E-01
          2   -1    0    0  501    0  0.00000000000E+00  0.00000000000E+00  0.13541079208E+04  0.13541079208E+04  0.00000000000E+00 0. -1.
         -1   -1    0    0    0  501 -0.00000000000E+00 -0.00000000000E+00 -0.42564123805E+03  0.42564123805E+03  0.00000000000E+00 0.  1.
         24    2    1    2    0    0  0.15707579821E+03 -0.30904455937E+03  0.70399108367E+03  0.78941993073E+03  0.86017644043E+02 0.  0.
        254    2    1    2    0    0 -0.15707579821E+03  0.30904455937E+03  0.22447559908E+03  0.99032922811E+03  0.90010073848E+03 0.  0.
         23    2    4    4    0    0  0.23743314546E+03  0.36769512961E+03 -0.11292174617E+03  0.46120874951E+03  0.91585932115E+02 0.  0.
         23    2    4    4    0    0 -0.39450894367E+03 -0.58650570244E+02  0.33739734524E+03  0.52912047861E+03  0.83989977247E+02 0.  0.
          2    1    3    3  502    0  0.11173134171E+03 -0.27874195484E+03  0.62536439220E+03  0.69373020198E+03  0.00000000000E+00 0. -1.
         -1    1    3    3    0  502  0.45344456500E+02 -0.30302604531E+02  0.78626691469E+02  0.95689728748E+02  0.00000000000E+00 0.  1.
         13    1    5    5    0    0  0.18652882516E+02 -0.10943437883E+00 -0.18488644389E+00  0.18654119787E+02  0.00000000000E+00 0. -1.
        -13    1    5    5    0    0  0.21878026294E+03  0.36780456399E+03 -0.11273685972E+03  0.44255462972E+03  0.00000000000E+00 0.  1.
          4    1    6    6  503    0 -0.42349031253E+02  0.48822397465E+01  0.71720073299E+02  0.83432880970E+02  0.00000000000E+00 0. -1.
         -4    1    6    6    0  503 -0.35215991242E+03 -0.63532809990E+02  0.26567727194E+03  0.44568759764E+03  0.00000000000E+00 0.  1.
<mgrwt>
<rscale>  0 0.15183730E+04</rscale>
<asrwt>0</asrwt>
<pdfrwt beam="1">  1        2 0.20832429E+00 0.15183730E+04</pdfrwt>
<pdfrwt beam="2">  1       -1 0.65483268E-01 0.15183730E+04</pdfrwt>
<totfact> 0.39979849E+01</totfact>
</mgrwt>
</event>
<event>
12    7  0.1544987E-007  0.2002404E+04  0.7818608E-02  0.8605497E-01
         -1   -1    0    0    0  501 -0.00000000000E+00  0.00000000000E+00  0.47790673611E+03  0.47790673611E+03  0.00000000000E+00 0.  1.
          2   -1    0    0  501    0  0.00000000000E+00 -0.00000000000E+00 -0.20974928146E+04  0.20974928146E+04  0.00000000000E+00 0. -1.
         24    2    1    2    0    0 -0.24647003195E+03  0.69368529731E+03 -0.10392574431E+04  0.12756620032E+04  0.72874858434E+02 0.  0.
        254    2    1    2    0    0  0.24647003195E+03 -0.69368529731E+03 -0.58032863537E+03  0.12997375475E+04  0.90032749539E+03 0.  0.
         23    2    4    4    0    0  0.46765983908E+03 -0.16525986952E+03 -0.38083767155E+02  0.50578146940E+03  0.91367236458E+02 0.  0.
         23    2    4    4    0    0 -0.22118980713E+03 -0.52842542779E+03 -0.54224486821E+03  0.79395607809E+03  0.90434469737E+02 0.  0.
          4    1    3    3  502    0 -0.24981980860E+03  0.67617251390E+03 -0.10019282472E+04  0.12342930842E+04  0.00000000000E+00 0. -1.
         -3    1    3    3    0  502  0.33497766515E+01  0.17512783411E+02 -0.37329195937E+02  0.41368918958E+02  0.00000000000E+00 0.  1.
         13    1    5    5    0    0  0.27490841850E+03 -0.14403287537E+03 -0.27655330341E+02  0.31158453916E+03  0.00000000000E+00 0.  1.
        -13    1    5    5    0    0  0.19275142058E+03 -0.21226994153E+02 -0.10428436814E+02  0.19419693023E+03  0.00000000000E+00 0. -1.
          2    1    6    6  503    0 -0.19780770944E+03 -0.39874736668E+03 -0.45111442742E+03  0.63374409581E+03  0.00000000000E+00 0. -1.
         -2    1    6    6    0  503 -0.23382097688E+02 -0.12967806112E+03 -0.91130440791E+02  0.16021198228E+03  0.00000000000E+00 0.  1.
<mgrwt>
<rscale>  0 0.20024045E+04</rscale>
<asrwt>0</asrwt>
<pdfrwt beam="1">  1        2 0.32269121E+00 0.20024045E+04</pdfrwt>
<pdfrwt beam="2">  1       -1 0.73524111E-01 0.20024045E+04</pdfrwt>
<totfact> 0.11618025E+01</totfact>
</mgrwt>
</event>
<event>
12    7  0.1544987E-007  0.1477771E+04  0.7818608E-02  0.8899371E-01
          2   -1    0    0  501    0  0.00000000000E+00  0.00000000000E+00  0.78853669423E+03  0.78853669423E+03  0.00000000000E+00 0. -1.
         -1   -1    0    0    0  501 -0.00000000000E+00 -0.00000000000E+00 -0.69236064711E+03  0.69236064711E+03  0.00000000000E+00 0.  1.
         24    2    1    2    0    0 -0.17322893127E+03 -0.56027444838E+01 -0.39704618823E+03  0.44040370128E+03  0.79183907054E+02 0.  0.
        254    2    1    2    0    0  0.17322893127E+03  0.56027444838E+01  0.49322223536E+03  0.10404936401E+04  0.89962169170E+03 0.  0.
         23    2    4    4    0    0  0.20642295397E+03 -0.35223518579E+03 -0.68554196123E+01  0.41806401330E+03  0.89724357959E+02 0.  0.
         23    2    4    4    0    0 -0.33194022693E+02  0.35783793027E+03  0.50007765497E+03  0.62242962676E+03  0.90504982063E+02 0.  0.
          2    1    3    3  502    0  0.39783511809E+01 -0.12263495172E+02 -0.34003090254E+02  0.36365240805E+02  0.00000000000E+00 0. -1.
         -1    1    3    3    0  502 -0.17720728245E+03  0.66607506880E+01 -0.36304309798E+03  0.40403846048E+03  0.00000000000E+00 0.  1.
         13    1    5    5    0    0  0.19456112608E+03 -0.28386152868E+03  0.17331502585E+02  0.34457478177E+03  0.00000000000E+00 0. -1.
        -13    1    5    5    0    0  0.11861827886E+02 -0.68373657102E+02 -0.24186922197E+02  0.73489231536E+02  0.00000000000E+00 0.  1.
          3    1    6    6  503    0 -0.40234859827E+02  0.11073327329E+03  0.11366384736E+03  0.16370758063E+03  0.00000000000E+00 0. -1.
         -3    1    6    6    0  503  0.70408371340E+01  0.24710465698E+03  0.38641380761E+03  0.45872204612E+03  0.00000000000E+00 0.  1.
<mgrwt>
<rscale>  0 0.14777710E+04</rscale>
<asrwt>0</asrwt>
<pdfrwt beam="1">  1        2 0.12131334E+00 0.14777710E+04</pdfrwt>
<pdfrwt beam="2">  1       -1 0.10651702E+00 0.14777710E+04</pdfrwt>
<totfact> 0.31954901E+01</totfact>
</mgrwt>
</event>
<event>
12    7  0.1544987E-007  0.1914341E+04  0.7818608E-02  0.8647751E-01
         -1   -1    0    0    0  501 -0.00000000000E+00  0.00000000000E+00  0.40661311417E+03  0.40661311417E+03  0.00000000000E+00 0.  1.
          2   -1    0    0  501    0  0.00000000000E+00 -0.00000000000E+00 -0.22531875086E+04  0.22531875086E+04  0.00000000000E+00 0. -1.
         24    2    1    2    0    0  0.21370904452E+03 -0.71921100967E+03 -0.73391371167E+03  0.10522892206E+04  0.75810522849E+02 0.  0.
        254    2    1    2    0    0 -0.21370904452E+03  0.71921100967E+03 -0.11126606828E+04  0.16075114022E+04  0.88495371697E+03 0.  0.
         23    2    4    4    0    0  0.26950853868E+03  0.33958244348E+03 -0.16185338549E+03  0.47165755018E+03  0.91176959300E+02 0.  0.
         23    2    4    4    0    0 -0.48321758320E+03  0.37962856619E+03 -0.95080729727E+03  0.11358538520E+04  0.92262536650E+02 0.  0.
          2    1    3    3  502    0  0.60186513818E+02 -0.29945778594E+03 -0.33311596198E+03  0.45195533644E+03  0.00000000000E+00 0. -1.
         -1    1    3    3    0  502  0.15352253070E+03 -0.41975322373E+03 -0.40079774969E+03  0.60033388412E+03  0.00000000000E+00 0.  1.
         13    1    5    5    0    0  0.20625984237E+03  0.30526324357E+03 -0.11564068854E+03  0.38613668473E+03  0.00000000000E+00 0.  1.
        -13    1    5    5    0    0  0.63248696314E+02  0.34319199908E+02 -0.46212696958E+02  0.85520865454E+02  0.00000000000E+00 0. -1.
          1    1    6    6  503    0 -0.26527559666E+03  0.19688403319E+03 -0.42772734269E+03  0.54044902109E+03  0.00000000000E+00 0. -1.
         -1    1    6    6    0  503 -0.21794198654E+03  0.18274453300E+03 -0.52307995458E+03  0.59540483095E+03  0.00000000000E+00 0.  1.
<mgrwt>
<rscale>  0 0.19143412E+04</rscale>
<asrwt>0</asrwt>
<pdfrwt beam="1">  1        2 0.34664423E+00 0.19143412E+04</pdfrwt>
<pdfrwt beam="2">  1       -1 0.62555864E-01 0.19143412E+04</pdfrwt>
<totfact> 0.13306711E+01</totfact>
</mgrwt>
</event>
<event>
12    7  0.2026394E-007  0.2159285E+04  0.7818608E-02  0.8535568E-01
          2   -1    0    0  501    0  0.00000000000E+00  0.00000000000E+00  0.26696392403E+04  0.26696392403E+04  0.00000000000E+00 0. -1.
         -1   -1    0    0    0  501 -0.00000000000E+00 -0.00000000000E+00 -0.43662371644E+03  0.43662371644E+03  0.00000000000E+00 0.  1.
         24    2    1    2    0    0  0.64262939315E+03 -0.41723523446E+03  0.27403943973E+03  0.81770579295E+03  0.80544220744E+02 0.  0.
        254    2    1    2    0    0 -0.64262939315E+03  0.41723523446E+03  0.19589760842E+04  0.22885571638E+04  0.90158128639E+03 0.  0.
         23    2    4    4    0    0 -0.39057440927E+03  0.27875211588E+03  0.19231336283E+04  0.19844318421E+04  0.96310292267E+02 0.  0.
         23    2    4    4    0    0 -0.25205498387E+03  0.13848311858E+03  0.35842455838E+02  0.30412532169E+03  0.92185902535E+02 0.  0.
          4    1    3    3  502    0  0.52440313644E+02 -0.37691224519E+02  0.51033936808E+00  0.64582314507E+02  0.00000000000E+00 0. -1.
         -3    1    3    3    0  502  0.59018907950E+03 -0.37954400994E+03  0.27352910036E+03  0.75312347844E+03  0.00000000000E+00 0.  1.
         13    1    5    5    0    0 -0.31198913633E+03  0.25996161601E+03  0.15223643780E+04  0.15755984776E+04  0.00000000000E+00 0. -1.
        -13    1    5    5    0    0 -0.78585272942E+02  0.18790499864E+02  0.40076925030E+03  0.40883336458E+03  0.00000000000E+00 0.  1.
          3    1    6    6  503    0 -0.25749030152E+03  0.12454636415E+03  0.39449501234E+02  0.28873745054E+03  0.00000000000E+00 0. -1.
         -3    1    6    6    0  503  0.54353176465E+01  0.13936754427E+02 -0.36070453963E+01  0.15387871145E+02  0.00000000000E+00 0.  1.
<mgrwt>
<rscale>  0 0.21592849E+04</rscale>
<asrwt>0</asrwt>
<pdfrwt beam="1">  1        2 0.41071372E+00 0.21592849E+04</pdfrwt>
<pdfrwt beam="2">  1       -1 0.67172881E-01 0.21592849E+04</pdfrwt>
<totfact> 0.64889058E+00</totfact>
</mgrwt>
</event>
<event>
12    7  0.1544987E-007  0.1649141E+04  0.7818608E-02  0.8790915E-01
         -1   -1    0    0    0  501 -0.00000000000E+00  0.00000000000E+00  0.24679369673E+03  0.24679369673E+03  0.00000000000E+00 0.  1.
          2   -1    0    0  501    0  0.00000000000E+00 -0.00000000000E+00 -0.27549989112E+04  0.27549989112E+04  0.00000000000E+00 0. -1.
         24    2    1    2    0    0  0.48580363837E+03  0.48802744045E+02 -0.15670851863E+04  0.16433895487E+04  0.81156298707E+02 0.  0.
        254    2    1    2    0    0 -0.48580363837E+03 -0.48802744045E+02 -0.94112002823E+03  0.13584030593E+04  0.84921439050E+03 0.  0.
         23    2    4    4    0    0 -0.43294962479E+03  0.34850904089E+03 -0.61489072575E+03  0.83403283073E+03  0.92823644310E+02 0.  0.
         23    2    4    4    0    0 -0.52854013575E+02 -0.39731178494E+03 -0.32622930248E+03  0.52437022854E+03  0.88816538900E+02 0.  0.
          4    1    3    3  502    0  0.33620854253E+03  0.23011109734E+02 -0.11928301194E+04  0.12395198220E+04  0.00000000000E+00 0. -1.
         -3    1    3    3    0  502  0.14959509584E+03  0.25791634311E+02 -0.37425506684E+03  0.40386972672E+03  0.00000000000E+00 0.  1.
         13    1    5    5    0    0 -0.10595272924E+03  0.10204273937E+03 -0.10842728207E+03  0.18274347318E+03  0.00000000000E+00 0.  1.
        -13    1    5    5    0    0 -0.32699689556E+03  0.24646630152E+03 -0.50646344368E+03  0.65128935756E+03  0.00000000000E+00 0. -1.
          1    1    6    6  503    0 -0.30789056653E+02 -0.12154503349E+03 -0.54910138197E+02  0.13688054812E+03  0.00000000000E+00 0. -1.
         -1    1    6    6    0  503 -0.22064956922E+02 -0.27576675144E+03 -0.27131916428E+03  0.38748968042E+03  0.00000000000E+00 0.  1.
<mgrwt>
<rscale>  0 0.16491408E+04</rscale>
<asrwt>0</asrwt>
<pdfrwt beam="1">  1        2 0.42384600E+00 0.16491408E+04</pdfrwt>
<pdfrwt beam="2">  1       -1 0.37968260E-01 0.16491408E+04</pdfrwt>
<totfact> 0.17999872E+01</totfact>
</mgrwt>
</event>
<event>
12    7  0.1544987E-007  0.1137580E+04  0.7818608E-02  0.9169319E-01
         -1   -1    0    0    0  501 -0.00000000000E+00  0.00000000000E+00  0.97044750571E+02  0.97044750571E+02  0.00000000000E+00 0.  1.
          2   -1    0    0  501    0  0.00000000000E+00 -0.00000000000E+00 -0.33337410974E+04  0.33337410974E+04  0.00000000000E+00 0. -1.
         24    2    1    2    0    0  0.89827157041E+02  0.95861025225E+02 -0.10349681219E+04  0.10465679703E+04  0.82989449814E+02 0.  0.
        254    2    1    2    0    0 -0.89827157041E+02 -0.95861025225E+02 -0.22017282249E+04  0.23842178777E+04  0.90533389284E+03 0.  0.
         23    2    4    4    0    0 -0.36223010852E+03 -0.10362342418E+03 -0.19896366598E+04  0.20270545340E+04  0.91365094012E+02 0.  0.
         23    2    4    4    0    0  0.27240295148E+03  0.77623989567E+01 -0.21209156512E+03  0.35716334363E+03  0.91209644380E+02 0.  0.
          2    1    3    3  502    0  0.10352168251E+03  0.78720039779E+02 -0.79150458097E+03  0.80211787482E+03  0.00000000000E+00 0. -1.
         -1    1    3    3    0  502 -0.13694525473E+02  0.17140985446E+02 -0.24346354094E+03  0.24445009547E+03  0.00000000000E+00 0.  1.
         13    1    5    5    0    0 -0.29526713161E+03 -0.90971686775E+02 -0.14117256249E+04  0.14451393589E+04  0.00000000000E+00 0.  1.
        -13    1    5    5    0    0 -0.66962976909E+02 -0.12651737407E+02 -0.57791103493E+03  0.58191517512E+03  0.00000000000E+00 0. -1.
          3    1    6    6  503    0  0.27227987811E+03  0.21915523439E+02 -0.20004818423E+03  0.33857923475E+03  0.00000000000E+00 0.  1.
         -3    1    6    6    0  503  0.12307336975E+00 -0.14153124483E+02 -0.12043380886E+02  0.18584108880E+02  0.00000000000E+00 0. -1.
<mgrwt>
<rscale>  0 0.11375800E+04</rscale>
<asrwt>0</asrwt>
<pdfrwt beam="1">  1        2 0.51288314E+00 0.11375800E+04</pdfrwt>
<pdfrwt beam="2">  1       -1 0.14929965E-01 0.11375800E+04</pdfrwt>
<totfact> 0.40553945E+01</totfact>
</mgrwt>
</event>
<event>
12    7  0.1544987E-007  0.4166053E+04  0.7818608E-02  0.7971861E-01
         -1   -1    0    0    0  501 -0.00000000000E+00  0.00000000000E+00  0.18183468336E+04  0.18183468336E+04  0.00000000000E+00 0.  1.
          2   -1    0    0  501    0  0.00000000000E+00 -0.00000000000E+00 -0.23862335545E+04  0.23862335545E+04  0.00000000000E+00 0. -1.
         24    2    1    2    0    0  0.12688904191E+04 -0.78906267630E+03  0.10470957581E+04  0.18263796511E+04  0.80933926405E+02 0.  0.
        254    2    1    2    0    0 -0.12688904191E+04  0.78906267630E+03 -0.16149824790E+04  0.23782007370E+04  0.90275552359E+03 0.  0.
         23    2    4    4    0    0 -0.13117851170E+04  0.81889016555E+03 -0.12311104648E+04  0.19787193783E+04  0.91302272178E+02 0.  0.
         23    2    4    4    0    0  0.42894697929E+02 -0.29827489250E+02 -0.38387201420E+03  0.39948135877E+03  0.97457675385E+02 0.  0.
          4    1    3    3  502    0  0.40571576579E+03 -0.25622026119E+03  0.38275096845E+03  0.61380160370E+03  0.00000000000E+00 0. -1.
         -3    1    3    3    0  502  0.86317465333E+03 -0.53284241511E+03  0.66434478963E+03  0.12125780474E+04  0.00000000000E+00 0.  1.
         13    1    5    5    0    0 -0.43624914321E+03  0.30843366349E+03 -0.38600825772E+03  0.65912594757E+03  0.00000000000E+00 0.  1.
        -13    1    5    5    0    0 -0.87553597383E+03  0.51045650206E+03 -0.84510220706E+03  0.13195934307E+04  0.00000000000E+00 0. -1.
          2    1    6    6  503    0  0.43775928977E+02 -0.57704248447E+02 -0.18517385787E+03  0.19883528330E+03  0.00000000000E+00 0. -1.
         -2    1    6    6    0  503 -0.88123104828E+00  0.27876759197E+02 -0.19869815633E+03  0.20064607547E+03  0.00000000000E+00 0.  1.
<mgrwt>
<rscale>  0 0.41660534E+04</rscale>
<asrwt>0</asrwt>
<pdfrwt beam="1">  1        2 0.36711286E+00 0.41660534E+04</pdfrwt>
<pdfrwt beam="2">  1       -1 0.27974567E+00 0.41660534E+04</pdfrwt>
<totfact> 0.16007659E-01</totfact>
</mgrwt>
</event>
<event>
12    7  0.1544987E-007  0.2025069E+04  0.7818608E-02  0.8594989E-01
         -1   -1    0    0    0  501 -0.00000000000E+00  0.00000000000E+00  0.13834913255E+04  0.13834913255E+04  0.00000000000E+00 0.  1.
          2   -1    0    0  501    0  0.00000000000E+00 -0.00000000000E+00 -0.74104296876E+03  0.74104296876E+03  0.00000000000E+00 0. -1.
         24    2    1    2    0    0 -0.77284708280E+03 -0.25756528125E+03  0.26064805468E+03  0.85903178954E+03  0.79785459367E+02 0.  0.
        254    2    1    2    0    0  0.77284708280E+03  0.25756528125E+03  0.38180030208E+03  0.12655025047E+04  0.88999586030E+03 0.  0.
         23    2    4    4    0    0  0.79516857311E+02 -0.20649035426E+03 -0.13957953990E+03  0.27766407825E+03  0.93025240627E+02 0.  0.
         23    2    4    4    0    0  0.69333022549E+03  0.46405563551E+03  0.52137984198E+03  0.98783842650E+03  0.89069539190E+02 0.  0.
          2    1    3    3  502    0 -0.76292921771E+03 -0.24937443774E+03  0.24592355352E+03  0.83948019370E+03  0.00000000000E+00 0. -1.
         -1    1    3    3    0  502 -0.99178650892E+01 -0.81908435045E+01  0.14724501165E+02  0.19551595838E+02  0.00000000000E+00 0.  1.
         13    1    5    5    0    0  0.10010561214E+03 -0.15456799768E+03 -0.10869253259E+03  0.21383747597E+03  0.00000000000E+00 0.  1.
        -13    1    5    5    0    0 -0.20588754828E+02 -0.51922356586E+02 -0.30887007309E+02  0.63826602286E+02  0.00000000000E+00 0. -1.
          3    1    6    6  503    0  0.14801514476E+03  0.66165435576E+02  0.75636608731E+02  0.17890568611E+03  0.00000000000E+00 0. -1.
         -3    1    6    6    0  503  0.54531508073E+03  0.39789019993E+03  0.44574323325E+03  0.80893274038E+03  0.00000000000E+00 0.  1.
<mgrwt>
<rscale>  0 0.20250694E+04</rscale>
<asrwt>0</asrwt>
<pdfrwt beam="1">  1        2 0.11400661E+00 0.20250694E+04</pdfrwt>
<pdfrwt beam="2">  1       -1 0.21284482E+00 0.20250694E+04</pdfrwt>
<totfact> 0.49562026E+00</totfact>
</mgrwt>
</event>
<event>
12    7  0.1544987E-007  0.2078308E+04  0.7818608E-02  0.8570859E-01
         -1   -1    0    0    0  501 -0.00000000000E+00  0.00000000000E+00  0.10073264384E+04  0.10073264384E+04  0.00000000000E+00 0.  1.
          2   -1    0    0  501    0  0.00000000000E+00 -0.00000000000E+00 -0.10719874564E+04  0.10719874564E+04  0.00000000000E+00 0. -1.
         24    2    1    2    0    0 -0.85635847957E+01 -0.48505528027E+03 -0.70670296816E+03  0.86085047729E+03  0.79262217630E+02 0.  0.
        254    2    1    2    0    0  0.85635847957E+01  0.48505528027E+03  0.64204195019E+03  0.12184634175E+04  0.91492255082E+03 0.  0.
         23    2    4    4    0    0  0.21590168218E+03 -0.18808733733E+03  0.31882329160E+03  0.43803669216E+03  0.90760506720E+02 0.  0.
         23    2    4    4    0    0 -0.20733809739E+03  0.67314261760E+03  0.32321865859E+03  0.78042672530E+03  0.92116784821E+02 0.  0.
          2    1    3    3  502    0  0.50243087917E+00 -0.26504524236E+03 -0.45369207358E+03  0.52543860779E+03  0.00000000000E+00 0. -1.
         -1    1    3    3    0  502 -0.90660156748E+01 -0.22001003791E+03 -0.25301089458E+03  0.33541186950E+03  0.00000000000E+00 0.  1.
         13    1    5    5    0    0  0.39276008910E+02  0.38985676278E+01  0.44234938715E+02  0.59283501149E+02  0.00000000000E+00 0. -1.
        -13    1    5    5    0    0  0.17662567327E+03 -0.19198590496E+03  0.27458835288E+03  0.37875319101E+03  0.00000000000E+00 0.  1.
          4    1    6    6  503    0 -0.23764641901E+01  0.31152693427E+02  0.36526068992E+02  0.48065492880E+02  0.00000000000E+00 0. -1.
         -4    1    6    6    0  503 -0.20496163320E+03  0.64198992417E+03  0.28669258960E+03  0.73236123242E+03  0.00000000000E+00 0.  1.
<mgrwt>
<rscale>  0 0.20783083E+04</rscale>
<asrwt>0</asrwt>
<pdfrwt beam="1">  1        2 0.16492115E+00 0.20783083E+04</pdfrwt>
<pdfrwt beam="2">  1       -1 0.15497330E+00 0.20783083E+04</pdfrwt>
<totfact> 0.76230126E+00</totfact>
</mgrwt>
</event>
<event>
12    7  0.1544987E-007  0.2023813E+04  0.7818608E-02  0.8595568E-01
          2   -1    0    0  501    0  0.00000000000E+00  0.00000000000E+00  0.73730031440E+03  0.73730031440E+03  0.00000000000E+00 0. -1.
         -1   -1    0    0    0  501 -0.00000000000E+00 -0.00000000000E+00 -0.13887893214E+04  0.13887893214E+04  0.00000000000E+00 0.  1.
         24    2    1    2    0    0 -0.13450965749E+03 -0.24315361354E+03 -0.10265715264E+04  0.10665898790E+04  0.80921834475E+02 0.  0.
        254    2    1    2    0    0  0.13450965749E+03  0.24315361354E+03  0.37508251942E+03  0.10594997568E+04  0.95112370943E+03 0.  0.
         23    2    4    4    0    0  0.22708793043E+03  0.87136135637E+02  0.65995567157E+03  0.70939083188E+03  0.92370068924E+02 0.  0.
         23    2    4    4    0    0 -0.92578272940E+02  0.15601747790E+03 -0.28487315216E+03  0.35010892496E+03  0.92257013212E+02 0.  0.
          2    1    3    3  502    0 -0.39942864704E+02 -0.15511558745E+02 -0.14389331801E+03  0.15013769634E+03  0.00000000000E+00 0. -1.
         -1    1    3    3    0  502 -0.94566792789E+02 -0.22764205480E+03 -0.88267820843E+03  0.91645218263E+03  0.00000000000E+00 0.  1.
         13    1    5    5    0    0  0.58537901638E+01 -0.63850501139E+01  0.96356844712E+02  0.96745424941E+02  0.00000000000E+00 0. -1.
        -13    1    5    5    0    0  0.22123414027E+03  0.93521185751E+02  0.56359882686E+03  0.61264540694E+03  0.00000000000E+00 0.  1.
          1    1    6    6  503    0 -0.59045865324E+02  0.14594700525E+03 -0.17794664285E+03  0.23759619159E+03  0.00000000000E+00 0. -1.
         -1    1    6    6    0  503 -0.33532407616E+02  0.10070472653E+02 -0.10692650930E+03  0.11251273338E+03  0.00000000000E+00 0.  1.
<mgrwt>
<rscale>  0 0.20238130E+04</rscale>
<asrwt>0</asrwt>
<pdfrwt beam="1">  1        2 0.11343082E+00 0.20238130E+04</pdfrwt>
<pdfrwt beam="2">  1       -1 0.21365989E+00 0.20238130E+04</pdfrwt>
<totfact> 0.49263417E+00</totfact>
</mgrwt>
</event>
<event>
12    7  0.1544987E-007  0.1606699E+04  0.7818608E-02  0.8816443E-01
         -1   -1    0    0    0  501 -0.00000000000E+00  0.00000000000E+00  0.36154817329E+03  0.36154817329E+03  0.00000000000E+00 0.  1.
          2   -1    0    0  501    0  0.00000000000E+00 -0.00000000000E+00 -0.17850184728E+04  0.17850184728E+04  0.00000000000E+00 0. -1.
         24    2    1    2    0    0 -0.10414036617E+03 -0.46824137722E+03 -0.14114893977E+03  0.50605636808E+03  0.77941139751E+02 0.  0.
        254    2    1    2    0    0  0.10414036617E+03  0.46824137722E+03 -0.12823213598E+04  0.16405102781E+04  0.90378686614E+03 0.  0.
         23    2    4    4    0    0  0.46124742086E+03  0.24582392359E+03 -0.98140515155E+03  0.11154915329E+04  0.89368360113E+02 0.  0.
         23    2    4    4    0    0 -0.35710705469E+03  0.22241745364E+03 -0.30091620824E+03  0.52501874517E+03  0.89995256569E+02 0.  0.
          2    1    3    3  502    0 -0.12807384705E+02 -0.30155054874E+02 -0.31200486477E+02  0.45241869920E+02  0.00000000000E+00 0. -1.
         -1    1    3    3    0  502 -0.91332981469E+02 -0.43808632235E+03 -0.10994845329E+03  0.46081449816E+03  0.00000000000E+00 0.  1.
         13    1    5    5    0    0  0.75158604798E+02  0.41606431649E+02 -0.10022272060E+03  0.13200191193E+03  0.00000000000E+00 0. -1.
        -13    1    5    5    0    0  0.38608881606E+03  0.20421749194E+03 -0.88118243095E+03  0.98348962095E+03  0.00000000000E+00 0.  1.
          2    1    6    6  503    0 -0.12326815030E+03  0.12807898115E+03 -0.13431198760E+03  0.22279805274E+03  0.00000000000E+00 0. -1.
         -2    1    6    6    0  503 -0.23383890439E+03  0.94338472482E+02 -0.16660422064E+03  0.30222069243E+03  0.00000000000E+00 0.  1.
<mgrwt>
<rscale>  0 0.16066987E+04</rscale>
<asrwt>0</asrwt>
<pdfrwt beam="1">  1        2 0.27461822E+00 0.16066987E+04</pdfrwt>
<pdfrwt beam="2">  1       -1 0.55622797E-01 0.16066987E+04</pdfrwt>
<totfact> 0.31389072E+01</totfact>
</mgrwt>
</event>
<event>
12    7  0.1544987E-007  0.1556713E+04  0.7818608E-02  0.8847591E-01
          2   -1    0    0  501    0  0.00000000000E+00  0.00000000000E+00  0.16536264788E+04  0.16536264788E+04  0.00000000000E+00 0. -1.
         -1   -1    0    0    0  501 -0.00000000000E+00 -0.00000000000E+00 -0.36636974630E+03  0.36636974630E+03  0.00000000000E+00 0.  1.
         24    2    1    2    0    0 -0.39627761508E+03 -0.26458976458E+03  0.65677967633E+03  0.81535417758E+03  0.79994999376E+02 0.  0.
        254    2    1    2    0    0  0.39627761508E+03  0.26458976458E+03  0.63047705619E+03  0.12046420475E+04  0.90918504859E+03 0.  0.
         23    2    4    4    0    0  0.44617060900E+03  0.40436355946E+03  0.64737129768E+02  0.61244448325E+03  0.91209914691E+02 0.  0.
         23    2    4    4    0    0 -0.49892993927E+02 -0.13977379487E+03  0.56573992642E+03  0.59219756429E+03  0.92791520213E+02 0.  0.
          4    1    3    3  502    0 -0.19227279763E+03 -0.15582848501E+03  0.28399250548E+03  0.37670026363E+03  0.00000000000E+00 0. -1.
         -1    1    3    3    0  502 -0.20400481744E+03 -0.10876127958E+03  0.37278717085E+03  0.43865391395E+03  0.00000000000E+00 0.  1.
         13    1    5    5    0    0  0.31130994658E+02  0.85802563540E+01  0.18180204952E+02  0.37057785681E+02  0.00000000000E+00 0.  1.
        -13    1    5    5    0    0  0.41503961434E+03  0.39578330310E+03  0.46556924816E+02  0.57538669757E+03  0.00000000000E+00 0. -1.
          4    1    6    6  503    0 -0.20041694925E+02 -0.92413628288E+02  0.48382906363E+03  0.49298327663E+03  0.00000000000E+00 0. -1.
         -4    1    6    6    0  503 -0.29851299001E+02 -0.47360166585E+02  0.81910862794E+02  0.99214287654E+02  0.00000000000E+00 0.  1.
<mgrwt>
<rscale>  0 0.15567128E+04</rscale>
<asrwt>0</asrwt>
<pdfrwt beam="1">  1        2 0.25440407E+00 0.15567128E+04</pdfrwt>
<pdfrwt beam="2">  1       -1 0.56364577E-01 0.15567128E+04</pdfrwt>
<totfact> 0.36336745E+01</totfact>
</mgrwt>
</event>
<event>
12    7  0.1544987E-007  0.1898592E+04  0.7818608E-02  0.8655558E-01
         -3   -1    0    0    0  501 -0.00000000000E+00  0.00000000000E+00  0.24926065933E+03  0.24926065933E+03  0.00000000000E+00 0.  1.
          2   -1    0    0  501    0  0.00000000000E+00 -0.00000000000E+00 -0.36153432899E+04  0.36153432899E+04  0.00000000000E+00 0. -1.
         24    2    1    2    0    0  0.40004520007E+03 -0.19555374777E+03 -0.24838339803E+04  0.25246854141E+04  0.79547269029E+02 0.  0.
        254    2    1    2    0    0 -0.40004520007E+03  0.19555374777E+03 -0.88224865029E+03  0.13399185352E+04  0.90484339505E+03 0.  0.
         23    2    4    4    0    0 -0.50326609573E+03  0.36956084226E+03 -0.91808056272E+03  0.11143016481E+04  0.94574120043E+02 0.  0.
         23    2    4    4    0    0  0.10322089566E+03 -0.17400709449E+03  0.35831912432E+02  0.22561688701E+03  0.93198881568E+02 0.  0.
          4    1    3    3  502    0  0.14455064840E+03 -0.64276753566E+02 -0.11033353230E+04  0.11146188703E+04  0.00000000000E+00 0. -1.
         -3    1    3    3    0  502  0.25549455167E+03 -0.13127699421E+03 -0.13804986573E+04  0.14100665438E+04  0.00000000000E+00 0.  1.
         13    1    5    5    0    0 -0.44986359094E+03  0.35966079159E+03 -0.85706396708E+03  0.10326140514E+04  0.00000000000E+00 0.  1.
        -13    1    5    5    0    0 -0.53402504788E+02  0.99000506711E+01 -0.61016595645E+02  0.81687596764E+02  0.00000000000E+00 0. -1.
          1    1    6    6  503    0  0.90694597077E+02 -0.79241814300E+02 -0.74901961240E+01  0.12066846361E+03  0.00000000000E+00 0. -1.
         -1    1    6    6    0  503  0.12526298580E+02 -0.94765280185E+02  0.43322108556E+02  0.10494842340E+03  0.00000000000E+00 0.  1.
<mgrwt>
<rscale>  0 0.18985920E+04</rscale>
<asrwt>0</asrwt>
<pdfrwt beam="1">  1        2 0.55620664E+00 0.18985920E+04</pdfrwt>
<pdfrwt beam="2">  1       -3 0.38347795E-01 0.18985920E+04</pdfrwt>
<totfact> 0.27850159E+00</totfact>
</mgrwt>
</event>
<event>
12    7  0.1544987E-007  0.1410879E+04  0.7818608E-02  0.8945981E-01
          2   -1    0    0  501    0  0.00000000000E+00  0.00000000000E+00  0.64139870652E+03  0.64139870652E+03  0.00000000000E+00 0. -1.
         -1   -1    0    0    0  501 -0.00000000000E+00 -0.00000000000E+00 -0.77587482198E+03  0.77587482198E+03  0.00000000000E+00 0.  1.
         24    2    1    2    0    0  0.57513501510E+02 -0.93578074530E+02  0.34880898218E+03  0.37491895695E+03  0.82655062401E+02 0.  0.
        254    2    1    2    0    0 -0.57513501510E+02  0.93578074530E+02 -0.48328509764E+03  0.10423545716E+04  0.91699177114E+03 0.  0.
         23    2    4    4    0    0 -0.36374734945E+03  0.34597392513E+03 -0.32616713849E+03  0.60573597021E+03  0.92309112631E+02 0.  0.
         23    2    4    4    0    0  0.30623384794E+03 -0.25239585060E+03 -0.15711795916E+03  0.43661860135E+03  0.92015840634E+02 0.  0.
          4    1    3    3  502    0  0.63769594517E+02 -0.10553033663E+03  0.32418488451E+03  0.34684153800E+03  0.00000000000E+00 0. -1.
         -3    1    3    3    0  502 -0.62560930075E+01  0.11952262098E+02  0.24624097667E+02  0.28077418950E+02  0.00000000000E+00 0.  1.
         13    1    5    5    0    0 -0.23584900526E+03  0.22355295512E+03 -0.26198377842E+03  0.41741607202E+03  0.00000000000E+00 0.  1.
        -13    1    5    5    0    0 -0.12789834419E+03  0.12242097001E+03 -0.64183360066E+02  0.18831989819E+03  0.00000000000E+00 0. -1.
          4    1    6    6  503    0  0.98714621075E+02 -0.67762698126E+02 -0.92844430395E+02  0.15151385391E+03  0.00000000000E+00 0. -1.
         -4    1    6    6    0  503  0.20751922686E+03 -0.18463315247E+03 -0.64273528763E+02  0.28510474744E+03  0.00000000000E+00 0.  1.
<mgrwt>
<rscale>  0 0.14108793E+04</rscale>
<asrwt>0</asrwt>
<pdfrwt beam="1">  1        2 0.98676724E-01 0.14108793E+04</pdfrwt>
<pdfrwt beam="2">  1       -1 0.11936536E+00 0.14108793E+04</pdfrwt>
<totfact> 0.31866113E+01</totfact>
</mgrwt>
</event>
<event>
12    7  0.1544987E-007  0.2125003E+04  0.7818608E-02  0.8550309E-01
         -1   -1    0    0    0  501 -0.00000000000E+00  0.00000000000E+00  0.22322189378E+04  0.22322189378E+04  0.00000000000E+00 0.  1.
          2   -1    0    0  501    0  0.00000000000E+00 -0.00000000000E+00 -0.50573416045E+03  0.50573416045E+03  0.00000000000E+00 0. -1.
         24    2    1    2    0    0 -0.18754160585E+03 -0.80728024073E+03  0.10477868960E+04  0.13382623017E+04  0.78837602449E+02 0.  0.
        254    2    1    2    0    0  0.18754160585E+03  0.80728024073E+03  0.67869788135E+03  0.13996907966E+04  0.90090525082E+03 0.  0.
         23    2    4    4    0    0 -0.89538358066E+02  0.38004536497E+03 -0.14522870314E+03  0.42685199969E+03  0.93057274944E+02 0.  0.
         23    2    4    4    0    0  0.27707996392E+03  0.42723487576E+03  0.82392658449E+03  0.97283879692E+03  0.90870031881E+02 0.  0.
          4    1    3    3  502    0 -0.18784349241E+03 -0.80884355550E+03  0.10427623591E+04  0.13329915275E+04  0.00000000000E+00 0. -1.
         -3    1    3    3    0  502  0.30188655877E+00  0.15633147634E+01  0.50245369724E+01  0.52707741680E+01  0.00000000000E+00 0.  1.
         13    1    5    5    0    0 -0.10883040811E+03  0.33415402663E+03 -0.13132176381E+03  0.37516446646E+03  0.00000000000E+00 0. -1.
        -13    1    5    5    0    0  0.19292050046E+02  0.45891338346E+02 -0.13906939328E+02  0.51687533233E+02  0.00000000000E+00 0.  1.
          1    1    6    6  503    0  0.24977108276E+03  0.32517125165E+03  0.68436598145E+03  0.79779617275E+03  0.00000000000E+00 0. -1.
         -1    1    6    6    0  503  0.27308881157E+02  0.10206362411E+03  0.13956060303E+03  0.17504262417E+03  0.00000000000E+00 0.  1.
<mgrwt>
<rscale>  0 0.21250029E+04</rscale>
<asrwt>0</asrwt>
<pdfrwt beam="1">  1        2 0.77805256E-01 0.21250029E+04</pdfrwt>
<pdfrwt beam="2">  1       -1 0.34341829E+00 0.21250029E+04</pdfrwt>
<totfact> 0.10975317E+00</totfact>
</mgrwt>
</event>
<event>
12    7  0.1544987E-007  0.2229725E+04  0.7818608E-02  0.8506157E-01
         -1   -1    0    0    0  501 -0.00000000000E+00  0.00000000000E+00  0.66882904716E+03  0.66882904716E+03  0.00000000000E+00 0.  1.
          2   -1    0    0  501    0  0.00000000000E+00 -0.00000000000E+00 -0.18583500874E+04  0.18583500874E+04  0.00000000000E+00 0. -1.
         24    2    1    2    0    0 -0.15836599346E+03  0.70847355708E+03  0.16111095157E+03  0.74787747172E+03  0.79683154029E+02 0.  0.
        254    2    1    2    0    0  0.15836599346E+03 -0.70847355708E+03 -0.13506319918E+04  0.17793016628E+04  0.90260349052E+03 0.  0.
         23    2    4    4    0    0  0.51807627325E+03 -0.45438937518E+03 -0.68652818526E+03  0.97703018534E+03  0.91620438371E+02 0.  0.
         23    2    4    4    0    0 -0.35971027979E+03 -0.25408418190E+03 -0.66410380657E+03  0.80227147751E+03  0.93034406808E+02 0.  0.
          2    1    3    3  502    0 -0.68356898313E+02  0.15336990682E+03  0.33355313143E+02  0.17119454075E+03  0.00000000000E+00 0. -1.
         -1    1    3    3    0  502 -0.90009095148E+02  0.55510365025E+03  0.12775563843E+03  0.57668293098E+03  0.00000000000E+00 0.  1.
         13    1    5    5    0    0 -0.17261994100E+01  0.80703585361E+00 -0.94686536102E+01  0.96584922458E+01  0.00000000000E+00 0. -1.
        -13    1    5    5    0    0  0.51980247266E+03 -0.45519641103E+03 -0.67705953165E+03  0.96737169309E+03  0.00000000000E+00 0.  1.
          3    1    6    6  503    0 -0.84697710198E+02 -0.59339844849E+02 -0.23434111649E+03  0.25614581429E+03  0.00000000000E+00 0. -1.
         -3    1    6    6    0  503 -0.27501256959E+03 -0.19474433705E+03 -0.42976269008E+03  0.54612566322E+03  0.00000000000E+00 0.  1.
<mgrwt>
<rscale>  0 0.22297251E+04</rscale>
<asrwt>0</asrwt>
<pdfrwt beam="1">  1        2 0.28590001E+00 0.22297251E+04</pdfrwt>
<pdfrwt beam="2">  1       -1 0.10289678E+00 0.22297251E+04</pdfrwt>
<totfact> 0.74181330E+00</totfact>
</mgrwt>
</event>
<event>
12    7  0.1544987E-007  0.1479008E+04  0.7818608E-02  0.8898533E-01
         -1   -1    0    0    0  501 -0.00000000000E+00  0.00000000000E+00  0.79255652381E+03  0.79255652381E+03  0.00000000000E+00 0.  1.
          2   -1    0    0  501    0  0.00000000000E+00 -0.00000000000E+00 -0.69000309139E+03  0.69000309139E+03  0.00000000000E+00 0. -1.
         24    2    1    2    0    0  0.36849042146E+03 -0.26825517616E+03  0.81882959889E+02  0.47009325988E+03  0.80850625335E+02 0.  0.
        254    2    1    2    0    0 -0.36849042146E+03  0.26825517616E+03  0.20670472538E+02  0.10124663553E+04  0.90383340389E+03 0.  0.
         23    2    4    4    0    0  0.19071502582E+03 -0.19871056141E+02 -0.24446966359E+03  0.32381233902E+03  0.91224637784E+02 0.  0.
         23    2    4    4    0    0 -0.55920544728E+03  0.28812623230E+03  0.26514013613E+03  0.68865401631E+03  0.90651003237E+02 0.  0.
          4    1    3    3  502    0  0.20884168117E+03 -0.15088863015E+03  0.86824524771E+02  0.27188366005E+03  0.00000000000E+00 0. -1.
         -3    1    3    3    0  502  0.15964874029E+03 -0.11736654601E+03 -0.49415648824E+01  0.19820959983E+03  0.00000000000E+00 0.  1.
         13    1    5    5    0    0  0.75471302738E+02 -0.52056967042E+02 -0.90617291749E+02  0.12890825776E+03  0.00000000000E+00 0. -1.
        -13    1    5    5    0    0  0.11524372308E+03  0.32185910901E+02 -0.15385237184E+03  0.19490408126E+03  0.00000000000E+00 0.  1.
          2    1    6    6  503    0 -0.25291091906E+03  0.13132985460E+03  0.71476109633E+02  0.29380316190E+03  0.00000000000E+00 0. -1.
         -2    1    6    6    0  503 -0.30629452822E+03  0.15679637770E+03  0.19366402649E+03  0.39485085441E+03  0.00000000000E+00 0.  1.
<mgrwt>
<rscale>  0 0.14790084E+04</rscale>
<asrwt>0</asrwt>
<pdfrwt beam="1">  1        2 0.10615432E+00 0.14790084E+04</pdfrwt>
<pdfrwt beam="2">  1       -1 0.12193177E+00 0.14790084E+04</pdfrwt>
<totfact> 0.27460362E+01</totfact>
</mgrwt>
</event>
<event>
12    7  0.1544987E-007  0.1707811E+04  0.7818608E-02  0.8756922E-01
          2   -1    0    0  501    0  0.00000000000E+00  0.00000000000E+00  0.18959888505E+04  0.18959888505E+04  0.00000000000E+00 0. -1.
         -3   -1    0    0    0  501 -0.00000000000E+00 -0.00000000000E+00 -0.38457768009E+03  0.38457768009E+03  0.00000000000E+00 0.  1.
         24    2    1    2    0    0 -0.39230843265E+03 -0.64813056248E+02 -0.81392819798E+02  0.41357716762E+03  0.79464733540E+02 0.  0.
        254    2    1    2    0    0  0.39230843265E+03  0.64813056248E+02  0.15928039902E+04  0.18669893630E+04  0.88911084327E+03 0.  0.
         23    2    4    4    0    0  0.41749361268E+03  0.31954624950E+03  0.14822027887E+04  0.15752972472E+04  0.90695027710E+02 0.  0.
         23    2    4    4    0    0 -0.25185180029E+02 -0.25473319326E+03  0.11060120150E+03  0.29169211575E+03  0.85605908528E+02 0.  0.
          2    1    3    3  502    0 -0.28593208052E+02 -0.26868662228E+02 -0.14441558591E+02  0.41809749714E+02  0.00000000000E+00 0. -1.
         -1    1    3    3    0  502 -0.36371522460E+03 -0.37944394020E+02 -0.66951261207E+02  0.37176741791E+03  0.00000000000E+00 0.  1.
         13    1    5    5    0    0  0.24938081993E+03  0.17132910402E+03  0.72441532222E+03  0.78506179012E+03  0.00000000000E+00 0.  1.
        -13    1    5    5    0    0  0.16811279275E+03  0.14821714548E+03  0.75778746650E+03  0.79023545712E+03  0.00000000000E+00 0. -1.
          2    1    6    6  503    0  0.23453493499E+02 -0.33463173459E+02  0.31962828090E+02  0.51879405498E+02  0.00000000000E+00 0. -1.
         -2    1    6    6    0  503 -0.48638673528E+02 -0.22127001980E+03  0.78638373413E+02  0.23981271025E+03  0.00000000000E+00 0.  1.
<mgrwt>
<rscale>  0 0.17078115E+04</rscale>
<asrwt>0</asrwt>
<pdfrwt beam="1">  1        2 0.29169059E+00 0.17078115E+04</pdfrwt>
<pdfrwt beam="2">  1       -3 0.59165798E-01 0.17078115E+04</pdfrwt>
<totfact> 0.13011665E+01</totfact>
</mgrwt>
</event>
<event>
12    7  0.1544987E-007  0.1780855E+04  0.7818608E-02  0.8716547E-01
         -1   -1    0    0    0  501 -0.00000000000E+00  0.00000000000E+00  0.68683976337E+03  0.68683976337E+03  0.00000000000E+00 0.  1.
          2   -1    0    0  501    0  0.00000000000E+00 -0.00000000000E+00 -0.11543608209E+04  0.11543608209E+04  0.00000000000E+00 0. -1.
         24    2    1    2    0    0  0.10697455824E+03  0.29115476635E+03 -0.77636068998E+03  0.83991023306E+03  0.80614046958E+02 0.  0.
        254    2    1    2    0    0 -0.10697455824E+03 -0.29115476635E+03  0.30883963245E+03  0.10012903512E+04  0.90054749724E+03 0.  0.
         23    2    4    4    0    0  0.37018568546E+03 -0.26086963074E+03  0.10658877061E+03  0.47427172966E+03  0.92098325573E+02 0.  0.
         23    2    4    4    0    0 -0.47716024370E+03 -0.30285135612E+02  0.20225086184E+03  0.52701862155E+03  0.90797184672E+02 0.  0.
          4    1    3    3  502    0  0.88302216450E+02  0.12483295897E+03 -0.35529737328E+03  0.38680327369E+03  0.00000000000E+00 0. -1.
         -3    1    3    3    0  502  0.18672341788E+02  0.16632180738E+03 -0.42106331670E+03  0.45310695937E+03  0.00000000000E+00 0.  1.
         13    1    5    5    0    0  0.22006536546E+03 -0.13330704788E+03  0.16984802483E+02  0.25785270525E+03  0.00000000000E+00 0. -1.
        -13    1    5    5    0    0  0.15012032000E+03 -0.12756258286E+03  0.89603968124E+02  0.21641902441E+03  0.00000000000E+00 0.  1.
          3    1    6    6  503    0 -0.16104888904E+03 -0.49032268374E+02  0.49754694416E+02  0.17554611252E+03  0.00000000000E+00 0. -1.
         -3    1    6    6    0  503 -0.31611135466E+03  0.18747132762E+02  0.15249616742E+03  0.35147250904E+03  0.00000000000E+00 0.  1.
<mgrwt>
<rscale>  0 0.17808548E+04</rscale>
<asrwt>0</asrwt>
<pdfrwt beam="1">  1        2 0.17759397E+00 0.17808548E+04</pdfrwt>
<pdfrwt beam="2">  1       -1 0.10566766E+00 0.17808548E+04</pdfrwt>
<totfact> 0.18254075E+01</totfact>
</mgrwt>
</event>
<event>
12    7  0.1544987E-007  0.3345393E+04  0.7818608E-02  0.8151440E-01
          2   -1    0    0  501    0  0.00000000000E+00  0.00000000000E+00  0.21542669656E+04  0.21542669656E+04  0.00000000000E+00 0. -1.
         -1   -1    0    0    0  501 -0.00000000000E+00 -0.00000000000E+00 -0.12987776152E+04  0.12987776152E+04  0.00000000000E+00 0.  1.
         24    2    1    2    0    0  0.23929793855E+03 -0.14774786598E+04  0.81834932415E+03  0.17076143351E+04  0.77745787287E+02 0.  0.
        254    2    1    2    0    0 -0.23929793855E+03  0.14774786598E+04  0.37140026285E+02  0.17454302457E+04  0.89718485691E+03 0.  0.
         23    2    4    4    0    0 -0.35546920503E+03  0.78225500788E+03  0.39443307630E+03  0.94985557469E+03  0.91470804095E+02 0.  0.
         23    2    4    4    0    0  0.11617126648E+03  0.69522365191E+03 -0.35729305002E+03  0.79557467100E+03  0.91918682595E+02 0.  0.
          4    1    3    3  502    0  0.21165165249E+03 -0.13661398903E+04  0.77589444919E+03  0.15852907677E+04  0.00000000000E+00 0. -1.
         -3    1    3    3    0  502  0.27646286060E+02 -0.11133876946E+03  0.42454874960E+02  0.12232356734E+03  0.00000000000E+00 0.  1.
         13    1    5    5    0    0 -0.27131956792E+02  0.10730473558E+03  0.77461989441E+02  0.13509555569E+03  0.00000000000E+00 0.  1.
        -13    1    5    5    0    0 -0.32833724824E+03  0.67495027230E+03  0.31697108686E+03  0.81476001900E+03  0.00000000000E+00 0. -1.
          3    1    6    6  503    0  0.55382368618E+02  0.26467657891E+03 -0.18615655612E+03  0.32829127549E+03  0.00000000000E+00 0. -1.
         -3    1    6    6    0  503  0.60788897864E+02  0.43054707300E+03 -0.17113649390E+03  0.46728339551E+03  0.00000000000E+00 0.  1.
<mgrwt>
<rscale>  0 0.33453931E+04</rscale>
<asrwt>0</asrwt>
<pdfrwt beam="1">  1        2 0.33142569E+00 0.33453931E+04</pdfrwt>
<pdfrwt beam="2">  1       -1 0.19981194E+00 0.33453931E+04</pdfrwt>
<totfact> 0.78254984E-01</totfact>
</mgrwt>
</event>
<event>
12    7  0.1544987E-007  0.2147660E+04  0.7818608E-02  0.8540534E-01
         -1   -1    0    0    0  501 -0.00000000000E+00  0.00000000000E+00  0.91776939757E+03  0.91776939757E+03  0.00000000000E+00 0.  1.
          2   -1    0    0  501    0  0.00000000000E+00 -0.00000000000E+00 -0.12564281758E+04  0.12564281758E+04  0.00000000000E+00 0. -1.
         24    2    1    2    0    0  0.15431582425E+03 -0.79723788682E+03 -0.48057554396E+03  0.94698429936E+03  0.80154775249E+02 0.  0.
        254    2    1    2    0    0 -0.15431582425E+03  0.79723788682E+03  0.14191676578E+03  0.12272132740E+04  0.90912619015E+03 0.  0.
         23    2    4    4    0    0 -0.18814048851E+03  0.44192815640E+03  0.50973666229E+03  0.70671371949E+03  0.94421806772E+02 0.  0.
         23    2    4    4    0    0  0.33824664255E+02  0.35530973041E+03 -0.36781989651E+03  0.52049955448E+03  0.90770025394E+02 0.  0.
          2    1    3    3  502    0  0.13092988330E+03 -0.74269159973E+03 -0.46364531703E+03  0.88526856188E+03  0.00000000000E+00 0. -1.
         -1    1    3    3    0  502  0.23385940948E+02 -0.54546287088E+02 -0.16930226932E+02  0.61715737483E+02  0.00000000000E+00 0.  1.
         13    1    5    5    0    0 -0.93885513118E+02  0.32640231837E+03  0.33569328093E+03  0.47753841926E+03  0.00000000000E+00 0. -1.
        -13    1    5    5    0    0 -0.94254975388E+02  0.11552583803E+03  0.17404338136E+03  0.22917530022E+03  0.00000000000E+00 0.  1.
          4    1    6    6  503    0 -0.50277946070E+01  0.12234319204E+03 -0.72315873317E+02  0.14220661338E+03  0.00000000000E+00 0.  1.
         -4    1    6    6    0  503  0.38852458862E+02  0.23296653838E+03 -0.29550402319E+03  0.37829294110E+03  0.00000000000E+00 0. -1.
<mgrwt>
<rscale>  0 0.21476604E+04</rscale>
<asrwt>0</asrwt>
<pdfrwt beam="1">  1        2 0.19329664E+00 0.21476604E+04</pdfrwt>
<pdfrwt beam="2">  1       -1 0.14119529E+00 0.21476604E+04</pdfrwt>
<totfact> 0.75212393E+00</totfact>
</mgrwt>
</event>
<event>
12    7  0.1544987E-007  0.2612412E+04  0.7818608E-02  0.8363997E-01
         -1   -1    0    0    0  501 -0.00000000000E+00  0.00000000000E+00  0.81247169026E+03  0.81247169026E+03  0.00000000000E+00 0.  1.
          2   -1    0    0  501    0  0.00000000000E+00 -0.00000000000E+00 -0.20999793766E+04  0.20999793766E+04  0.00000000000E+00 0. -1.
         24    2    1    2    0    0  0.32777409377E+03  0.70516605547E+03 -0.14983666187E+04  0.16898381654E+04  0.75864872559E+02 0.  0.
        254    2    1    2    0    0 -0.32777409377E+03 -0.70516605547E+03  0.21085893237E+03  0.12226129015E+04  0.91957914022E+03 0.  0.
         23    2    4    4    0    0 -0.43427042060E+03 -0.77700963308E+03 -0.72687784607E+02  0.89768127151E+03  0.90627716986E+02 0.  0.
         23    2    4    4    0    0  0.10649632683E+03  0.71843577614E+02  0.28354671698E+03  0.32493162995E+03  0.93160378685E+02 0.  0.
          4    1    3    3  502    0  0.27848407600E+03  0.61430407218E+03 -0.13486091665E+04  0.15078692110E+04  0.00000000000E+00 0. -1.
         -3    1    3    3    0  502  0.49290017766E+02  0.90861983294E+02 -0.14975745228E+03  0.18196895442E+03  0.00000000000E+00 0.  1.
         13    1    5    5    0    0 -0.24301495727E+03 -0.38716918552E+03  0.17396859386E+01  0.45712063416E+03  0.00000000000E+00 0.  1.
        -13    1    5    5    0    0 -0.19125546333E+03 -0.38984044756E+03 -0.74427470546E+02  0.44056063735E+03  0.00000000000E+00 0. -1.
          3    1    6    6  503    0  0.91657910885E+02  0.40416896936E+02  0.26937794617E+03  0.28740072385E+03  0.00000000000E+00 0.  1.
         -3    1    6    6    0  503  0.14838415947E+02  0.31426680678E+02  0.14168770809E+02  0.37530906097E+02  0.00000000000E+00 0. -1.
<mgrwt>
<rscale>  0 0.26124118E+04</rscale>
<asrwt>0</asrwt>
<pdfrwt beam="1">  1        2 0.32307375E+00 0.26124118E+04</pdfrwt>
<pdfrwt beam="2">  1       -1 0.12499565E+00 0.26124118E+04</pdfrwt>
<totfact> 0.33056502E+00</totfact>
</mgrwt>
</event>
<event>
12    7  0.1544987E-007  0.2336894E+04  0.7818608E-02  0.8463515E-01
          2   -1    0    0  501    0  0.00000000000E+00  0.00000000000E+00  0.23256114125E+04  0.23256114125E+04  0.00000000000E+00 0. -1.
         -1   -1    0    0    0  501 -0.00000000000E+00 -0.00000000000E+00 -0.58705794240E+03  0.58705794240E+03  0.00000000000E+00 0.  1.
         24    2    1    2    0    0 -0.63732955553E+03 -0.17378762859E+03  0.16616534684E+04  0.17898799753E+04  0.78657324050E+02 0.  0.
        254    2    1    2    0    0  0.63732955553E+03  0.17378762859E+03  0.76900001720E+02  0.11227893796E+04  0.90462770164E+03 0.  0.
         23    2    4    4    0    0  0.76812701568E+03  0.27812326319E+03 -0.13986630854E+03  0.83371868652E+03  0.90291761809E+02 0.  0.
         23    2    4    4    0    0 -0.13079746015E+03 -0.10433563459E+03  0.21676631026E+03  0.28907069313E+03  0.92630082212E+02 0.  0.
          4    1    3    3  502    0 -0.46192495835E+03 -0.13630052934E+03  0.12962064670E+04  0.13827883809E+04  0.00000000000E+00 0. -1.
         -3    1    3    3    0  502 -0.17540459718E+03 -0.37487099251E+02  0.36544700145E+03  0.40709159434E+03  0.00000000000E+00 0.  1.
         13    1    5    5    0    0  0.12173854588E+03  0.10164885507E+02 -0.19167168110E+02  0.12365669729E+03  0.00000000000E+00 0.  1.
        -13    1    5    5    0    0  0.64638846980E+03  0.26795837768E+03 -0.12069914043E+03  0.71006198923E+03  0.00000000000E+00 0. -1.
          4    1    6    6  503    0 -0.69250673010E+02 -0.73004264692E+02  0.19000354814E+03  0.21500378294E+03  0.00000000000E+00 0. -1.
         -4    1    6    6    0  503 -0.61546787140E+02 -0.31331369903E+02  0.26762762128E+02  0.74066910183E+02  0.00000000000E+00 0.  1.
<mgrwt>
<rscale>  0 0.23368942E+04</rscale>
<asrwt>0</asrwt>
<pdfrwt beam="1">  1        2 0.35778637E+00 0.23368942E+04</pdfrwt>
<pdfrwt beam="2">  1       -1 0.90316608E-01 0.23368942E+04</pdfrwt>
<totfact> 0.54034759E+00</totfact>
</mgrwt>
</event>
<event>
12    7  0.1544987E-007  0.1693437E+04  0.7818608E-02  0.8765116E-01
         -1   -1    0    0    0  501 -0.00000000000E+00  0.00000000000E+00  0.11167584380E+04  0.11167584380E+04  0.00000000000E+00 0.  1.
          2   -1    0    0  501    0  0.00000000000E+00 -0.00000000000E+00 -0.64197630103E+03  0.64197630103E+03  0.00000000000E+00 0. -1.
         24    2    1    2    0    0 -0.22653755816E+03 -0.25410771546E+02  0.75747472938E+03  0.79551045979E+03  0.84284953671E+02 0.  0.
        254    2    1    2    0    0  0.22653755816E+03  0.25410771546E+02 -0.28269259237E+03  0.96322427928E+03  0.89214401183E+03 0.  0.
         23    2    4    4    0    0 -0.17844085645E+03  0.27451098793E+03 -0.33539604740E+03  0.47758297001E+03  0.91638217369E+02 0.  0.
         23    2    4    4    0    0  0.40497841461E+03 -0.24910021638E+03  0.52703455029E+02  0.48564130927E+03  0.83734061157E+02 0.  0.
          2    1    3    3  502    0 -0.66483338754E+01  0.16713502600E+02  0.38740908433E+02  0.42712989812E+02  0.00000000000E+00 0. -1.
         -1    1    3    3    0  502 -0.21988922428E+03 -0.42124274147E+02  0.71873382095E+03  0.75279746998E+03  0.00000000000E+00 0.  1.
         13    1    5    5    0    0 -0.10468680274E+03  0.87295497388E+02 -0.16408896934E+03  0.21331905773E+03  0.00000000000E+00 0. -1.
        -13    1    5    5    0    0 -0.73754053712E+02  0.18721549054E+03 -0.17130707806E+03  0.26426391228E+03  0.00000000000E+00 0.  1.
          1    1    6    6  503    0  0.12000332078E+03 -0.61789996969E+02  0.51920310176E+02  0.14461853039E+03  0.00000000000E+00 0. -1.
         -1    1    6    6    0  503  0.28497509382E+03 -0.18731021942E+03  0.78314485356E+00  0.34102277888E+03  0.00000000000E+00 0.  1.
<mgrwt>
<rscale>  0 0.16934373E+04</rscale>
<asrwt>0</asrwt>
<pdfrwt beam="1">  1        2 0.98765585E-01 0.16934373E+04</pdfrwt>
<pdfrwt beam="2">  1       -1 0.17180899E+00 0.16934373E+04</pdfrwt>
<totfact> 0.11848592E+01</totfact>
</mgrwt>
</event>
<event>
12    7  0.1544987E-007  0.2369721E+04  0.7818608E-02  0.8450927E-01
          2   -1    0    0  501    0  0.00000000000E+00  0.00000000000E+00  0.53054714489E+04  0.53054714489E+04  0.00000000000E+00 0. -1.
         -1   -1    0    0    0  501 -0.00000000000E+00 -0.00000000000E+00 -0.26461255051E+03  0.26461255051E+03  0.00000000000E+00 0.  1.
         24    2    1    2    0    0  0.74844688299E+03  0.18979920721E+03  0.36729743460E+04  0.37541304854E+04  0.80985672606E+02 0.  0.
        254    2    1    2    0    0 -0.74844688299E+03 -0.18979920721E+03  0.13678845523E+04  0.18159535140E+04  0.91125328022E+03 0.  0.
         23    2    4    4    0    0 -0.60461006930E+03  0.25319228726E+03  0.10626352846E+04  0.12517294674E+04  0.89293008137E+02 0.  0.
         23    2    4    4    0    0 -0.14383681368E+03 -0.44299149447E+03  0.30524926774E+03  0.56422404657E+03  0.90780868714E+02 0.  0.
          2    1    3    3  502    0  0.52979561983E+03  0.96822652091E+02  0.25085486630E+04  0.25657112892E+04  0.00000000000E+00 0. -1.
         -1    1    3    3    0  502  0.21865126316E+03  0.92976555116E+02  0.11644256830E+04  0.11884191962E+04  0.00000000000E+00 0.  1.
         13    1    5    5    0    0 -0.59836154498E+03  0.24545639497E+03  0.10185470107E+04  0.12065336271E+04  0.00000000000E+00 0. -1.
        -13    1    5    5    0    0 -0.62485243243E+01  0.77358922911E+01  0.44088273915E+02  0.45195840324E+02  0.00000000000E+00 0.  1.
          1    1    6    6  503    0 -0.74631407230E+02 -0.20430136762E+03  0.89796067315E+02  0.23531304567E+03  0.00000000000E+00 0. -1.
         -1    1    6    6    0  503 -0.69205406455E+02 -0.23869012685E+03  0.21545320043E+03  0.32891100090E+03  0.00000000000E+00 0.  1.
<mgrwt>
<rscale>  0 0.23697209E+04</rscale>
<asrwt>0</asrwt>
<pdfrwt beam="1">  1        2 0.81622630E+00 0.23697209E+04</pdfrwt>
<pdfrwt beam="2">  1       -1 0.40709627E-01 0.23697209E+04</pdfrwt>
<totfact> 0.78730766E-02</totfact>
</mgrwt>
</event>
<event>
12    7  0.1544987E-007  0.1353048E+04  0.7818608E-02  0.8988524E-01
          2   -1    0    0  501    0  0.00000000000E+00  0.00000000000E+00  0.45396208939E+03  0.45396208939E+03  0.00000000000E+00 0. -1.
         -1   -1    0    0    0  501 -0.00000000000E+00 -0.00000000000E+00 -0.10081999081E+04  0.10081999081E+04  0.00000000000E+00 0.  1.
         24    2    1    2    0    0 -0.72523361899E+02  0.27856419196E+02 -0.39845349753E+03  0.41366424403E+03  0.79481438010E+02 0.  0.
        254    2    1    2    0    0  0.72523361899E+02 -0.27856419196E+02 -0.15578432116E+03  0.10484977534E+04  0.10339454367E+04 0.  0.
         23    2    4    4    0    0 -0.26375826908E+03  0.39856045244E+03 -0.65147427573E+02  0.49042627271E+03  0.88627777165E+02 0.  0.
         23    2    4    4    0    0  0.33628163098E+03 -0.42641687163E+03 -0.90636893588E+02  0.55807148072E+03  0.91170430343E+02 0.  0.
          2    1    3    3  502    0 -0.28025542120E+02  0.22904482554E+02 -0.46756390948E+02  0.59128727592E+02  0.00000000000E+00 0. -1.
         -1    1    3    3    0  502 -0.44497819778E+02  0.49519366422E+01 -0.35169710658E+03  0.35453551644E+03  0.00000000000E+00 0.  1.
         13    1    5    5    0    0 -0.16514368577E+03  0.27048836180E+03 -0.20937357899E+01  0.31692392548E+03  0.00000000000E+00 0. -1.
        -13    1    5    5    0    0 -0.98614583315E+02  0.12807209064E+03 -0.63053691783E+02  0.17350234722E+03  0.00000000000E+00 0.  1.
          2    1    6    6  503    0  0.11006158588E+03 -0.11898142199E+03  0.12867132964E+02  0.16259057345E+03  0.00000000000E+00 0.  1.
         -2    1    6    6    0  503  0.22622004510E+03 -0.30743544964E+03 -0.10350402655E+03  0.39548090727E+03  0.00000000000E+00 0. -1.
<mgrwt>
<rscale>  0 0.13530477E+04</rscale>
<asrwt>0</asrwt>
<pdfrwt beam="1">  1        2 0.69840321E-01 0.13530477E+04</pdfrwt>
<pdfrwt beam="2">  1       -1 0.15510768E+00 0.13530477E+04</pdfrwt>
<totfact> 0.24498345E+01</totfact>
</mgrwt>
</event>
<event>
12    7  0.1544987E-007  0.1541424E+04  0.7818608E-02  0.8857364E-01
          2   -1    0    0  501    0  0.00000000000E+00  0.00000000000E+00  0.70490985876E+03  0.70490985876E+03  0.00000000000E+00 0. -1.
         -1   -1    0    0    0  501 -0.00000000000E+00 -0.00000000000E+00 -0.84265681071E+03  0.84265681071E+03  0.00000000000E+00 0.  1.
         24    2    1    2    0    0  0.35340926100E+03  0.20048409864E+03  0.25064251904E+03  0.48409506597E+03  0.80214593292E+02 0.  0.
        254    2    1    2    0    0 -0.35340926100E+03 -0.20048409864E+03 -0.38838947099E+03  0.10634716035E+04  0.90279205286E+03 0.  0.
         23    2    4    4    0    0  0.40515388568E+02 -0.31847362396E+03  0.16123315061E+03  0.37110898847E+03  0.93052708701E+02 0.  0.
         23    2    4    4    0    0 -0.39392464957E+03  0.11798952531E+03 -0.54962262161E+03  0.69236261503E+03  0.90458868535E+02 0.  0.
          4    1    3    3  502    0  0.32989953527E+03  0.15947324769E+03  0.22908163558E+03  0.43213865351E+03  0.00000000000E+00 0. -1.
         -3    1    3    3    0  502  0.23509725724E+02  0.41010850953E+02  0.21560883467E+02  0.51956412456E+02  0.00000000000E+00 0.  1.
         13    1    5    5    0    0  0.66943863649E+02 -0.15767782834E+03  0.82294797895E+02  0.19004265887E+03  0.00000000000E+00 0.  1.
        -13    1    5    5    0    0 -0.26428475081E+02 -0.16079579562E+03  0.78938352718E+02  0.18106632959E+03  0.00000000000E+00 0. -1.
          4    1    6    6  503    0 -0.12660968932E+03  0.82517597297E+02 -0.20923318232E+03  0.25810403305E+03  0.00000000000E+00 0. -1.
         -4    1    6    6    0  503 -0.26731496025E+03  0.35471928017E+02 -0.34038943928E+03  0.43425858198E+03  0.00000000000E+00 0.  1.
<mgrwt>
<rscale>  0 0.15414241E+04</rscale>
<asrwt>0</asrwt>
<pdfrwt beam="1">  1        2 0.10844767E+00 0.15414241E+04</pdfrwt>
<pdfrwt beam="2">  1       -1 0.12963951E+00 0.15414241E+04</pdfrwt>
<totfact> 0.22821517E+01</totfact>
</mgrwt>
</event>
<event>
12    7  0.1544987E-007  0.1118495E+04  0.7818608E-02  0.9187351E-01
         -1   -1    0    0    0  501 -0.00000000000E+00  0.00000000000E+00  0.78381779825E+03  0.78381779825E+03  0.00000000000E+00 0.  1.
          2   -1    0    0  501    0  0.00000000000E+00 -0.00000000000E+00 -0.39901817870E+03  0.39901817870E+03  0.00000000000E+00 0. -1.
         24    2    1    2    0    0  0.32687074559E+02  0.17541424643E+03  0.58400671248E+01  0.19532764859E+03  0.79247594458E+02 0.  0.
        254    2    1    2    0    0 -0.32687074559E+02 -0.17541424643E+03  0.37895955242E+03  0.98750832836E+03  0.89427275119E+03 0.  0.
         23    2    4    4    0    0  0.20422948344E+02 -0.27165603950E+03  0.63411631605E+03  0.69620465910E+03  0.91560496151E+02 0.  0.
         23    2    4    4    0    0 -0.53110022903E+02  0.96241793073E+02 -0.25515676362E+03  0.29130366927E+03  0.87576803092E+02 0.  0.
          4    1    3    3  502    0  0.41212852242E+02  0.14733391701E+03 -0.22376047745E+02  0.15461717176E+03  0.00000000000E+00 0. -1.
         -1    1    3    3    0  502 -0.85257776832E+01  0.28080329419E+02  0.28216114870E+02  0.40710476830E+02  0.00000000000E+00 0.  1.
         13    1    5    5    0    0  0.29430379468E+02 -0.14840282862E+03  0.24513425024E+03  0.28806309625E+03  0.00000000000E+00 0.  1.
        -13    1    5    5    0    0 -0.90074311238E+01 -0.12325321088E+03  0.38898206581E+03  0.40814156285E+03  0.00000000000E+00 0. -1.
          3    1    6    6  503    0  0.55246558921E+01 -0.55619868321E+00  0.50787077909E+01  0.75249220944E+01  0.00000000000E+00 0. -1.
         -3    1    6    6    0  503 -0.58634678795E+02  0.96797991757E+02 -0.26023547141E+03  0.28377874717E+03  0.00000000000E+00 0.  1.
<mgrwt>
<rscale>  0 0.11184946E+04</rscale>
<asrwt>0</asrwt>
<pdfrwt beam="1">  1        2 0.61387412E-01 0.11184946E+04</pdfrwt>
<pdfrwt beam="2">  1       -1 0.12058735E+00 0.11184946E+04</pdfrwt>
<totfact> 0.55393891E+01</totfact>
</mgrwt>
</event>
<event>
12    7  0.1544987E-007  0.1983885E+04  0.7818608E-02  0.8614192E-01
         -1   -1    0    0    0  501 -0.00000000000E+00  0.00000000000E+00  0.12219981540E+04  0.12219981540E+04  0.00000000000E+00 0.  1.
          2   -1    0    0  501    0  0.00000000000E+00 -0.00000000000E+00 -0.80519730748E+03  0.80519730748E+03  0.00000000000E+00 0. -1.
         24    2    1    2    0    0  0.24508125494E+03 -0.65691919789E+03 -0.17318140215E+03  0.72670197739E+03  0.80599701033E+02 0.  0.
        254    2    1    2    0    0 -0.24508125494E+03  0.65691919789E+03  0.58998224866E+03  0.13004934841E+04  0.92281991435E+03 0.  0.
         23    2    4    4    0    0 -0.15845621223E+03 -0.17552162551E+03  0.33586937855E+03  0.42082962993E+03  0.91504785477E+02 0.  0.
         23    2    4    4    0    0 -0.86625042713E+02  0.83244082340E+03  0.25411287011E+03  0.87966385415E+03  0.93667086336E+02 0.  0.
          4    1    3    3  502    0  0.24890646309E+03 -0.62405127883E+03 -0.15744238345E+03  0.69005980182E+03  0.00000000000E+00 0. -1.
         -3    1    3    3    0  502 -0.38252081506E+01 -0.32867919061E+02 -0.15739018703E+02  0.36642175570E+02  0.00000000000E+00 0.  1.
         13    1    5    5    0    0 -0.13185969753E+03 -0.96747264376E+02  0.17362282593E+03  0.23852022698E+03  0.00000000000E+00 0. -1.
        -13    1    5    5    0    0 -0.26596514702E+02 -0.78774361131E+02  0.16224655262E+03  0.18230940295E+03  0.00000000000E+00 0.  1.
          1    1    6    6  503    0 -0.57595224858E+02  0.61962956664E+03  0.23037415305E+03  0.66357385435E+03  0.00000000000E+00 0. -1.
         -1    1    6    6    0  503 -0.29029817855E+02  0.21281125676E+03  0.23738717058E+02  0.21608999981E+03  0.00000000000E+00 0.  1.
<mgrwt>
<rscale>  0 0.19838847E+04</rscale>
<asrwt>0</asrwt>
<pdfrwt beam="1">  1        2 0.12387651E+00 0.19838847E+04</pdfrwt>
<pdfrwt beam="2">  1       -1 0.18799972E+00 0.19838847E+04</pdfrwt>
<totfact> 0.66170825E+00</totfact>
</mgrwt>
</event>
<event>
12    7  0.1544987E-007  0.1601806E+04  0.7818608E-02  0.8819439E-01
         -1   -1    0    0    0  501 -0.00000000000E+00  0.00000000000E+00  0.22654085365E+03  0.22654085365E+03  0.00000000000E+00 0.  1.
          2   -1    0    0  501    0  0.00000000000E+00 -0.00000000000E+00 -0.28314801222E+04  0.28314801222E+04  0.00000000000E+00 0. -1.
         24    2    1    2    0    0 -0.31720610964E+03 -0.22579107780E+03 -0.17021133999E+03  0.43221614212E+03  0.78978265639E+02 0.  0.
        254    2    1    2    0    0  0.31720610964E+03  0.22579107780E+03 -0.24347279285E+04  0.26258048337E+04  0.90296711565E+03 0.  0.
         23    2    4    4    0    0  0.32115608820E+03  0.26922204173E+03 -0.39864670046E+03  0.58726502549E+03  0.10168223852E+03 0.  0.
         23    2    4    4    0    0 -0.39499785661E+01 -0.43430963933E+02 -0.20360812281E+04  0.20385398082E+04  0.90088464440E+02 0.  0.
          4    1    3    3  502    0 -0.58282788129E+02 -0.22488309144E+02 -0.55613982896E+02  0.83639240394E+02  0.00000000000E+00 0. -1.
         -3    1    3    3    0  502 -0.25892332151E+03 -0.20330276866E+03 -0.11459735709E+03  0.34857690173E+03  0.00000000000E+00 0.  1.
         13    1    5    5    0    0  0.61757657684E+02  0.40190537861E+02 -0.12904109450E+03  0.14859640536E+03  0.00000000000E+00 0. -1.
        -13    1    5    5    0    0  0.25939843052E+03  0.22903150387E+03 -0.26960560596E+03  0.43866862013E+03  0.00000000000E+00 0.  1.
          2    1    6    6  503    0  0.26539788108E+02  0.48873667847E+01 -0.23364453452E+03  0.23519782145E+03  0.00000000000E+00 0. -1.
         -2    1    6    6    0  503 -0.30489766674E+02 -0.48318330718E+02 -0.18024366935E+04  0.18033419867E+04  0.00000000000E+00 0.  1.
<mgrwt>
<rscale>  0 0.16018064E+04</rscale>
<asrwt>0</asrwt>
<pdfrwt beam="1">  1        2 0.43561235E+00 0.16018064E+04</pdfrwt>
<pdfrwt beam="2">  1       -1 0.34852437E-01 0.16018064E+04</pdfrwt>
<totfact> 0.18974347E+01</totfact>
</mgrwt>
</event>
<event>
12    7  0.1544987E-007  0.2765156E+04  0.7818608E-02  0.8314168E-01
          2   -1    0    0  501    0  0.00000000000E+00  0.00000000000E+00  0.22811873647E+04  0.22811873647E+04  0.00000000000E+00 0. -1.
         -1   -1    0    0    0  501 -0.00000000000E+00 -0.00000000000E+00 -0.83795048430E+03  0.83795048430E+03  0.00000000000E+00 0.  1.
         24    2    1    2    0    0  0.74260364061E+03 -0.48712326451E+03  0.16030451751E+04  0.18343067188E+04  0.78600656633E+02 0.  0.
        254    2    1    2    0    0 -0.74260364061E+03  0.48712326451E+03 -0.15980829471E+03  0.12848311302E+04  0.91460543420E+03 0.  0.
         23    2    4    4    0    0 -0.58876810160E+02  0.44431630110E+03  0.20786868898E+03  0.50218468493E+03  0.89981174313E+02 0.  0.
         23    2    4    4    0    0 -0.68372683045E+03  0.42806963410E+02 -0.36767698369E+03  0.78264644529E+03  0.89634140780E+02 0.  0.
          2    1    3    3  502    0  0.33050997761E+03 -0.25133615354E+03  0.69349099331E+03  0.80829231419E+03  0.00000000000E+00 0. -1.
         -1    1    3    3    0  502  0.41209366301E+03 -0.23578711097E+03  0.90955418182E+03  0.10260144046E+04  0.00000000000E+00 0.  1.
         13    1    5    5    0    0 -0.78532099295E+02  0.25574829839E+03  0.11935880255E+03  0.29295222562E+03  0.00000000000E+00 0.  1.
        -13    1    5    5    0    0  0.19655289135E+02  0.18856800271E+03  0.88509886428E+02  0.20923245932E+03  0.00000000000E+00 0. -1.
          1    1    6    6  503    0 -0.11383681237E+03  0.22361386256E+02 -0.29683481932E+02  0.11974957431E+03  0.00000000000E+00 0. -1.
         -1    1    6    6    0  503 -0.56989001808E+03  0.20445577154E+02 -0.33799350176E+03  0.66289687099E+03  0.00000000000E+00 0.  1.
<mgrwt>
<rscale>  0 0.27651561E+04</rscale>
<asrwt>0</asrwt>
<pdfrwt beam="1">  1        2 0.35095190E+00 0.27651561E+04</pdfrwt>
<pdfrwt beam="2">  1       -1 0.12891546E+00 0.27651561E+04</pdfrwt>
<totfact> 0.23879731E+00</totfact>
</mgrwt>
</event>
<event>
12    7  0.1544987E-007  0.1058612E+04  0.7818608E-02  0.9246498E-01
          2   -1    0    0  501    0  0.00000000000E+00  0.00000000000E+00  0.15372659887E+04  0.15372659887E+04  0.00000000000E+00 0. -1.
         -1   -1    0    0    0  501 -0.00000000000E+00 -0.00000000000E+00 -0.18224876093E+03  0.18224876093E+03  0.00000000000E+00 0.  1.
         24    2    1    2    0    0  0.49025318453E+02 -0.12264053124E+03  0.27779892295E+03  0.31798108885E+03  0.80594972053E+02 0.  0.
        254    2    1    2    0    0 -0.49025318453E+02  0.12264053124E+03  0.10772183049E+04  0.14015336608E+04  0.88682193497E+03 0.  0.
         23    2    4    4    0    0  0.31080102051E+03  0.30098506252E+03  0.77101072199E+03  0.88900208702E+03  0.93155220465E+02 0.  0.
         23    2    4    4    0    0 -0.35982633897E+03 -0.17834453128E+03  0.30620758287E+03  0.51253157380E+03  0.87428623928E+02 0.  0.
          4    1    3    3  502    0  0.52979372326E+02 -0.13243390353E+03  0.24469776240E+03  0.28323585158E+03  0.00000000000E+00 0. -1.
         -3    1    3    3    0  502 -0.39540538729E+01  0.97933722938E+01  0.33101160557E+02  0.34745237272E+02  0.00000000000E+00 0.  1.
         13    1    5    5    0    0  0.26252058924E+03  0.21019428450E+03  0.63426822813E+03  0.71791007948E+03  0.00000000000E+00 0. -1.
        -13    1    5    5    0    0  0.48280431274E+02  0.90790778017E+02  0.13674249386E+03  0.17109200754E+03  0.00000000000E+00 0.  1.
          2    1    6    6  503    0 -0.24250241638E+03 -0.14029184681E+03  0.25551642666E+03  0.37918052234E+03  0.00000000000E+00 0. -1.
         -2    1    6    6    0  503 -0.11732392258E+03 -0.38052684472E+02  0.50691156207E+02  0.13335105145E+03  0.00000000000E+00 0.  1.
<mgrwt>
<rscale>  0 0.10586120E+04</rscale>
<asrwt>0</asrwt>
<pdfrwt beam="1">  1        2 0.23650245E+00 0.10586120E+04</pdfrwt>
<pdfrwt beam="2">  1       -1 0.28038272E-01 0.10586120E+04</pdfrwt>
<totfact> 0.15741036E+02</totfact>
</mgrwt>
</event>
<event>
12    7  0.1544987E-007  0.1078006E+04  0.7818608E-02  0.9226898E-01
         -1   -1    0    0    0  501 -0.00000000000E+00  0.00000000000E+00  0.66412214969E+03  0.66412214969E+03  0.00000000000E+00 0.  1.
          2   -1    0    0  501    0  0.00000000000E+00 -0.00000000000E+00 -0.43745596540E+03  0.43745596540E+03  0.00000000000E+00 0. -1.
         24    2    1    2    0    0 -0.45903819155E+02  0.30726919617E+02 -0.10709002504E+03  0.14570160869E+03  0.81910811909E+02 0.  0.
        254    2    1    2    0    0  0.45903819155E+02 -0.30726919617E+02  0.33375620933E+03  0.95587650640E+03  0.89401084111E+03 0.  0.
         23    2    4    4    0    0  0.32328373848E+03 -0.22999345336E+03 -0.78865870713E+02  0.41412420091E+03  0.88711127016E+02 0.  0.
         23    2    4    4    0    0 -0.27737991933E+03  0.19926653375E+03  0.41262208005E+03  0.54175230549E+03  0.81189952849E+02 0.  0.
          4    1    3    3  502    0 -0.17780415188E+02  0.27275192821E+02 -0.11227154026E+03  0.11689729706E+03  0.00000000000E+00 0. -1.
         -3    1    3    3    0  502 -0.28123403967E+02  0.34517267953E+01  0.51815152113E+01  0.28804311630E+02  0.00000000000E+00 0.  1.
         13    1    5    5    0    0  0.25534209287E+03 -0.17405236283E+03 -0.97750374332E+02  0.32411255002E+03  0.00000000000E+00 0. -1.
        -13    1    5    5    0    0  0.67941645617E+02 -0.55941090538E+02  0.18884503619E+02  0.90011650894E+02  0.00000000000E+00 0.  1.
          2    1    6    6  503    0 -0.14195745768E+03  0.55980255431E+02  0.15710472382E+03  0.21901507490E+03  0.00000000000E+00 0. -1.
         -2    1    6    6    0  503 -0.13542246165E+03  0.14328627832E+03  0.25551735623E+03  0.32273723059E+03  0.00000000000E+00 0.  1.
<mgrwt>
<rscale>  0 0.10780059E+04</rscale>
<asrwt>0</asrwt>
<pdfrwt beam="1">  1        2 0.67300917E-01 0.10780059E+04</pdfrwt>
<pdfrwt beam="2">  1       -1 0.10217264E+00 0.10780059E+04</pdfrwt>
<totfact> 0.74161506E+01</totfact>
</mgrwt>
</event>
<event>
12    7  0.1544987E-007  0.2066070E+04  0.7818608E-02  0.8576339E-01
         -1   -1    0    0    0  501 -0.00000000000E+00  0.00000000000E+00  0.59436103651E+03  0.59436103651E+03  0.00000000000E+00 0.  1.
          2   -1    0    0  501    0  0.00000000000E+00 -0.00000000000E+00 -0.17954769417E+04  0.17954769417E+04  0.00000000000E+00 0. -1.
         24    2    1    2    0    0 -0.49328261712E+03  0.67320130121E+03 -0.41904096192E+03  0.93739125098E+03  0.81112867851E+02 0.  0.
        254    2    1    2    0    0  0.49328261712E+03 -0.67320130121E+03 -0.78207494326E+03  0.14524467272E+04  0.89522765053E+03 0.  0.
         23    2    4    4    0    0  0.16189961572E+03 -0.51086289705E+03  0.42239677619E+02  0.54532514119E+03  0.91667519308E+02 0.  0.
         23    2    4    4    0    0  0.33138300140E+03 -0.16233840416E+03 -0.82431462088E+03  0.90712158604E+03  0.84891263316E+02 0.  0.
          4    1    3    3  502    0 -0.22747893284E+02  0.42633053395E+02 -0.57355720371E+01  0.48661490701E+02  0.00000000000E+00 0. -1.
         -3    1    3    3    0  502 -0.47053472384E+03  0.63056824782E+03 -0.41330538988E+03  0.88872976027E+03  0.00000000000E+00 0.  1.
         13    1    5    5    0    0  0.18547650703E+02 -0.10386066170E+03 -0.25472100388E+02  0.10853515694E+03  0.00000000000E+00 0.  1.
        -13    1    5    5    0    0  0.14335196502E+03 -0.40700223535E+03  0.67711778007E+02  0.43678998425E+03  0.00000000000E+00 0. -1.
          1    1    6    6  503    0  0.19767749873E+03 -0.11368330297E+03 -0.41128951301E+03  0.47027582374E+03  0.00000000000E+00 0. -1.
         -1    1    6    6    0  503  0.13370550267E+03 -0.48655101196E+02 -0.41302510787E+03  0.43684576231E+03  0.00000000000E+00 0.  1.
<mgrwt>
<rscale>  0 0.20660702E+04</rscale>
<asrwt>0</asrwt>
<pdfrwt beam="1">  1        2 0.27622722E+00 0.20660702E+04</pdfrwt>
<pdfrwt beam="2">  1       -1 0.91440159E-01 0.20660702E+04</pdfrwt>
<totfact> 0.10649909E+01</totfact>
</mgrwt>
</event>
<event>
12    7  0.1544987E-007  0.2023606E+04  0.7818608E-02  0.8595663E-01
          2   -1    0    0  501    0  0.00000000000E+00  0.00000000000E+00  0.61958818326E+03  0.61958818326E+03  0.00000000000E+00 0. -1.
         -1   -1    0    0    0  501 -0.00000000000E+00 -0.00000000000E+00 -0.16522994383E+04  0.16522994383E+04  0.00000000000E+00 0.  1.
         24    2    1    2    0    0  0.12784827132E+03  0.79951777787E+03 -0.37844246638E+03  0.89732128641E+03  0.79955819547E+02 0.  0.
        254    2    1    2    0    0 -0.12784827132E+03 -0.79951777787E+03 -0.65426878870E+03  0.13745663352E+04  0.89765867921E+03 0.  0.
         23    2    4    4    0    0 -0.45232647578E+03 -0.43582107643E+03 -0.60631140251E+03  0.87779809409E+03  0.91524454795E+02 0.  0.
         23    2    4    4    0    0  0.32447820446E+03 -0.36369670144E+03 -0.47957386192E+02  0.49676824110E+03  0.83170780136E+02 0.  0.
          4    1    3    3  502    0  0.88252853920E+02  0.57027359411E+03 -0.30875506182E+03  0.65446942371E+03  0.00000000000E+00 0. -1.
         -3    1    3    3    0  502  0.39595417403E+02  0.22924418375E+03 -0.69687404562E+02  0.24285186270E+03  0.00000000000E+00 0.  1.
         13    1    5    5    0    0 -0.37868756152E+03 -0.38843687332E+03 -0.55601694476E+03  0.77681549718E+03  0.00000000000E+00 0. -1.
        -13    1    5    5    0    0 -0.73638914266E+02 -0.47384203104E+02 -0.50294457753E+02  0.10098259691E+03  0.00000000000E+00 0.  1.
          1    1    6    6  503    0  0.32624437395E+03 -0.36150392984E+03 -0.54163566544E+02  0.48995323732E+03  0.00000000000E+00 0. -1.
         -1    1    6    6    0  503 -0.17661694890E+01 -0.21927716033E+01  0.62061803513E+01  0.68150037800E+01  0.00000000000E+00 0.  1.
<mgrwt>
<rscale>  0 0.20236059E+04</rscale>
<asrwt>0</asrwt>
<pdfrwt beam="1">  1        2 0.95321260E-01 0.20236059E+04</pdfrwt>
<pdfrwt beam="2">  1       -1 0.25419991E+00 0.20236059E+04</pdfrwt>
<totfact> 0.33053962E+00</totfact>
</mgrwt>
</event>
<event>
12    7  0.1544987E-007  0.1651544E+04  0.7818608E-02  0.8789494E-01
         -1   -1    0    0    0  501 -0.00000000000E+00  0.00000000000E+00  0.46339974388E+03  0.46339974388E+03  0.00000000000E+00 0.  1.
          2   -1    0    0  501    0  0.00000000000E+00 -0.00000000000E+00 -0.14715142864E+04  0.14715142864E+04  0.00000000000E+00 0. -1.
         24    2    1    2    0    0 -0.56632910994E+03 -0.97549552430E+02 -0.27098066204E+03  0.64012333929E+03  0.77992271135E+02 0.  0.
        254    2    1    2    0    0  0.56632910994E+03  0.97549552430E+02 -0.73713388051E+03  0.12947906910E+04  0.89603124933E+03 0.  0.
         23    2    4    4    0    0  0.17209916900E+03 -0.38203015906E+03 -0.37860834013E+03  0.57208479441E+03  0.91496286147E+02 0.  0.
         23    2    4    4    0    0  0.39422994095E+03  0.47957971149E+03 -0.35852554038E+03  0.72270589659E+03  0.91374525184E+02 0.  0.
          4    1    3    3  502    0 -0.32663071781E+03 -0.32188928450E+02 -0.12037873254E+03  0.34959232283E+03  0.00000000000E+00 0. -1.
         -3    1    3    3    0  502 -0.23969839213E+03 -0.65360623980E+02 -0.15060192950E+03  0.29053101646E+03  0.00000000000E+00 0.  1.
         13    1    5    5    0    0  0.15451083759E+03 -0.35485140929E+03 -0.37600915406E+03  0.53960726973E+03  0.00000000000E+00 0.  1.
        -13    1    5    5    0    0  0.17588331409E+02 -0.27178749775E+02 -0.25991860610E+01  0.32477524678E+02  0.00000000000E+00 0. -1.
          3    1    6    6  503    0  0.49851525383E+02  0.23826592145E+02 -0.20382031717E+02  0.58892344945E+02  0.00000000000E+00 0. -1.
         -3    1    6    6    0  503  0.34437841556E+03  0.45575311935E+03 -0.33814350866E+03  0.66381355165E+03  0.00000000000E+00 0.  1.
<mgrwt>
<rscale>  0 0.16515439E+04</rscale>
<asrwt>0</asrwt>
<pdfrwt beam="1">  1        2 0.22638681E+00 0.16515439E+04</pdfrwt>
<pdfrwt beam="2">  1       -1 0.71292268E-01 0.16515439E+04</pdfrwt>
<totfact> 0.28489942E+01</totfact>
</mgrwt>
</event>
<event>
12    7  0.1544987E-007  0.1773244E+04  0.7818608E-02  0.8720659E-01
          2   -1    0    0  501    0  0.00000000000E+00  0.00000000000E+00  0.11498642667E+04  0.11498642667E+04  0.00000000000E+00 0. -1.
         -1   -1    0    0    0  501 -0.00000000000E+00 -0.00000000000E+00 -0.68364431328E+03  0.68364431328E+03  0.00000000000E+00 0.  1.
         24    2    1    2    0    0 -0.37650623437E+03  0.58039850131E+03  0.22692122560E+03  0.73200973878E+03  0.75668026252E+02 0.  0.
        254    2    1    2    0    0  0.37650623437E+03 -0.58039850131E+03  0.23929872781E+03  0.11014988412E+04  0.82305312780E+03 0.  0.
         23    2    4    4    0    0  0.57458134199E+03 -0.49926569625E+03  0.34903821490E+03  0.84232341974E+03  0.90945664940E+02 0.  0.
         23    2    4    4    0    0 -0.19807510762E+03 -0.81132805055E+02 -0.10973948708E+03  0.25917542145E+03  0.96503179987E+02 0.  0.
          2    1    3    3  502    0 -0.23793847492E+03  0.34397144662E+03  0.17351953608E+03  0.45281354147E+03  0.00000000000E+00 0. -1.
         -1    1    3    3    0  502 -0.13856775945E+03  0.23642705469E+03  0.53401689519E+02  0.27919619731E+03  0.00000000000E+00 0.  1.
         13    1    5    5    0    0  0.29831156210E+03 -0.20307910852E+03  0.18238447806E+03  0.40434516225E+03  0.00000000000E+00 0. -1.
        -13    1    5    5    0    0  0.27626977989E+03 -0.29618658773E+03  0.16665373684E+03  0.43797825749E+03  0.00000000000E+00 0.  1.
          2    1    6    6  503    0 -0.13833739070E+02 -0.25530122277E+02  0.12038067553E+02  0.31433653153E+02  0.00000000000E+00 0. -1.
         -2    1    6    6    0  503 -0.18424136855E+03 -0.55602682779E+02 -0.12177755464E+03  0.22774176830E+03  0.00000000000E+00 0.  1.
<mgrwt>
<rscale>  0 0.17732435E+04</rscale>
<asrwt>0</asrwt>
<pdfrwt beam="1">  1        2 0.17690220E+00 0.17732435E+04</pdfrwt>
<pdfrwt beam="2">  1       -1 0.10517605E+00 0.17732435E+04</pdfrwt>
<totfact> 0.18581903E+01</totfact>
</mgrwt>
</event>
<event>
12    7  0.1544987E-007  0.1246470E+04  0.7818608E-02  0.9073127E-01
          2   -1    0    0  501    0  0.00000000000E+00  0.00000000000E+00  0.12811957615E+04  0.12811957615E+04  0.00000000000E+00 0. -1.
         -1   -1    0    0    0  501 -0.00000000000E+00 -0.00000000000E+00 -0.30317129295E+03  0.30317129295E+03  0.00000000000E+00 0.  1.
         24    2    1    2    0    0  0.90639756474E+01  0.13519294215E+03  0.56400212485E+03  0.58524346772E+03  0.77796095105E+02 0.  0.
        254    2    1    2    0    0 -0.90639756474E+01 -0.13519294215E+03  0.41402234374E+03  0.99912358677E+03  0.89915190778E+03 0.  0.
         23    2    4    4    0    0 -0.42346568886E+01 -0.27114503989E+03 -0.20941729834E+03  0.35471200310E+03  0.91801063843E+02 0.  0.
         23    2    4    4    0    0 -0.48293187588E+01  0.13595209774E+03  0.62343964207E+03  0.64441158367E+03  0.89905542981E+02 0.  0.
          4    1    3    3  502    0  0.15301622253E+02  0.12765933834E+03  0.56017453841E+03  0.57474042819E+03  0.00000000000E+00 0. -1.
         -3    1    3    3    0  502 -0.62376466051E+01  0.75336038121E+01  0.38275864429E+01  0.10503039538E+02  0.00000000000E+00 0.  1.
         13    1    5    5    0    0 -0.95473096348E+01 -0.15581453374E+03 -0.63214530568E+02  0.16842029842E+03  0.00000000000E+00 0. -1.
        -13    1    5    5    0    0  0.53126527462E+01 -0.11533050616E+03 -0.14620276777E+03  0.18629170468E+03  0.00000000000E+00 0.  1.
          3    1    6    6  503    0  0.15543364154E+02  0.12207231910E+03  0.37329560342E+03  0.39305579094E+03  0.00000000000E+00 0. -1.
         -3    1    6    6    0  503 -0.20372682912E+02  0.13879778639E+02  0.25014403865E+03  0.25135579272E+03  0.00000000000E+00 0.  1.
<mgrwt>
<rscale>  0 0.12464699E+04</rscale>
<asrwt>0</asrwt>
<pdfrwt beam="1">  1        2 0.19710704E+00 0.12464699E+04</pdfrwt>
<pdfrwt beam="2">  1       -1 0.46641738E-01 0.12464699E+04</pdfrwt>
<totfact> 0.87025653E+01</totfact>
</mgrwt>
</event>
<event>
12    7  0.1544987E-007  0.1661862E+04  0.7818608E-02  0.8783420E-01
          2   -1    0    0  501    0  0.00000000000E+00  0.00000000000E+00  0.51435898989E+03  0.51435898989E+03  0.00000000000E+00 0. -1.
         -1   -1    0    0    0  501 -0.00000000000E+00 -0.00000000000E+00 -0.13423430295E+04  0.13423430295E+04  0.00000000000E+00 0.  1.
         24    2    1    2    0    0 -0.49319702967E+02  0.55911591188E+03 -0.10876333073E+03  0.57716087935E+03  0.79007483951E+02 0.  0.
        254    2    1    2    0    0  0.49319702967E+02 -0.55911591188E+03 -0.71922070885E+03  0.12795411400E+04  0.89716445812E+03 0.  0.
         23    2    4    4    0    0  0.26277115232E+02 -0.10653731702E+03  0.20280308468E+03  0.24830848539E+03  0.92126684831E+02 0.  0.
         23    2    4    4    0    0  0.23042587735E+02 -0.45257859486E+03 -0.92202379353E+03  0.10312326546E+04  0.89188377912E+02 0.  0.
          2    1    3    3  502    0 -0.20642256599E+02  0.45715194812E+03 -0.63608094073E+02  0.46201731143E+03  0.00000000000E+00 0. -1.
         -1    1    3    3    0  502 -0.28677446368E+02  0.10196396376E+03 -0.45155236656E+02  0.11514356792E+03  0.00000000000E+00 0.  1.
         13    1    5    5    0    0 -0.22381980748E+01 -0.10765485541E+03  0.18674098921E+03  0.21556153292E+03  0.00000000000E+00 0. -1.
        -13    1    5    5    0    0  0.28515313307E+02  0.11175383902E+01  0.16062095467E+02  0.32746952467E+02  0.00000000000E+00 0.  1.
          2    1    6    6  503    0  0.42526827811E+02 -0.10455475985E+03 -0.20712887099E+03  0.23588683323E+03  0.00000000000E+00 0.  1.
         -2    1    6    6    0  503 -0.19484240076E+02 -0.34802383501E+03 -0.71489492253E+03  0.79534582140E+03  0.00000000000E+00 0. -1.
<mgrwt>
<rscale>  0 0.16618619E+04</rscale>
<asrwt>0</asrwt>
<pdfrwt beam="1">  1        2 0.79132153E-01 0.16618619E+04</pdfrwt>
<pdfrwt beam="2">  1       -1 0.20651431E+00 0.16618619E+04</pdfrwt>
<totfact> 0.88221265E+00</totfact>
</mgrwt>
</event>
<event>
12    7  0.1544987E-007  0.2052262E+04  0.7818608E-02  0.8582569E-01
          2   -1    0    0  501    0  0.00000000000E+00  0.00000000000E+00  0.97658314944E+03  0.97658314944E+03  0.00000000000E+00 0. -1.
         -1   -1    0    0    0  501 -0.00000000000E+00 -0.00000000000E+00 -0.10781923482E+04  0.10781923482E+04  0.00000000000E+00 0.  1.
         24    2    1    2    0    0  0.68666466355E+03  0.93038478130E+02  0.41636235977E+03  0.81238824952E+03  0.80327671105E+02 0.  0.
        254    2    1    2    0    0 -0.68666466355E+03 -0.93038478130E+02 -0.51797155857E+03  0.12423872482E+04  0.89166530735E+03 0.  0.
         23    2    4    4    0    0 -0.36078567224E+03  0.94836754720E+02 -0.71284217491E+03  0.80893647228E+03  0.84106709104E+02 0.  0.
         23    2    4    4    0    0 -0.32587899131E+03 -0.18787523285E+03  0.19487061634E+03  0.43345077588E+03  0.91710402372E+02 0.  0.
          4    1    3    3  502    0  0.34113782693E+03  0.80193079304E+02  0.18406246273E+03  0.39583448197E+03  0.00000000000E+00 0. -1.
         -3    1    3    3    0  502  0.34552683663E+03  0.12845398826E+02  0.23229989704E+03  0.41655376755E+03  0.00000000000E+00 0.  1.
         13    1    5    5    0    0 -0.43130899316E+02  0.32827099407E+02 -0.64115812272E+02  0.83956716912E+02  0.00000000000E+00 0.  1.
        -13    1    5    5    0    0 -0.31765477292E+03  0.62009655313E+02 -0.64872636264E+03  0.72497975537E+03  0.00000000000E+00 0. -1.
          3    1    6    6  503    0 -0.26741492661E+03 -0.15082129087E+03  0.11520987217E+03  0.32791937942E+03  0.00000000000E+00 0. -1.
         -3    1    6    6    0  503 -0.58464064703E+02 -0.37053941983E+02  0.79660744170E+02  0.10553139647E+03  0.00000000000E+00 0.  1.
<mgrwt>
<rscale>  0 0.20522617E+04</rscale>
<asrwt>0</asrwt>
<pdfrwt beam="1">  1        2 0.15024356E+00 0.20522617E+04</pdfrwt>
<pdfrwt beam="2">  1       -1 0.16587575E+00 0.20522617E+04</pdfrwt>
<totfact> 0.72664692E+00</totfact>
</mgrwt>
</event>
<event>
12    7  0.1544987E-007  0.1993946E+04  0.7818608E-02  0.8609456E-01
          2   -1    0    0  501    0  0.00000000000E+00  0.00000000000E+00  0.15235346176E+04  0.15235346176E+04  0.00000000000E+00 0. -1.
         -1   -1    0    0    0  501 -0.00000000000E+00 -0.00000000000E+00 -0.65240100376E+03  0.65240100376E+03  0.00000000000E+00 0.  1.
         24    2    1    2    0    0 -0.58958497002E+03  0.34154576872E+03 -0.95162623264E+02  0.69275976481E+03  0.81217103349E+02 0.  0.
        254    2    1    2    0    0  0.58958497002E+03 -0.34154576872E+03  0.96629623707E+03  0.14831758565E+04  0.89544304932E+03 0.  0.
         23    2    4    4    0    0  0.10089514812E+03 -0.56416302007E+03  0.45775519481E+03  0.73814328926E+03  0.82800682209E+02 0.  0.
         23    2    4    4    0    0  0.48868982190E+03  0.22261725135E+03  0.50854104225E+03  0.74503256725E+03  0.89907463445E+02 0.  0.
          2    1    3    3  502    0 -0.26247692064E+03  0.19370822933E+03 -0.26533291371E+02  0.32729348837E+03  0.00000000000E+00 0. -1.
         -1    1    3    3    0  502 -0.32710804938E+03  0.14783753939E+03 -0.68629331894E+02  0.36546627644E+03  0.00000000000E+00 0.  1.
         13    1    5    5    0    0  0.63063050093E+02 -0.44297812120E+03  0.31558405110E+03  0.54753982271E+03  0.00000000000E+00 0.  1.
        -13    1    5    5    0    0  0.37832098028E+02 -0.12118489887E+03  0.14217114372E+03  0.19060346655E+03  0.00000000000E+00 0. -1.
          3    1    6    6  503    0  0.30063554794E+03  0.13252470568E+03  0.36930468081E+03  0.49429796436E+03  0.00000000000E+00 0. -1.
         -3    1    6    6    0  503  0.18805427396E+03  0.90092545676E+02  0.13923636144E+03  0.25073460289E+03  0.00000000000E+00 0.  1.
<mgrwt>
<rscale>  0 0.19939464E+04</rscale>
<asrwt>0</asrwt>
<pdfrwt beam="1">  1        2 0.23438994E+00 0.19939464E+04</pdfrwt>
<pdfrwt beam="2">  1       -1 0.10036939E+00 0.19939464E+04</pdfrwt>
<totfact> 0.12322198E+01</totfact>
</mgrwt>
</event>
<event>
12    7  0.1544987E-007  0.2900813E+04  0.7818608E-02  0.8272636E-01
         -1   -1    0    0    0  501 -0.00000000000E+00  0.00000000000E+00  0.96757725179E+03  0.96757725179E+03  0.00000000000E+00 0.  1.
          2   -1    0    0  501    0  0.00000000000E+00 -0.00000000000E+00 -0.21741716016E+04  0.21741716016E+04  0.00000000000E+00 0. -1.
         24    2    1    2    0    0 -0.46613088344E+03  0.63940913478E+02 -0.18677564349E+04  0.19278055190E+04  0.80954172472E+02 0.  0.
        254    2    1    2    0    0  0.46613088344E+03 -0.63940913478E+02  0.66116208515E+03  0.12139433343E+04  0.90286027449E+03 0.  0.
         23    2    4    4    0    0  0.58182251481E+03 -0.18109637719E+03  0.77785809856E+03  0.99221576589E+03  0.90086447499E+02 0.  0.
         23    2    4    4    0    0 -0.11569163138E+03  0.11715546371E+03 -0.11669601341E+03  0.22172756846E+03  0.91843338465E+02 0.  0.
          2    1    3    3  502    0 -0.45746211071E+03  0.74762406709E+02 -0.18158663806E+04  0.18740949049E+04  0.00000000000E+00 0. -1.
         -1    1    3    3    0  502 -0.86687727243E+01 -0.10821493231E+02 -0.51890054312E+02  0.53710614154E+02  0.00000000000E+00 0.  1.
         13    1    5    5    0    0  0.45267158564E+03 -0.14643404283E+03  0.54289040722E+03  0.72186182030E+03  0.00000000000E+00 0. -1.
        -13    1    5    5    0    0  0.12915092917E+03 -0.34662334355E+02  0.23496769133E+03  0.27035394560E+03  0.00000000000E+00 0.  1.
          4    1    6    6  503    0 -0.53030247378E+02  0.11260066842E+03 -0.65280670253E+02  0.14054424063E+03  0.00000000000E+00 0. -1.
         -4    1    6    6    0  503 -0.62661383998E+02  0.45547952870E+01 -0.51415343155E+02  0.81183327823E+02  0.00000000000E+00 0.  1.
<mgrwt>
<rscale>  0 0.29008130E+04</rscale>
<asrwt>0</asrwt>
<pdfrwt beam="1">  1        2 0.33448794E+00 0.29008130E+04</pdfrwt>
<pdfrwt beam="2">  1       -1 0.14885804E+00 0.29008130E+04</pdfrwt>
<totfact> 0.18662643E+00</totfact>
</mgrwt>
</event>
<event>
12    7  0.1544987E-007  0.1224031E+04  0.7818608E-02  0.9092078E-01
         -1   -1    0    0    0  501 -0.00000000000E+00  0.00000000000E+00  0.25934515140E+03  0.25934515140E+03  0.00000000000E+00 0.  1.
          2   -1    0    0  501    0  0.00000000000E+00 -0.00000000000E+00 -0.14442655050E+04  0.14442655050E+04  0.00000000000E+00 0. -1.
         24    2    1    2    0    0  0.13186142853E+03  0.28372017616E+02  0.58893497477E+02  0.16756934966E+03  0.80116385247E+02 0.  0.
        254    2    1    2    0    0 -0.13186142853E+03 -0.28372017616E+02 -0.12438138511E+04  0.15360413067E+04  0.89115520093E+03 0.  0.
         23    2    4    4    0    0 -0.38026472993E+03  0.21667475673E+03 -0.33508433173E+03  0.55843684625E+03  0.89559962273E+02 0.  0.
         23    2    4    4    0    0  0.24840330140E+03 -0.24504677435E+03 -0.90872951933E+03  0.97760446047E+03  0.90382631403E+02 0.  0.
          2    1    3    3  502    0  0.43311962314E+01  0.28754277676E+02  0.14821467659E+02  0.32638070547E+02  0.00000000000E+00 0. -1.
         -1    1    3    3    0  502  0.12753023229E+03 -0.38226005962E+00  0.44072029818E+02  0.13493127912E+03  0.00000000000E+00 0.  1.
         13    1    5    5    0    0 -0.32673313219E+03  0.15588369204E+03 -0.29999964368E+03  0.47016385582E+03  0.00000000000E+00 0.  1.
        -13    1    5    5    0    0 -0.53531597739E+02  0.60791064693E+02 -0.35084688055E+02  0.88272990427E+02  0.00000000000E+00 0. -1.
          4    1    6    6  503    0  0.50016441504E+02 -0.11706368730E+02 -0.92531093009E+02  0.10583329657E+03  0.00000000000E+00 0. -1.
         -4    1    6    6    0  503  0.19838685990E+03 -0.23334040562E+03 -0.81619842632E+03  0.87177116390E+03  0.00000000000E+00 0.  1.
<mgrwt>
<rscale>  0 0.12240315E+04</rscale>
<asrwt>0</asrwt>
<pdfrwt beam="1">  1        2 0.22219470E+00 0.12240315E+04</pdfrwt>
<pdfrwt beam="2">  1       -1 0.39899253E-01 0.12240315E+04</pdfrwt>
<totfact> 0.93742067E+01</totfact>
</mgrwt>
</event>
<event>
12    7  0.1544987E-007  0.3074412E+04  0.7818608E-02  0.8222796E-01
          2   -1    0    0  501    0  0.00000000000E+00  0.00000000000E+00  0.35278517454E+04  0.35278517454E+04  0.00000000000E+00 0. -1.
         -1   -1    0    0    0  501 -0.00000000000E+00 -0.00000000000E+00 -0.66981328443E+03  0.66981328443E+03  0.00000000000E+00 0.  1.
         24    2    1    2    0    0 -0.64185965130E+03 -0.91565346840E+03  0.14744862682E+03  0.11308664947E+04  0.81931954809E+02 0.  0.
        254    2    1    2    0    0  0.64185965130E+03  0.91565346840E+03  0.27105898341E+04  0.30667985351E+04  0.89863836980E+03 0.  0.
         23    2    4    4    0    0  0.36962501968E+03 -0.62483722003E+02  0.10476504051E+04  0.11161784925E+04  0.88069207449E+02 0.  0.
         23    2    4    4    0    0  0.27223463162E+03  0.97813719040E+03  0.16629394290E+04  0.19506200425E+04  0.93203796384E+02 0.  0.
          4    1    3    3  502    0 -0.58150933475E+03 -0.83895212468E+03  0.15707533730E+03  0.10327954471E+04  0.00000000000E+00 0. -1.
         -3    1    3    3    0  502 -0.60350316552E+02 -0.76701343720E+02 -0.96267104821E+01  0.98071047670E+02  0.00000000000E+00 0.  1.
         13    1    5    5    0    0  0.17983913862E+03 -0.43040346640E+02  0.39364122246E+03  0.43491148437E+03  0.00000000000E+00 0. -1.
        -13    1    5    5    0    0  0.18978588106E+03 -0.19443375363E+02  0.65400918261E+03  0.68126700817E+03  0.00000000000E+00 0.  1.
          4    1    6    6  503    0  0.11306433322E+03  0.52200338975E+03  0.93931501563E+03  0.10805479078E+04  0.00000000000E+00 0. -1.
         -4    1    6    6    0  503  0.15917029841E+03  0.45613380065E+03  0.72362441342E+03  0.87007213476E+03  0.00000000000E+00 0.  1.
<mgrwt>
<rscale>  0 0.30744118E+04</rscale>
<asrwt>0</asrwt>
<pdfrwt beam="1">  1        2 0.54274641E+00 0.30744118E+04</pdfrwt>
<pdfrwt beam="2">  1       -1 0.10304820E+00 0.30744118E+04</pdfrwt>
<totfact> 0.66723777E-01</totfact>
</mgrwt>
</event>
<event>
12    7  0.1544987E-007  0.1526933E+04  0.7818608E-02  0.8866738E-01
          2   -1    0    0  501    0  0.00000000000E+00  0.00000000000E+00  0.34771021025E+03  0.34771021025E+03  0.00000000000E+00 0. -1.
         -3   -1    0    0    0  501 -0.00000000000E+00 -0.00000000000E+00 -0.16763418777E+04  0.16763418777E+04  0.00000000000E+00 0.  1.
         24    2    1    2    0    0  0.38589593944E+03  0.31796332475E+03 -0.45220083693E+03  0.67992764891E+03  0.88315677400E+02 0.  0.
        254    2    1    2    0    0 -0.38589593944E+03 -0.31796332475E+03 -0.87643083057E+03  0.13441244391E+04  0.88798826287E+03 0.  0.
         23    2    4    4    0    0  0.27714271790E+03 -0.45305037942E+02 -0.26095151678E+03  0.39475585978E+03  0.94211794240E+02 0.  0.
         23    2    4    4    0    0 -0.66303865733E+03 -0.27265828681E+03 -0.61547931378E+03  0.94936857929E+03  0.92320697450E+02 0.  0.
          2    1    3    3  502    0  0.32105665743E+03  0.27868302577E+03 -0.41983772516E+03  0.59749922310E+03  0.00000000000E+00 0. -1.
         -1    1    3    3    0  502  0.64839282001E+02  0.39280298982E+02 -0.32363111766E+02  0.82428425811E+02  0.00000000000E+00 0.  1.
         13    1    5    5    0    0  0.48873625356E+02  0.24878580673E+02 -0.29889986158E+02  0.62457876239E+02  0.00000000000E+00 0. -1.
        -13    1    5    5    0    0  0.22826909254E+03 -0.70183618615E+02 -0.23106153063E+03  0.33229798354E+03  0.00000000000E+00 0.  1.
          2    1    6    6  503    0 -0.42794883129E+03 -0.18772813664E+03 -0.45559502971E+03  0.65264759754E+03  0.00000000000E+00 0. -1.
         -2    1    6    6    0  503 -0.23508982604E+03 -0.84930150169E+02 -0.15988428408E+03  0.29672098175E+03  0.00000000000E+00 0.  1.
<mgrwt>
<rscale>  0 0.15269331E+04</rscale>
<asrwt>0</asrwt>
<pdfrwt beam="1">  1        2 0.53493878E-01 0.15269331E+04</pdfrwt>
<pdfrwt beam="2">  1       -3 0.25789875E+00 0.15269331E+04</pdfrwt>
<totfact> 0.36833851E+00</totfact>
</mgrwt>
</event>
<event>
12    7  0.1544987E-007  0.1316305E+04  0.7818608E-02  0.9016734E-01
          2   -1    0    0  501    0  0.00000000000E+00  0.00000000000E+00  0.10753130495E+04  0.10753130495E+04  0.00000000000E+00 0. -1.
         -1   -1    0    0    0  501 -0.00000000000E+00 -0.00000000000E+00 -0.40282675208E+03  0.40282675208E+03  0.00000000000E+00 0.  1.
         24    2    1    2    0    0 -0.82701142620E+02 -0.74479858460E+02 -0.18398856905E+03  0.22917328807E+03  0.79258274767E+02 0.  0.
        254    2    1    2    0    0  0.82701142620E+02  0.74479858460E+02  0.85647486642E+03  0.12489665135E+04  0.90220919227E+03 0.  0.
         23    2    4    4    0    0  0.20675356563E+03 -0.33477703151E+03  0.17787011261E+03  0.44144439580E+03  0.91720662354E+02 0.  0.
         23    2    4    4    0    0 -0.12405242301E+03  0.40925688997E+03  0.67860475381E+03  0.80752211765E+03  0.93313198221E+02 0.  0.
          4    1    3    3  502    0 -0.66130485292E+02 -0.12297713380E+02 -0.63125021917E+02  0.92245559413E+02  0.00000000000E+00 0. -1.
         -3    1    3    3    0  502 -0.16570657328E+02 -0.62182145080E+02 -0.12086354713E+03  0.13692772866E+03  0.00000000000E+00 0.  1.
         13    1    5    5    0    0  0.84369377119E+02 -0.60958830900E+02  0.44289097555E+02  0.11311805790E+03  0.00000000000E+00 0. -1.
        -13    1    5    5    0    0  0.12238418851E+03 -0.27381820061E+03  0.13358101505E+03  0.32832633791E+03  0.00000000000E+00 0.  1.
          3    1    6    6  503    0 -0.19908988849E+02  0.85498377754E+01  0.53740495420E+02  0.57944011001E+02  0.00000000000E+00 0. -1.
         -3    1    6    6    0  503 -0.10414343416E+03  0.40070705219E+03  0.62486425839E+03  0.74957810665E+03  0.00000000000E+00 0.  1.
<mgrwt>
<rscale>  0 0.13163052E+04</rscale>
<asrwt>0</asrwt>
<pdfrwt beam="1">  1        2 0.16543278E+00 0.13163052E+04</pdfrwt>
<pdfrwt beam="2">  1       -1 0.61973347E-01 0.13163052E+04</pdfrwt>
<totfact> 0.66557441E+01</totfact>
</mgrwt>
</event>
<event>
12    7  0.1544987E-007  0.2387144E+04  0.7818608E-02  0.8444333E-01
         -1   -1    0    0    0  501 -0.00000000000E+00  0.00000000000E+00  0.15129597000E+04  0.15129597000E+04  0.00000000000E+00 0.  1.
          2   -1    0    0  501    0  0.00000000000E+00 -0.00000000000E+00 -0.94160706121E+03  0.94160706121E+03  0.00000000000E+00 0. -1.
         24    2    1    2    0    0  0.19728321814E+03 -0.34262379172E+03  0.12249554828E+04  0.12897114793E+04  0.80796250825E+02 0.  0.
        254    2    1    2    0    0 -0.19728321814E+03  0.34262379172E+03 -0.65360284396E+03  0.11648552820E+04  0.87941993352E+03 0.  0.
         23    2    4    4    0    0 -0.51610415912E+03  0.18997717076E+03 -0.55548862676E+03  0.78697580051E+03  0.91150796223E+02 0.  0.
         23    2    4    4    0    0  0.31882094098E+03  0.15264662096E+03 -0.98114217203E+02  0.37787948146E+03  0.90657154126E+02 0.  0.
          4    1    3    3  502    0  0.69623102577E+02 -0.72391023345E+02  0.39551228017E+03  0.40806592659E+03  0.00000000000E+00 0. -1.
         -3    1    3    3    0  502  0.12766011556E+03 -0.27023276838E+03  0.82944320259E+03  0.88164555267E+03  0.00000000000E+00 0.  1.
         13    1    5    5    0    0 -0.47696141291E+03  0.14894873468E+03 -0.51287161927E+03  0.71604134854E+03  0.00000000000E+00 0. -1.
        -13    1    5    5    0    0 -0.39142746213E+02  0.41028436084E+02 -0.42617007487E+02  0.70934451966E+02  0.00000000000E+00 0.  1.
          2    1    6    6  503    0  0.12816426874E+03  0.95317400982E+02 -0.96322917881E+01  0.16001333618E+03  0.00000000000E+00 0. -1.
         -2    1    6    6    0  503  0.19065667224E+03  0.57329219979E+02 -0.88481925415E+02  0.21786614528E+03  0.00000000000E+00 0.  1.
<mgrwt>
<rscale>  0 0.23871435E+04</rscale>
<asrwt>0</asrwt>
<pdfrwt beam="1">  1        2 0.14486262E+00 0.23871435E+04</pdfrwt>
<pdfrwt beam="2">  1       -1 0.23276303E+00 0.23871435E+04</pdfrwt>
<totfact> 0.25543897E+00</totfact>
</mgrwt>
</event>
<event>
12    7  0.1544987E-007  0.1182633E+04  0.7818608E-02  0.9128195E-01
         -1   -1    0    0    0  501 -0.00000000000E+00  0.00000000000E+00  0.40891351846E+03  0.40891351846E+03  0.00000000000E+00 0.  1.
          2   -1    0    0  501    0  0.00000000000E+00 -0.00000000000E+00 -0.85508408082E+03  0.85508408082E+03  0.00000000000E+00 0. -1.
         24    2    1    2    0    0  0.35192713310E+02 -0.23586076314E+03 -0.10005040864E+03  0.27181624019E+03  0.83696818928E+02 0.  0.
        254    2    1    2    0    0 -0.35192713310E+02  0.23586076314E+03 -0.34612015372E+03  0.99218135910E+03  0.89875239185E+03 0.  0.
         23    2    4    4    0    0 -0.34945276033E+03  0.40681235284E+03 -0.29697671998E+03  0.61996175514E+03  0.92433129892E+02 0.  0.
         23    2    4    4    0    0  0.31426004702E+03 -0.17095158970E+03 -0.49143433743E+02  0.37221960395E+03  0.90269226840E+02 0.  0.
          4    1    3    3  502    0  0.14121735467E+02 -0.28602456569E+02 -0.47066333314E+02  0.56857397637E+02  0.00000000000E+00 0. -1.
         -3    1    3    3    0  502  0.21070977843E+02 -0.20725830658E+03 -0.52984075324E+02  0.21495884255E+03  0.00000000000E+00 0.  1.
         13    1    5    5    0    0 -0.31514982687E+03  0.31632740387E+03 -0.25750317551E+03  0.51545157408E+03  0.00000000000E+00 0. -1.
        -13    1    5    5    0    0 -0.34302933458E+02  0.90484948966E+02 -0.39473544468E+02  0.10451018106E+03  0.00000000000E+00 0.  1.
          2    1    6    6  503    0  0.99938349802E+02 -0.81436577093E+02  0.18660966328E+02  0.13026059079E+03  0.00000000000E+00 0.  1.
         -2    1    6    6    0  503  0.21432169722E+03 -0.89515012602E+02 -0.67804400071E+02  0.24195901316E+03  0.00000000000E+00 0. -1.
<mgrwt>
<rscale>  0 0.11826334E+04</rscale>
<asrwt>0</asrwt>
<pdfrwt beam="1">  1        2 0.13155140E+00 0.11826334E+04</pdfrwt>
<pdfrwt beam="2">  1       -1 0.62909772E-01 0.11826334E+04</pdfrwt>
<totfact> 0.90973434E+01</totfact>
</mgrwt>
</event>
<event>
12    7  0.1544987E-007  0.2919260E+04  0.7818608E-02  0.8267170E-01
         -1   -1    0    0    0  501 -0.00000000000E+00  0.00000000000E+00  0.11672047926E+04  0.11672047926E+04  0.00000000000E+00 0.  1.
          2   -1    0    0  501    0  0.00000000000E+00 -0.00000000000E+00 -0.18253175131E+04  0.18253175131E+04  0.00000000000E+00 0. -1.
         24    2    1    2    0    0  0.77737256826E+03 -0.77465116738E+03 -0.10506240360E+04  0.15213022061E+04  0.78466530358E+02 0.  0.
        254    2    1    2    0    0 -0.77737256826E+03  0.77465116738E+03  0.39251131540E+03  0.14712200996E+04  0.89779224085E+03 0.  0.
         23    2    4    4    0    0  0.16700014843E+03  0.25684517155E+03  0.18866038067E+03  0.37213831932E+03  0.95056287258E+02 0.  0.
         23    2    4    4    0    0 -0.94437271669E+03  0.51780599583E+03  0.20385093473E+03  0.10990817803E+04  0.80390788136E+02 0.  0.
          4    1    3    3  502    0  0.77308099172E+02 -0.10092125815E+03 -0.97029360516E+02  0.15992604336E+03  0.00000000000E+00 0. -1.
         -3    1    3    3    0  502  0.70006446909E+03 -0.67372990924E+03 -0.95359467544E+03  0.13613761628E+04  0.00000000000E+00 0.  1.
         13    1    5    5    0    0  0.34653005335E+02  0.49683249881E+02  0.87245029948E+02  0.10621182301E+03  0.00000000000E+00 0.  1.
        -13    1    5    5    0    0  0.13234714309E+03  0.20716192167E+03  0.10141535072E+03  0.26592649630E+03  0.00000000000E+00 0. -1.
          3    1    6    6  503    0 -0.63572752850E+03  0.32165520145E+03  0.16498317113E+03  0.73132141078E+03  0.00000000000E+00 0. -1.
         -3    1    6    6    0  503 -0.30864518819E+03  0.19615079438E+03  0.38867763596E+02  0.36776036950E+03  0.00000000000E+00 0.  1.
<mgrwt>
<rscale>  0 0.29192597E+04</rscale>
<asrwt>0</asrwt>
<pdfrwt beam="1">  1        2 0.28081808E+00 0.29192597E+04</pdfrwt>
<pdfrwt beam="2">  1       -1 0.17956997E+00 0.29192597E+04</pdfrwt>
<totfact> 0.17170411E+00</totfact>
</mgrwt>
</event>
<event>
12    7  0.1544987E-007  0.1787535E+04  0.7818608E-02  0.8712956E-01
         -1   -1    0    0    0  501 -0.00000000000E+00  0.00000000000E+00  0.90332551164E+03  0.90332551164E+03  0.00000000000E+00 0.  1.
          2   -1    0    0  501    0  0.00000000000E+00 -0.00000000000E+00 -0.88431058479E+03  0.88431058479E+03  0.00000000000E+00 0. -1.
         24    2    1    2    0    0 -0.38244811143E+03  0.87745633062E+02  0.54393091138E+03  0.67549476862E+03  0.80414501353E+02 0.  0.
        254    2    1    2    0    0  0.38244811143E+03 -0.87745633062E+02 -0.52491598454E+03  0.11121413278E+04  0.89852973692E+03 0.  0.
         23    2    4    4    0    0  0.50964952552E+03 -0.15016391799E+03 -0.68917858778E+03  0.87493562958E+03  0.90848164087E+02 0.  0.
         23    2    4    4    0    0 -0.12720141409E+03  0.62418284928E+02  0.16426260325E+03  0.23720569823E+03  0.95958837043E+02 0.  0.
          4    1    3    3  502    0 -0.88491003385E+02 -0.89290106873E+01  0.15224896087E+03  0.17632393768E+03  0.00000000000E+00 0. -1.
         -3    1    3    3    0  502 -0.29395710804E+03  0.96674643749E+02  0.39168195051E+03  0.49917083094E+03  0.00000000000E+00 0.  1.
         13    1    5    5    0    0  0.75061073725E+02 -0.54496793291E+02 -0.97216233493E+02  0.13436912340E+03  0.00000000000E+00 0.  1.
        -13    1    5    5    0    0  0.43458845179E+03 -0.95667124699E+02 -0.59196235429E+03  0.74056650618E+03  0.00000000000E+00 0. -1.
          3    1    6    6  503    0 -0.11192808281E+03  0.13801768950E+02  0.14267112560E+03  0.18186103108E+03  0.00000000000E+00 0. -1.
         -3    1    6    6    0  503 -0.15273331283E+02  0.48616515978E+02  0.21591477647E+02  0.55344667145E+02  0.00000000000E+00 0.  1.
<mgrwt>
<rscale>  0 0.17875350E+04</rscale>
<asrwt>0</asrwt>
<pdfrwt beam="1">  1        2 0.13604778E+00 0.17875350E+04</pdfrwt>
<pdfrwt beam="2">  1       -1 0.13897316E+00 0.17875350E+04</pdfrwt>
<totfact> 0.13850478E+01</totfact>
</mgrwt>
</event>
<event>
12    7  0.1544987E-007  0.1632819E+04  0.7818608E-02  0.8800636E-01
         -1   -1    0    0    0  501 -0.00000000000E+00  0.00000000000E+00  0.39622547303E+03  0.39622547303E+03  0.00000000000E+00 0.  1.
          2   -1    0    0  501    0  0.00000000000E+00 -0.00000000000E+00 -0.16821848939E+04  0.16821848939E+04  0.00000000000E+00 0. -1.
         24    2    1    2    0    0 -0.34322738305E+03  0.19470470847E+03 -0.92397223661E+03  0.10080258705E+04  0.81709862481E+02 0.  0.
        254    2    1    2    0    0  0.34322738305E+03 -0.19470470847E+03 -0.36198718429E+03  0.10703844964E+04  0.92680811858E+03 0.  0.
         23    2    4    4    0    0 -0.10557849624E+03  0.54725197245E+02 -0.50751853282E+03  0.52906135248E+03  0.90494129344E+02 0.  0.
         23    2    4    4    0    0  0.44880587929E+03 -0.24942990572E+03  0.14553134853E+03  0.54132314397E+03  0.90605615920E+02 0.  0.
          2    1    3    3  502    0 -0.23747441088E+03  0.94091568985E+02 -0.62983006586E+03  0.67965670087E+03  0.00000000000E+00 0. -1.
         -1    1    3    3    0  502 -0.10575297217E+03  0.10061313949E+03 -0.29414217076E+03  0.32836916965E+03  0.00000000000E+00 0.  1.
         13    1    5    5    0    0  0.93360603572E+01  0.21450997322E+02 -0.15595045756E+03  0.15769544230E+03  0.00000000000E+00 0.  1.
        -13    1    5    5    0    0 -0.11491455660E+03  0.33274199923E+02 -0.35156807527E+03  0.37136591018E+03  0.00000000000E+00 0. -1.
          2    1    6    6  503    0  0.44945792077E+03 -0.24871301236E+03  0.13551205612E+03  0.53125709635E+03  0.00000000000E+00 0. -1.
         -2    1    6    6    0  503 -0.65204148462E+00 -0.71689335647E+00  0.10019292416E+02  0.10066047621E+02  0.00000000000E+00 0.  1.
<mgrwt>
<rscale>  0 0.16328190E+04</rscale>
<asrwt>0</asrwt>
<pdfrwt beam="1">  1        2 0.25879768E+00 0.16328190E+04</pdfrwt>
<pdfrwt beam="2">  1       -1 0.60957765E-01 0.16328190E+04</pdfrwt>
<totfact> 0.29839680E+01</totfact>
</mgrwt>
</event>
<event>
12    7  0.1544987E-007  0.1698925E+04  0.7818608E-02  0.8761977E-01
          2   -1    0    0  501    0  0.00000000000E+00  0.00000000000E+00  0.23793535667E+04  0.23793535667E+04  0.00000000000E+00 0. -1.
         -1   -1    0    0    0  501 -0.00000000000E+00 -0.00000000000E+00 -0.30327013949E+03  0.30327013949E+03  0.00000000000E+00 0.  1.
         24    2    1    2    0    0  0.15787589380E+03  0.53276662521E+03  0.35502857501E+03  0.66428948649E+03  0.80437292395E+02 0.  0.
        254    2    1    2    0    0 -0.15787589380E+03 -0.53276662521E+03  0.17210548522E+04  0.20183342197E+04  0.89603467752E+03 0.  0.
         23    2    4    4    0    0  0.26252573688E+03  0.94475633220E+02  0.50575137416E+03  0.58473958226E+03  0.91052286077E+02 0.  0.
         23    2    4    4    0    0 -0.42040163068E+03 -0.62724225843E+03  0.12153034780E+04  0.14335946374E+04  0.89781172261E+02 0.  0.
          2    1    3    3  502    0  0.13129962913E+03  0.47258326280E+03  0.34000325190E+03  0.59680544920E+03  0.00000000000E+00 0. -1.
         -3    1    3    3    0  502  0.26576264670E+02  0.60183362410E+02  0.15025323106E+02  0.67484037293E+02  0.00000000000E+00 0.  1.
         13    1    5    5    0    0  0.92485521313E+02 -0.11387926536E+02  0.16191946386E+03  0.18681854646E+03  0.00000000000E+00 0. -1.
        -13    1    5    5    0    0  0.17004021557E+03  0.10586355976E+03  0.34383191030E+03  0.39792103580E+03  0.00000000000E+00 0.  1.
          1    1    6    6  503    0 -0.20756636643E+03 -0.38886135217E+03  0.69601635753E+03  0.82385418469E+03  0.00000000000E+00 0. -1.
         -1    1    6    6    0  503 -0.21283526425E+03 -0.23838090626E+03  0.51928712050E+03  0.60974045273E+03  0.00000000000E+00 0.  1.
<mgrwt>
<rscale>  0 0.16989254E+04</rscale>
<asrwt>0</asrwt>
<pdfrwt beam="1">  1        2 0.36605438E+00 0.16989254E+04</pdfrwt>
<pdfrwt beam="2">  1       -1 0.46656946E-01 0.16989254E+04</pdfrwt>
<totfact> 0.20281644E+01</totfact>
</mgrwt>
</event>
<event>
12    7  0.1544987E-007  0.2880865E+04  0.7818608E-02  0.8278594E-01
          2   -1    0    0  501    0  0.00000000000E+00  0.00000000000E+00  0.13219025154E+04  0.13219025154E+04  0.00000000000E+00 0. -1.
         -1   -1    0    0    0  501 -0.00000000000E+00 -0.00000000000E+00 -0.15695905141E+04  0.15695905141E+04  0.00000000000E+00 0.  1.
         24    2    1    2    0    0 -0.80181187996E+03  0.13163212334E+03 -0.11290992704E+04  0.13933154898E+04  0.78953055309E+02 0.  0.
        254    2    1    2    0    0  0.80181187996E+03 -0.13163212334E+03  0.88141127169E+03  0.14981775397E+04  0.89856597080E+03 0.  0.
         23    2    4    4    0    0  0.27476725671E+03 -0.41034268757E+03  0.71286792619E+03  0.87193939073E+03  0.90661206220E+02 0.  0.
         23    2    4    4    0    0  0.52704462325E+03  0.27871056423E+03  0.16854334550E+03  0.62623814897E+03  0.91168779794E+02 0.  0.
          4    1    3    3  502    0 -0.40249080723E+02  0.22698233878E+02 -0.50271085550E+02  0.68281625366E+02  0.00000000000E+00 0. -1.
         -3    1    3    3    0  502 -0.76156279924E+03  0.10893388946E+03 -0.10788281849E+04  0.13250338644E+04  0.00000000000E+00 0.  1.
         13    1    5    5    0    0  0.27069933712E+03 -0.41488035571E+03  0.70819820412E+03  0.86426184516E+03  0.00000000000E+00 0.  1.
        -13    1    5    5    0    0  0.40679195909E+01  0.45376681339E+01  0.46697220697E+01  0.76775455778E+01  0.00000000000E+00 0. -1.
          1    1    6    6  503    0  0.29572063283E+03  0.11968865795E+03  0.56478106639E+02  0.32398432686E+03  0.00000000000E+00 0. -1.
         -1    1    6    6    0  503  0.23132399042E+03  0.15902190628E+03  0.11206523886E+03  0.30225382211E+03  0.00000000000E+00 0.  1.
<mgrwt>
<rscale>  0 0.28808649E+04</rscale>
<asrwt>0</asrwt>
<pdfrwt beam="1">  1        2 0.20336962E+00 0.28808649E+04</pdfrwt>
<pdfrwt beam="2">  1       -1 0.24147546E+00 0.28808649E+04</pdfrwt>
<totfact> 0.12531806E+00</totfact>
</mgrwt>
</event>
<event>
12    7  0.1544987E-007  0.2522757E+04  0.7818608E-02  0.8394923E-01
         -1   -1    0    0    0  501 -0.00000000000E+00  0.00000000000E+00  0.17057453217E+04  0.17057453217E+04  0.00000000000E+00 0.  1.
          2   -1    0    0  501    0  0.00000000000E+00 -0.00000000000E+00 -0.93277437175E+03  0.93277437175E+03  0.00000000000E+00 0. -1.
         24    2    1    2    0    0  0.70021629198E+03  0.82811020319E+03  0.63342371575E+03  0.12587362853E+04  0.84392345499E+02 0.  0.
        254    2    1    2    0    0 -0.70021629198E+03 -0.82811020319E+03  0.13954723418E+03  0.13797834082E+04  0.84158152235E+03 0.  0.
         23    2    4    4    0    0 -0.82154919597E+02 -0.67068765794E+03  0.25040706153E+03  0.72636926232E+03  0.91308506999E+02 0.  0.
         23    2    4    4    0    0 -0.61806137238E+03 -0.15742254524E+03 -0.11085982734E+03  0.65341414586E+03  0.88760503115E+02 0.  0.
          2    1    3    3  502    0  0.56849356485E+03  0.69011525524E+03  0.48617669677E+03  0.10177483870E+04  0.00000000000E+00 0. -1.
         -3    1    3    3    0  502  0.13172272713E+03  0.13799494794E+03  0.14724701898E+03  0.24098789824E+03  0.00000000000E+00 0.  1.
         13    1    5    5    0    0 -0.53488000870E+02 -0.29994604783E+03  0.15800825539E+03  0.34321306301E+03  0.00000000000E+00 0. -1.
        -13    1    5    5    0    0 -0.28666918728E+02 -0.37074161011E+03  0.92398806137E+02  0.38315619931E+03  0.00000000000E+00 0.  1.
          1    1    6    6  503    0 -0.45039990936E+03 -0.13886564086E+03 -0.11315138761E+03  0.48471329782E+03  0.00000000000E+00 0. -1.
         -1    1    6    6    0  503 -0.16766146302E+03 -0.18556904384E+02  0.22915602655E+01  0.16870084804E+03  0.00000000000E+00 0.  1.
<mgrwt>
<rscale>  0 0.25227568E+04</rscale>
<asrwt>0</asrwt>
<pdfrwt beam="1">  1        2 0.14350375E+00 0.25227568E+04</pdfrwt>
<pdfrwt beam="2">  1       -1 0.26242236E+00 0.25227568E+04</pdfrwt>
<totfact> 0.16370792E+00</totfact>
</mgrwt>
</event>
<event>
12    7  0.1544987E-007  0.1298544E+04  0.7818608E-02  0.9030720E-01
         -1   -1    0    0    0  501 -0.00000000000E+00  0.00000000000E+00  0.29843572645E+03  0.29843572645E+03  0.00000000000E+00 0.  1.
          2   -1    0    0  501    0  0.00000000000E+00 -0.00000000000E+00 -0.14125466498E+04  0.14125466498E+04  0.00000000000E+00 0. -1.
         24    2    1    2    0    0 -0.27669775196E+03  0.11885120499E+02 -0.60831751058E+02  0.29504270436E+03  0.81527869036E+02 0.  0.
        254    2    1    2    0    0  0.27669775196E+03 -0.11885120499E+02 -0.10532791723E+04  0.14159396719E+04  0.90486752491E+03 0.  0.
         23    2    4    4    0    0 -0.27272972186E+03  0.62968692095E+02 -0.10952860405E+03  0.31770882223E+03  0.10293601532E+03 0.  0.
         23    2    4    4    0    0  0.54942747381E+03 -0.74853812594E+02 -0.94375056825E+03  0.10982308497E+04  0.89287299571E+02 0.  0.
          2    1    3    3  502    0 -0.70363012356E+01  0.62384857675E+01  0.12395217420E+02  0.15558587810E+02  0.00000000000E+00 0. -1.
         -1    1    3    3    0  502 -0.26966145072E+03  0.56466347316E+01 -0.73226968478E+02  0.27948411655E+03  0.00000000000E+00 0.  1.
         13    1    5    5    0    0 -0.22115194767E+03  0.53205156206E+02 -0.40583298900E+02  0.23105405591E+03  0.00000000000E+00 0.  1.
        -13    1    5    5    0    0 -0.51577774186E+02  0.97635358895E+01 -0.68945305146E+02  0.86654766313E+02  0.00000000000E+00 0. -1.
          3    1    6    6  503    0  0.12327587973E+03  0.15556256233E+02 -0.24718555265E+03  0.27665797851E+03  0.00000000000E+00 0. -1.
         -3    1    6    6    0  503  0.42615159409E+03 -0.90410068827E+02 -0.69656501560E+03  0.82157287117E+03  0.00000000000E+00 0.  1.
<mgrwt>
<rscale>  0 0.12985444E+04</rscale>
<asrwt>0</asrwt>
<pdfrwt beam="1">  1        2 0.21731487E+00 0.12985444E+04</pdfrwt>
<pdfrwt beam="2">  1       -1 0.45913189E-01 0.12985444E+04</pdfrwt>
<totfact> 0.74972027E+01</totfact>
</mgrwt>
</event>
<event>
12    7  0.1544987E-007  0.1198006E+04  0.7818608E-02  0.9114603E-01
         -1   -1    0    0    0  501 -0.00000000000E+00  0.00000000000E+00  0.27551192917E+03  0.27551192917E+03  0.00000000000E+00 0.  1.
          2   -1    0    0  501    0  0.00000000000E+00 -0.00000000000E+00 -0.13023206770E+04  0.13023206770E+04  0.00000000000E+00 0. -1.
         24    2    1    2    0    0  0.15084765775E+03  0.41367994588E+02  0.32600557658E+02  0.18033096691E+03  0.83607023869E+02 0.  0.
        254    2    1    2    0    0 -0.15084765775E+03 -0.41367994588E+02 -0.10594093055E+04  0.13975016393E+04  0.89788441816E+03 0.  0.
         23    2    4    4    0    0  0.35701257520E+03 -0.12443183291E+03 -0.44636642264E+03  0.59218740125E+03  0.92204528310E+02 0.  0.
         23    2    4    4    0    0 -0.50786023296E+03  0.83063838324E+02 -0.61304288290E+03  0.80531423806E+03  0.88813446560E+02 0.  0.
          4    1    3    3  502    0 -0.27143044163E+01 -0.13756185928E+02  0.39741528335E+00  0.14027046684E+02  0.00000000000E+00 0. -1.
         -3    1    3    3    0  502  0.15356196217E+03  0.55124180516E+02  0.32203142375E+02  0.16630392022E+03  0.00000000000E+00 0.  1.
         13    1    5    5    0    0  0.21612845422E+03 -0.70864382565E+02 -0.19746645392E+03  0.30120801760E+03  0.00000000000E+00 0. -1.
        -13    1    5    5    0    0  0.14088412098E+03 -0.53567450347E+02 -0.24889996872E+03  0.29097938365E+03  0.00000000000E+00 0.  1.
          3    1    6    6  503    0 -0.29506838371E+03  0.39115545343E+01 -0.35367996315E+03  0.46061933053E+03  0.00000000000E+00 0. -1.
         -3    1    6    6    0  503 -0.21279184925E+03  0.79152283790E+02 -0.25936291975E+03  0.34469490753E+03  0.00000000000E+00 0.  1.
<mgrwt>
<rscale>  0 0.11980065E+04</rscale>
<asrwt>0</asrwt>
<pdfrwt beam="1">  1        2 0.20035703E+00 0.11980065E+04</pdfrwt>
<pdfrwt beam="2">  1       -1 0.42386450E-01 0.11980065E+04</pdfrwt>
<totfact> 0.10141773E+02</totfact>
</mgrwt>
</event>
<event>
12    7  0.1544987E-007  0.1489775E+04  0.7818608E-02  0.8891281E-01
          2   -1    0    0  501    0  0.00000000000E+00  0.00000000000E+00  0.88604407951E+03  0.88604407951E+03  0.00000000000E+00 0. -1.
         -1   -1    0    0    0  501 -0.00000000000E+00 -0.00000000000E+00 -0.62621845154E+03  0.62621845154E+03  0.00000000000E+00 0.  1.
         24    2    1    2    0    0  0.33704346031E+03 -0.16926985632E+01 -0.24450522760E+03  0.42429672928E+03  0.81509194507E+02 0.  0.
        254    2    1    2    0    0 -0.33704346031E+03  0.16926985632E+01  0.50433085557E+03  0.10879658018E+04  0.90317153110E+03 0.  0.
         23    2    4    4    0    0  0.18713047465E+03  0.73819501470E+02  0.50554442244E+03  0.55049436094E+03  0.83676430536E+02 0.  0.
         23    2    4    4    0    0 -0.52417393496E+03 -0.72126802907E+02 -0.12135668738E+01  0.53747144083E+03  0.94411266176E+02 0.  0.
          4    1    3    3  502    0  0.28636112768E+02  0.23894881648E+02 -0.26516447704E+02  0.45761493882E+02  0.00000000000E+00 0. -1.
         -3    1    3    3    0  502  0.30840734754E+03 -0.25587580211E+02 -0.21798877989E+03  0.37853523540E+03  0.00000000000E+00 0.  1.
         13    1    5    5    0    0  0.38895032620E+02 -0.18673123923E+02  0.98809930038E+02  0.10781888236E+03  0.00000000000E+00 0. -1.
        -13    1    5    5    0    0  0.14823544203E+03  0.92492625392E+02  0.40673449240E+03  0.44267547858E+03  0.00000000000E+00 0.  1.
          3    1    6    6  503    0 -0.20340248068E+02  0.45526327897E+00 -0.19399460117E+02  0.28111777051E+02  0.00000000000E+00 0. -1.
         -3    1    6    6    0  503 -0.50383368689E+03 -0.72582066186E+02  0.18185893243E+02  0.50935966378E+03  0.00000000000E+00 0.  1.
<mgrwt>
<rscale>  0 0.14897747E+04</rscale>
<asrwt>0</asrwt>
<pdfrwt beam="1">  1        2 0.13631447E+00 0.14897747E+04</pdfrwt>
<pdfrwt beam="2">  1       -1 0.96341300E-01 0.14897747E+04</pdfrwt>
<totfact> 0.34324561E+01</totfact>
</mgrwt>
</event>
<event>
12    7  0.1544987E-007  0.1870261E+04  0.7818608E-02  0.8669802E-01
          2   -1    0    0  501    0  0.00000000000E+00  0.00000000000E+00  0.19058763647E+04  0.19058763647E+04  0.00000000000E+00 0. -1.
         -1   -1    0    0    0  501 -0.00000000000E+00 -0.00000000000E+00 -0.45882792296E+03  0.45882792296E+03  0.00000000000E+00 0.  1.
         24    2    1    2    0    0  0.44287184152E+03 -0.50110302839E+03  0.89180320279E+03  0.11175153599E+04  0.79296368489E+02 0.  0.
        254    2    1    2    0    0 -0.44287184152E+03  0.50110302839E+03  0.55524523892E+03  0.12471889277E+04  0.89439545671E+03 0.  0.
         23    2    4    4    0    0 -0.58483646848E+02  0.85400076612E+02  0.65119313482E+03  0.66570805017E+03  0.91658055842E+02 0.  0.
         23    2    4    4    0    0 -0.38438819467E+03  0.41570295178E+03 -0.95947895898E+02  0.58148087754E+03  0.91382623580E+02 0.  0.
          4    1    3    3  502    0  0.21455470679E+03 -0.25469961032E+03  0.50846779807E+03  0.60781996955E+03  0.00000000000E+00 0. -1.
         -3    1    3    3    0  502  0.22831713473E+03 -0.24640341808E+03  0.38333540472E+03  0.50969539037E+03  0.00000000000E+00 0.  1.
         13    1    5    5    0    0  0.83414308532E+01 -0.91044622286E+01  0.18315384540E+03  0.18356961019E+03  0.00000000000E+00 0. -1.
        -13    1    5    5    0    0 -0.66825077701E+02  0.94504538841E+02  0.46803928942E+03  0.48213843998E+03  0.00000000000E+00 0.  1.
          4    1    6    6  503    0 -0.27488370670E+03  0.25467291724E+03 -0.95668726552E+02  0.38674520323E+03  0.00000000000E+00 0.  1.
         -4    1    6    6    0  503 -0.10950448797E+03  0.16103003455E+03 -0.27916934584E+00  0.19473567430E+03  0.00000000000E+00 0. -1.
<mgrwt>
<rscale>  0 0.18702613E+04</rscale>
<asrwt>0</asrwt>
<pdfrwt beam="1">  1        2 0.29321174E+00 0.18702613E+04</pdfrwt>
<pdfrwt beam="2">  1       -1 0.70588912E-01 0.18702613E+04</pdfrwt>
<totfact> 0.16339063E+01</totfact>
</mgrwt>
</event>
<event>
12    7  0.1596427E-007  0.1385111E+04  0.7818608E-02  0.8964667E-01
         -1   -1    0    0    0  501 -0.00000000000E+00  0.00000000000E+00  0.68930971234E+03  0.68930971234E+03  0.00000000000E+00 0.  1.
          2   -1    0    0  501    0  0.00000000000E+00 -0.00000000000E+00 -0.69581687211E+03  0.69581687211E+03  0.00000000000E+00 0. -1.
         24    2    1    2    0    0 -0.34299377792E+03 -0.26953840492E+02  0.24677119022E+03  0.43105925107E+03  0.80900039598E+02 0.  0.
        254    2    1    2    0    0  0.34299377792E+03  0.26953840492E+02 -0.25327834999E+03  0.95406733338E+03  0.85306700372E+03 0.  0.
         23    2    4    4    0    0  0.57877612548E+03  0.18333200440E+03 -0.10398391237E+03  0.62283928023E+03  0.92323819791E+02 0.  0.
         23    2    4    4    0    0 -0.23578234756E+03 -0.15637816390E+03 -0.14929443762E+03  0.33122805315E+03  0.85882178136E+02 0.  0.
          4    1    3    3  502    0  0.14019399511E+00 -0.36260359975E+01  0.17137686424E+02  0.17517650738E+02  0.00000000000E+00 0. -1.
         -3    1    3    3    0  502 -0.34313397191E+03 -0.23327804495E+02  0.22963350379E+03  0.41354160033E+03  0.00000000000E+00 0.  1.
         13    1    5    5    0    0  0.97675071876E+01 -0.65236543160E+01  0.56859311352E+01  0.13049600575E+02  0.00000000000E+00 0.  1.
        -13    1    5    5    0    0  0.56900861829E+03  0.18985565871E+03 -0.10966984350E+03  0.60978967965E+03  0.00000000000E+00 0. -1.
          2    1    6    6  503    0 -0.57706064040E+02 -0.14369952447E+02 -0.65671901458E+02  0.88596185028E+02  0.00000000000E+00 0. -1.
         -2    1    6    6    0  503 -0.17807628352E+03 -0.14200821146E+03 -0.83622536160E+02  0.24263186812E+03  0.00000000000E+00 0.  1.
<mgrwt>
<rscale>  0 0.13851113E+04</rscale>
<asrwt>0</asrwt>
<pdfrwt beam="1">  1        2 0.10704875E+00 0.13851113E+04</pdfrwt>
<pdfrwt beam="2">  1       -1 0.10604765E+00 0.13851113E+04</pdfrwt>
<totfact> 0.38238308E+01</totfact>
</mgrwt>
</event>
<event>
12    7  0.1544987E-007  0.2136552E+04  0.7818608E-02  0.8545311E-01
         -3   -1    0    0    0  501 -0.00000000000E+00  0.00000000000E+00  0.89188125356E+03  0.89188125356E+03  0.00000000000E+00 0.  1.
          4   -1    0    0  501    0  0.00000000000E+00 -0.00000000000E+00 -0.12795582530E+04  0.12795582530E+04  0.00000000000E+00 0. -1.
         24    2    1    2    0    0  0.77057242732E+03  0.40666614245E+03 -0.28696941784E+03  0.92099637928E+03  0.81997967673E+02 0.  0.
        254    2    1    2    0    0 -0.77057242732E+03 -0.40666614245E+03 -0.10070758158E+03  0.12504431273E+04  0.89123890195E+03 0.  0.
         23    2    4    4    0    0 -0.90483145840E+03 -0.12178416778E+03 -0.50130188849E+02  0.91870504825E+03  0.89188442174E+02 0.  0.
         23    2    4    4    0    0  0.13425903108E+03 -0.28488197467E+03 -0.50577392728E+02  0.33173807900E+03  0.91152912673E+02 0.  0.
          2    1    3    3  502    0  0.32169605244E+02  0.17044851213E+01 -0.18137266342E+02  0.36969571291E+02  0.00000000000E+00 0. -1.
         -1    1    3    3    0  502  0.73840282208E+03  0.40496165733E+03 -0.26883215149E+03  0.88402680799E+03  0.00000000000E+00 0.  1.
         13    1    5    5    0    0 -0.17134680961E+03 -0.48403594888E+02 -0.34672466212E+02  0.18139684969E+03  0.00000000000E+00 0.  1.
        -13    1    5    5    0    0 -0.73348464878E+03 -0.73380572895E+02 -0.15457722637E+02  0.73730819856E+03  0.00000000000E+00 0. -1.
          4    1    6    6  503    0  0.99834791515E+02 -0.20284702747E+03 -0.77157400447E+02  0.23888735126E+03  0.00000000000E+00 0. -1.
         -4    1    6    6    0  503  0.34424239561E+02 -0.82034947200E+02  0.26580007719E+02  0.92850727740E+02  0.00000000000E+00 0.  1.
<mgrwt>
<rscale>  0 0.21365524E+04</rscale>
<asrwt>0</asrwt>
<pdfrwt beam="1">  1        4 0.19685512E+00 0.21365524E+04</pdfrwt>
<pdfrwt beam="2">  1       -3 0.13721250E+00 0.21365524E+04</pdfrwt>
<totfact> 0.11733272E-01</totfact>
</mgrwt>
</event>
<event>
12    7  0.1544987E-007  0.1900604E+04  0.7818608E-02  0.8654556E-01
         -1   -1    0    0    0  501 -0.00000000000E+00  0.00000000000E+00  0.22006691931E+03  0.22006691931E+03  0.00000000000E+00 0.  1.
          2   -1    0    0  501    0  0.00000000000E+00 -0.00000000000E+00 -0.41036321187E+04  0.41036321187E+04  0.00000000000E+00 0. -1.
         24    2    1    2    0    0 -0.70158549822E+02 -0.11602363754E+03 -0.31679632387E+04  0.31718605141E+04  0.79525670957E+02 0.  0.
        254    2    1    2    0    0  0.70158549822E+02  0.11602363754E+03 -0.71560196063E+03  0.11518385239E+04  0.89233520184E+03 0.  0.
         23    2    4    4    0    0 -0.39579822013E+03 -0.27314245080E+02 -0.35038118670E+03  0.53680498422E+03  0.89388567739E+02 0.  0.
         23    2    4    4    0    0  0.46595676995E+03  0.14333788262E+03 -0.36522077393E+03  0.61503353966E+03  0.84962233591E+02 0.  0.
          2    1    3    3  502    0 -0.61127303207E+02 -0.83190425351E+02 -0.28864072578E+04  0.28882527680E+04  0.00000000000E+00 0. -1.
         -1    1    3    3    0  502 -0.90312466155E+01 -0.32833212192E+02 -0.28155598092E+03  0.28360774607E+03  0.00000000000E+00 0.  1.
         13    1    5    5    0    0 -0.13857768940E+03  0.84974131552E+01 -0.17520268732E+03  0.22354409783E+03  0.00000000000E+00 0.  1.
        -13    1    5    5    0    0 -0.25722053073E+03 -0.35811658235E+02 -0.17517849938E+03  0.31326088639E+03  0.00000000000E+00 0. -1.
          2    1    6    6  503    0  0.18993828977E+03  0.92540137665E+02 -0.19017491483E+03  0.28426524450E+03  0.00000000000E+00 0. -1.
         -2    1    6    6    0  503  0.27601848018E+03  0.50797744958E+02 -0.17504585910E+03  0.33076829516E+03  0.00000000000E+00 0.  1.
<mgrwt>
<rscale>  0 0.19006038E+04</rscale>
<asrwt>0</asrwt>
<pdfrwt beam="1">  1        2 0.63132802E+00 0.19006038E+04</pdfrwt>
<pdfrwt beam="2">  1       -1 0.33856449E-01 0.19006038E+04</pdfrwt>
<totfact> 0.25014332E+00</totfact>
</mgrwt>
</event>
<event>
12    7  0.1544987E-007  0.1088321E+04  0.7818608E-02  0.9216650E-01
          2   -1    0    0  501    0  0.00000000000E+00  0.00000000000E+00  0.22811097389E+04  0.22811097389E+04  0.00000000000E+00 0. -1.
         -3   -1    0    0    0  501 -0.00000000000E+00 -0.00000000000E+00 -0.12980989407E+03  0.12980989407E+03  0.00000000000E+00 0.  1.
         24    2    1    2    0    0 -0.14238217075E+03 -0.54271009645E+02  0.18163291196E+03  0.24891916604E+03  0.75843335106E+02 0.  0.
        254    2    1    2    0    0  0.14238217075E+03  0.54271009645E+02  0.19696669329E+04  0.21620004670E+04  0.87831666700E+03 0.  0.
         23    2    4    4    0    0 -0.30359401522E+03  0.15008037672E+03  0.43019600187E+03  0.55390821623E+03  0.83977773437E+02 0.  0.
         23    2    4    4    0    0  0.44597618597E+03 -0.95809367073E+02  0.15394709310E+04  0.16080922507E+04  0.88970478721E+02 0.  0.
          2    1    3    3  502    0 -0.61107771225E+02 -0.54946811809E+02  0.12598188710E+03  0.15041525092E+03  0.00000000000E+00 0. -1.
         -1    1    3    3    0  502 -0.81274399521E+02  0.67580216338E+00  0.55651024867E+02  0.98503915124E+02  0.00000000000E+00 0.  1.
         13    1    5    5    0    0 -0.18278026388E+03  0.45184328013E+02  0.21577685313E+03  0.28637370464E+03  0.00000000000E+00 0. -1.
        -13    1    5    5    0    0 -0.12081375134E+03  0.10489604870E+03  0.21441914874E+03  0.26753451159E+03  0.00000000000E+00 0.  1.
          4    1    6    6  503    0 -0.10486512443E+01  0.61482990387E+01  0.21568351567E+02  0.22452060926E+02  0.00000000000E+00 0. -1.
         -4    1    6    6    0  503  0.44702483721E+03 -0.10195766611E+03  0.15179025795E+04  0.15856401898E+04  0.00000000000E+00 0.  1.
<mgrwt>
<rscale>  0 0.10883209E+04</rscale>
<asrwt>0</asrwt>
<pdfrwt beam="1">  1        2 0.35093993E+00 0.10883209E+04</pdfrwt>
<pdfrwt beam="2">  1       -3 0.19970755E-01 0.10883209E+04</pdfrwt>
<totfact> 0.69571506E+01</totfact>
</mgrwt>
</event>
<event>
12    7  0.1544987E-007  0.1088113E+04  0.7818608E-02  0.9216856E-01
          2   -1    0    0  501    0  0.00000000000E+00  0.00000000000E+00  0.48087058842E+03  0.48087058842E+03  0.00000000000E+00 0. -1.
         -1   -1    0    0    0  501 -0.00000000000E+00 -0.00000000000E+00 -0.61554472876E+03  0.61554472876E+03  0.00000000000E+00 0.  1.
         24    2    1    2    0    0  0.71257278538E+02  0.41043077808E+02  0.88549984943E+02  0.14479048490E+03  0.79756195396E+02 0.  0.
        254    2    1    2    0    0 -0.71257278538E+02 -0.41043077808E+02 -0.22322412528E+03  0.95162483228E+03  0.92141124224E+03 0.  0.
         23    2    4    4    0    0 -0.38460344790E+03  0.18810101238E+03  0.87167492645E+02  0.44620757762E+03  0.90560629168E+02 0.  0.
         23    2    4    4    0    0  0.31334616936E+03 -0.22914409019E+03 -0.31039161793E+03  0.50541725466E+03  0.91710462348E+02 0.  0.
          4    1    3    3  502    0  0.46096678108E+02  0.28904774335E+02  0.10059667027E+03  0.11436817643E+03  0.00000000000E+00 0. -1.
         -3    1    3    3    0  502  0.25160600429E+02  0.12138303474E+02 -0.12046685324E+02  0.30422308468E+02  0.00000000000E+00 0.  1.
         13    1    5    5    0    0 -0.32797564086E+03  0.18119606291E+03  0.99832718553E+02  0.38777133197E+03  0.00000000000E+00 0. -1.
        -13    1    5    5    0    0 -0.56627807045E+02  0.69049494789E+01 -0.12665225908E+02  0.58436245647E+02  0.00000000000E+00 0.  1.
          3    1    6    6  503    0  0.27885491653E+03 -0.19840928327E+03 -0.22886329239E+03  0.41170950288E+03  0.00000000000E+00 0. -1.
         -3    1    6    6    0  503  0.34491252837E+02 -0.30734806927E+02 -0.81528325538E+02  0.93707751782E+02  0.00000000000E+00 0.  1.
<mgrwt>
<rscale>  0 0.10881128E+04</rscale>
<asrwt>0</asrwt>
<pdfrwt beam="1">  1        2 0.73980091E-01 0.10881128E+04</pdfrwt>
<pdfrwt beam="2">  1       -1 0.94699189E-01 0.10881128E+04</pdfrwt>
<totfact> 0.79013047E+01</totfact>
</mgrwt>
</event>
<event>
12    7  0.1544987E-007  0.1600865E+04  0.7818608E-02  0.8820017E-01
          2   -1    0    0  501    0  0.00000000000E+00  0.00000000000E+00  0.80922153303E+03  0.80922153303E+03  0.00000000000E+00 0. -1.
         -1   -1    0    0    0  501 -0.00000000000E+00 -0.00000000000E+00 -0.79173890862E+03  0.79173890862E+03  0.00000000000E+00 0.  1.
         24    2    1    2    0    0 -0.41226000663E+03 -0.19623175714E+03  0.32705373819E+03  0.56650365017E+03  0.74141907242E+02 0.  0.
        254    2    1    2    0    0  0.41226000663E+03  0.19623175714E+03 -0.30957111377E+03  0.10344567915E+04  0.87510077328E+03 0.  0.
         23    2    4    4    0    0 -0.26434819286E+03  0.62085946595E+02 -0.13695477205E+03  0.31767212197E+03  0.91784179746E+02 0.  0.
         23    2    4    4    0    0  0.67660819949E+03  0.13414581054E+03 -0.17261634172E+03  0.71678466952E+03  0.90499209498E+02 0.  0.
          2    1    3    3  502    0 -0.24850316816E+03 -0.85897771096E+02  0.15942402478E+03  0.30748702630E+03  0.00000000000E+00 0. -1.
         -1    1    3    3    0  502 -0.16375683848E+03 -0.11033398604E+03  0.16762971341E+03  0.25901662387E+03  0.00000000000E+00 0.  1.
         13    1    5    5    0    0 -0.28815886728E+02 -0.18366948383E+02 -0.34369555352E+02  0.48466137209E+02  0.00000000000E+00 0.  1.
        -13    1    5    5    0    0 -0.23553230613E+03  0.80452894979E+02 -0.10258521670E+03  0.26920598476E+03  0.00000000000E+00 0. -1.
          4    1    6    6  503    0  0.65292381559E+03  0.14577798938E+03 -0.16194509937E+03  0.68832183342E+03  0.00000000000E+00 0. -1.
         -4    1    6    6    0  503  0.23684383909E+02 -0.11632178842E+02 -0.10671242346E+02  0.28462836102E+02  0.00000000000E+00 0.  1.
<mgrwt>
<rscale>  0 0.16008650E+04</rscale>
<asrwt>0</asrwt>
<pdfrwt beam="1">  1        2 0.12449562E+00 0.16008650E+04</pdfrwt>
<pdfrwt beam="2">  1       -1 0.12180599E+00 0.16008650E+04</pdfrwt>
<totfact> 0.22164545E+01</totfact>
</mgrwt>
</event>
<event>
12    7  0.1544987E-007  0.2888585E+04  0.7818608E-02  0.8276282E-01
          2   -1    0    0  501    0  0.00000000000E+00  0.00000000000E+00  0.32984914553E+04  0.32984914553E+04  0.00000000000E+00 0. -1.
         -1   -1    0    0    0  501 -0.00000000000E+00 -0.00000000000E+00 -0.63240454369E+03  0.63240454369E+03  0.00000000000E+00 0.  1.
         24    2    1    2    0    0  0.35796876820E+03  0.10253889886E+04  0.21941723850E+04  0.24495845850E+04  0.80671973941E+02 0.  0.
        254    2    1    2    0    0 -0.35796876820E+03 -0.10253889886E+04  0.47191452667E+03  0.14813114140E+04  0.88995278969E+03 0.  0.
         23    2    4    4    0    0  0.26696217496E+03 -0.44597103067E+03  0.62221990754E+02  0.53133181535E+03  0.91010762094E+02 0.  0.
         23    2    4    4    0    0 -0.62493094316E+03 -0.57941795789E+03  0.40969253591E+03  0.94997959864E+03  0.91375107160E+02 0.  0.
          2    1    3    3  502    0  0.28435678455E+03  0.80790619774E+03  0.18008833440E+04  0.19941795366E+04  0.00000000000E+00 0. -1.
         -3    1    3    3    0  502  0.73611983648E+02  0.21748279081E+03  0.39328904094E+03  0.45540504845E+03  0.00000000000E+00 0.  1.
         13    1    5    5    0    0  0.72836238428E+02 -0.57169536126E+02  0.20535517277E+01  0.92615822428E+02  0.00000000000E+00 0. -1.
        -13    1    5    5    0    0  0.19412593653E+03 -0.38880149454E+03  0.60168439027E+02  0.43871599292E+03  0.00000000000E+00 0.  1.
          4    1    6    6  503    0 -0.11378935937E+03 -0.63539891511E+02  0.50314899680E+02  0.13970298941E+03  0.00000000000E+00 0. -1.
         -4    1    6    6    0  503 -0.51114158379E+03 -0.51587806638E+03  0.35937763623E+03  0.81027660923E+03  0.00000000000E+00 0.  1.
<mgrwt>
<rscale>  0 0.28885851E+04</rscale>
<asrwt>0</asrwt>
<pdfrwt beam="1">  1        2 0.50746021E+00 0.28885851E+04</pdfrwt>
<pdfrwt beam="2">  1       -1 0.97293009E-01 0.28885851E+04</pdfrwt>
<totfact> 0.11113457E+00</totfact>
</mgrwt>
</event>
<event>
12    7  0.1756141E-007  0.1452005E+04  0.7818608E-02  0.8917012E-01
         -1   -1    0    0    0  501 -0.00000000000E+00  0.00000000000E+00  0.17550558606E+03  0.17550558606E+03  0.00000000000E+00 0.  1.
          2   -1    0    0  501    0  0.00000000000E+00 -0.00000000000E+00 -0.30032059278E+04  0.30032059278E+04  0.00000000000E+00 0. -1.
         24    2    1    2    0    0 -0.38650504930E+02 -0.21079165755E+03 -0.34151059744E+02  0.23134160253E+03  0.80160200567E+02 0.  0.
        254    2    1    2    0    0  0.38650504930E+02  0.21079165755E+03 -0.27935492820E+04  0.29473699113E+04  0.91495618409E+03 0.  0.
         23    2    4    4    0    0 -0.25278547797E+03  0.41598569141E+03 -0.21474562863E+04  0.22038439747E+04  0.91734234378E+02 0.  0.
         23    2    4    4    0    0  0.29143598290E+03 -0.20519403386E+03 -0.64609299564E+03  0.74352593660E+03  0.91406431532E+02 0.  0.
          2    1    3    3  502    0  0.11350188236E+01  0.12018034388E+01 -0.14676980026E+02  0.14769777992E+02  0.00000000000E+00 0. -1.
         -3    1    3    3    0  502 -0.39785523754E+02 -0.21199346099E+03 -0.19474079718E+02  0.21657182454E+03  0.00000000000E+00 0.  1.
         13    1    5    5    0    0  0.78418260564E+01  0.15457409745E+02 -0.65903811871E+02  0.68144979060E+02  0.00000000000E+00 0. -1.
        -13    1    5    5    0    0 -0.26062730403E+03  0.40052828167E+03 -0.20815524745E+04  0.21356989956E+04  0.00000000000E+00 0.  1.
          3    1    6    6  503    0 -0.49012316426E+01 -0.15127921843E+02 -0.28772097717E+02  0.32874149388E+02  0.00000000000E+00 0. -1.
         -3    1    6    6    0  503  0.29633721454E+03 -0.19006611202E+03 -0.61732089792E+03  0.71065178722E+03  0.00000000000E+00 0.  1.
<mgrwt>
<rscale>  0 0.14520047E+04</rscale>
<asrwt>0</asrwt>
<pdfrwt beam="1">  1        2 0.46203171E+00 0.14520047E+04</pdfrwt>
<pdfrwt beam="2">  1       -1 0.27000858E-01 0.14520047E+04</pdfrwt>
<totfact> 0.23663754E+01</totfact>
</mgrwt>
</event>
<event>
12    7  0.1544987E-007  0.2198577E+04  0.7818608E-02  0.8519021E-01
         -1   -1    0    0    0  501 -0.00000000000E+00  0.00000000000E+00  0.13984476184E+04  0.13984476184E+04  0.00000000000E+00 0.  1.
          2   -1    0    0  501    0  0.00000000000E+00 -0.00000000000E+00 -0.86412610977E+03  0.86412610977E+03  0.00000000000E+00 0. -1.
         24    2    1    2    0    0  0.94791685058E+02  0.88108906622E+03  0.46805818678E+03  0.10053443311E+04  0.79594923041E+02 0.  0.
        254    2    1    2    0    0 -0.94791685058E+02 -0.88108906622E+03  0.66263321811E+02  0.12572293970E+04  0.88934330978E+03 0.  0.
         23    2    4    4    0    0  0.73029316857E+02 -0.52876284208E+03  0.44863146927E+03  0.70312874864E+03  0.90534069002E+02 0.  0.
         23    2    4    4    0    0 -0.16782100191E+03 -0.35232622414E+03 -0.38236814746E+03  0.55410064835E+03  0.92328064035E+02 0.  0.
          4    1    3    3  502    0  0.76582283997E+02  0.84775924088E+03  0.44063318607E+03  0.95849787761E+03  0.00000000000E+00 0. -1.
         -3    1    3    3    0  502  0.18209401061E+02  0.33329825338E+02  0.27425000709E+02  0.46846453526E+02  0.00000000000E+00 0.  1.
         13    1    5    5    0    0  0.14131410922E+02 -0.25527853336E+03  0.16238391586E+03  0.30287846159E+03  0.00000000000E+00 0. -1.
        -13    1    5    5    0    0  0.58897905935E+02 -0.27348430872E+03  0.28624755341E+03  0.40025028704E+03  0.00000000000E+00 0.  1.
          2    1    6    6  503    0 -0.10846546912E+03 -0.13292861192E+03 -0.19330654112E+03  0.25846120153E+03  0.00000000000E+00 0. -1.
         -2    1    6    6    0  503 -0.59355532797E+02 -0.21939761223E+03 -0.18906160634E+03  0.29563944682E+03  0.00000000000E+00 0.  1.
<mgrwt>
<rscale>  0 0.21985769E+04</rscale>
<asrwt>0</asrwt>
<pdfrwt beam="1">  1        2 0.13294248E+00 0.21985769E+04</pdfrwt>
<pdfrwt beam="2">  1       -1 0.21514579E+00 0.21985769E+04</pdfrwt>
<totfact> 0.38388188E+00</totfact>
</mgrwt>
</event>
<event>
12    7  0.1544987E-007  0.1789671E+04  0.7818608E-02  0.8711812E-01
          2   -1    0    0  501    0  0.00000000000E+00  0.00000000000E+00  0.41973532326E+03  0.41973532326E+03  0.00000000000E+00 0. -1.
         -1   -1    0    0    0  501 -0.00000000000E+00 -0.00000000000E+00 -0.19077035930E+04  0.19077035930E+04  0.00000000000E+00 0.  1.
         24    2    1    2    0    0  0.55439147402E+03  0.58708756604E+02 -0.92523961054E+02  0.57076583582E+03  0.80102006205E+02 0.  0.
        254    2    1    2    0    0 -0.55439147402E+03 -0.58708756604E+02 -0.13954443086E+04  0.17566730804E+04  0.90985650974E+03 0.  0.
         23    2    4    4    0    0 -0.48418796980E+03 -0.28338123367E+03 -0.13879454892E+04  0.14998522256E+04  0.91766573033E+02 0.  0.
         23    2    4    4    0    0 -0.70203504217E+02  0.22467247707E+03 -0.74988194370E+01  0.25682085481E+03  0.10244249711E+03 0.  0.
          4    1    3    3  502    0  0.54806345430E+03  0.52237728462E+02 -0.99336921979E+02  0.55943735510E+03  0.00000000000E+00 0. -1.
         -3    1    3    3    0  502  0.63280197221E+01  0.64710281414E+01  0.68129609245E+01  0.11328480718E+02  0.00000000000E+00 0.  1.
         13    1    5    5    0    0 -0.36297770575E+03 -0.17036208900E+03 -0.10342295396E+04  0.11092370337E+04  0.00000000000E+00 0. -1.
        -13    1    5    5    0    0 -0.12121026405E+03 -0.11301914467E+03 -0.35371594957E+03  0.39061519192E+03  0.00000000000E+00 0.  1.
          4    1    6    6  503    0 -0.58964515623E+02  0.14512906644E+03 -0.51911986910E+02  0.16502761713E+03  0.00000000000E+00 0. -1.
         -4    1    6    6    0  503 -0.11238988593E+02  0.79543410627E+02  0.44413167473E+02  0.91793237680E+02  0.00000000000E+00 0.  1.
<mgrwt>
<rscale>  0 0.17896710E+04</rscale>
<asrwt>0</asrwt>
<pdfrwt beam="1">  1        2 0.64574665E-01 0.17896710E+04</pdfrwt>
<pdfrwt beam="2">  1       -1 0.29349286E+00 0.17896710E+04</pdfrwt>
<totfact> 0.29631390E+00</totfact>
</mgrwt>
</event>
<event>
12    7  0.1544987E-007  0.2270284E+04  0.7818608E-02  0.8489731E-01
          2   -1    0    0  501    0  0.00000000000E+00  0.00000000000E+00  0.14877579319E+04  0.14877579319E+04  0.00000000000E+00 0. -1.
         -1   -1    0    0    0  501 -0.00000000000E+00 -0.00000000000E+00 -0.86610025445E+03  0.86610025445E+03  0.00000000000E+00 0.  1.
         24    2    1    2    0    0  0.33931365000E+03 -0.43252399820E+03  0.10758507730E+04  0.12107678022E+04  0.79328576956E+02 0.  0.
        254    2    1    2    0    0 -0.33931365000E+03  0.43252399820E+03 -0.45419309556E+03  0.11430903841E+04  0.89339436759E+03 0.  0.
         23    2    4    4    0    0  0.52411965610E+02 -0.13950000461E+03  0.13922320333E+03  0.22479145386E+03  0.94555972607E+02 0.  0.
         23    2    4    4    0    0 -0.39172561561E+03  0.57202400281E+03 -0.59341629889E+03  0.91829893023E+03  0.10232108164E+03 0.  0.
          2    1    3    3  502    0  0.27995495685E+03 -0.32623200635E+03  0.89314321207E+03  0.99121485920E+03  0.00000000000E+00 0. -1.
         -1    1    3    3    0  502  0.59358693151E+02 -0.10629199185E+03  0.18270756092E+03  0.21955294305E+03  0.00000000000E+00 0.  1.
         13    1    5    5    0    0  0.15102794196E+02 -0.70533117517E+02  0.12612299356E+03  0.14529289234E+03  0.00000000000E+00 0. -1.
        -13    1    5    5    0    0  0.37309171415E+02 -0.68966887095E+02  0.13100209766E+02  0.79498561516E+02  0.00000000000E+00 0.  1.
          1    1    6    6  503    0 -0.30221710499E+03  0.44054869595E+03 -0.39723745316E+03  0.66574464042E+03  0.00000000000E+00 0.  1.
         -1    1    6    6    0  503 -0.89508510622E+02  0.13147530686E+03 -0.19617884574E+03  0.25255428981E+03  0.00000000000E+00 0. -1.
<mgrwt>
<rscale>  0 0.22702841E+04</rscale>
<asrwt>0</asrwt>
<pdfrwt beam="1">  1        2 0.22888584E+00 0.22702841E+04</pdfrwt>
<pdfrwt beam="2">  1       -1 0.13324619E+00 0.22702841E+04</pdfrwt>
<totfact> 0.63608327E+00</totfact>
</mgrwt>
</event>
<event>
12    7  0.1544987E-007  0.1699472E+04  0.7818608E-02  0.8761666E-01
          2   -1    0    0  501    0  0.00000000000E+00  0.00000000000E+00  0.11656095448E+04  0.11656095448E+04  0.00000000000E+00 0. -1.
         -1   -1    0    0    0  501 -0.00000000000E+00 -0.00000000000E+00 -0.61946203707E+03  0.61946203707E+03  0.00000000000E+00 0.  1.
         24    2    1    2    0    0 -0.43708577419E+02 -0.60222301664E+03  0.31176269182E+03  0.68430434177E+03  0.80581974709E+02 0.  0.
        254    2    1    2    0    0  0.43708577419E+02  0.60222301664E+03  0.23438481593E+03  0.11007672401E+04  0.89003891683E+03 0.  0.
         23    2    4    4    0    0 -0.14975674904E+03  0.37144055511E+03  0.52908069494E+03  0.66977256027E+03  0.90960050911E+02 0.  0.
         23    2    4    4    0    0  0.19346532646E+03  0.23078246153E+03 -0.29469587901E+03  0.43099467985E+03  0.90671803016E+02 0.  0.
          2    1    3    3  502    0 -0.11067193365E+02 -0.13751434434E+03  0.34586056010E+02  0.14222824241E+03  0.00000000000E+00 0. -1.
         -1    1    3    3    0  502 -0.32641384054E+02 -0.46470867230E+03  0.27717663581E+03  0.54207609936E+03  0.00000000000E+00 0.  1.
         13    1    5    5    0    0 -0.14894935282E+03  0.36556542083E+03  0.48520595778E+03  0.62549884738E+03  0.00000000000E+00 0.  1.
        -13    1    5    5    0    0 -0.80739622181E+00  0.58751342815E+01  0.43874737165E+02  0.44273712887E+02  0.00000000000E+00 0. -1.
          2    1    6    6  503    0  0.28688246618E+02  0.27011853354E+02 -0.39863568196E+01  0.39604882986E+02  0.00000000000E+00 0. -1.
         -2    1    6    6    0  503  0.16477707984E+03  0.20377060817E+03 -0.29070952219E+03  0.39138979687E+03  0.00000000000E+00 0.  1.
<mgrwt>
<rscale>  0 0.16994715E+04</rscale>
<asrwt>0</asrwt>
<pdfrwt beam="1">  1        2 0.17932454E+00 0.16994715E+04</pdfrwt>
<pdfrwt beam="2">  1       -1 0.95301852E-01 0.16994715E+04</pdfrwt>
<totfact> 0.22921098E+01</totfact>
</mgrwt>
</event>
<event>
12    7  0.1544987E-007  0.1632420E+04  0.7818608E-02  0.8800875E-01
          2   -1    0    0  501    0  0.00000000000E+00  0.00000000000E+00  0.16357770049E+04  0.16357770049E+04  0.00000000000E+00 0. -1.
         -1   -1    0    0    0  501 -0.00000000000E+00 -0.00000000000E+00 -0.40726745936E+03  0.40726745936E+03  0.00000000000E+00 0.  1.
         24    2    1    2    0    0  0.32979516103E+03 -0.28566303361E+03  0.88850709871E+03  0.99266704892E+03  0.74664506483E+02 0.  0.
        254    2    1    2    0    0 -0.32979516103E+03  0.28566303361E+03  0.34000244679E+03  0.10503774153E+04  0.89292935542E+03 0.  0.
         23    2    4    4    0    0 -0.28008585736E+02  0.52596466226E+03  0.10747670105E+02  0.53502276060E+03  0.93330247646E+02 0.  0.
         23    2    4    4    0    0 -0.30178657530E+03 -0.24030162865E+03  0.32925477668E+03  0.51535465471E+03  0.91442344672E+02 0.  0.
          2    1    3    3  502    0  0.22534262817E+03 -0.16644400984E+03  0.62926382700E+03  0.68880757287E+03  0.00000000000E+00 0. -1.
         -1    1    3    3    0  502  0.10445253286E+03 -0.11921902377E+03  0.25924327172E+03  0.30385947604E+03  0.00000000000E+00 0.  1.
         13    1    5    5    0    0 -0.57912893997E+02  0.43919968860E+03  0.42924728385E+01  0.44302222865E+03  0.00000000000E+00 0.  1.
        -13    1    5    5    0    0  0.29904308261E+02  0.86764973670E+02  0.64551972668E+01  0.92000531956E+02  0.00000000000E+00 0. -1.
          4    1    6    6  503    0 -0.24095222398E+03 -0.14234851468E+03  0.21379454735E+03  0.35217777094E+03  0.00000000000E+00 0. -1.
         -4    1    6    6    0  503 -0.60834351322E+02 -0.97953113974E+02  0.11546022933E+03  0.16317688377E+03  0.00000000000E+00 0.  1.
<mgrwt>
<rscale>  0 0.16324200E+04</rscale>
<asrwt>0</asrwt>
<pdfrwt beam="1">  1        2 0.25165800E+00 0.16324200E+04</pdfrwt>
<pdfrwt beam="2">  1       -1 0.62656533E-01 0.16324200E+04</pdfrwt>
<totfact> 0.29983976E+01</totfact>
</mgrwt>
</event>
<event>
12    7  0.1544987E-007  0.1346810E+04  0.7818608E-02  0.8993247E-01
          2   -1    0    0  501    0  0.00000000000E+00  0.00000000000E+00  0.25292063257E+03  0.25292063257E+03  0.00000000000E+00 0. -1.
         -1   -1    0    0    0  501 -0.00000000000E+00 -0.00000000000E+00 -0.17929502224E+04  0.17929502224E+04  0.00000000000E+00 0.  1.
         24    2    1    2    0    0 -0.32349245111E+03 -0.12990525626E+03 -0.25454656113E+03  0.43898217693E+03  0.79929083252E+02 0.  0.
        254    2    1    2    0    0  0.32349245111E+03  0.12990525626E+03 -0.12854830287E+04  0.16068886780E+04  0.89894486204E+03 0.  0.
         23    2    4    4    0    0  0.49429388258E+03  0.20980213311E+03 -0.12887767067E+04  0.13991061764E+04  0.90605274814E+02 0.  0.
         23    2    4    4    0    0 -0.17080143147E+03 -0.79896876848E+02  0.32936779983E+01  0.20778250159E+03  0.87212841539E+02 0.  0.
          4    1    3    3  502    0 -0.22843069799E+03 -0.11558741208E+03 -0.14898109634E+03  0.29620330971E+03  0.00000000000E+00 0. -1.
         -3    1    3    3    0  502 -0.95061753117E+02 -0.14317844181E+02 -0.10556546480E+03  0.14277886722E+03  0.00000000000E+00 0.  1.
         13    1    5    5    0    0  0.12261811399E+03  0.11125074773E+02 -0.29196684234E+03  0.31686528082E+03  0.00000000000E+00 0. -1.
        -13    1    5    5    0    0  0.37167576859E+03  0.19867705834E+03 -0.99680986433E+03  0.10822408956E+04  0.00000000000E+00 0.  1.
          4    1    6    6  503    0 -0.55977638667E+02  0.14965723609E+02  0.94753254351E+01  0.58713292413E+02  0.00000000000E+00 0. -1.
         -4    1    6    6    0  503 -0.11482379281E+03 -0.94862600458E+02 -0.61816474368E+01  0.14906920918E+03  0.00000000000E+00 0.  1.
<mgrwt>
<rscale>  0 0.13468097E+04</rscale>
<asrwt>0</asrwt>
<pdfrwt beam="1">  1        2 0.38910866E-01 0.13468097E+04</pdfrwt>
<pdfrwt beam="2">  1       -1 0.27583850E+00 0.13468097E+04</pdfrwt>
<totfact> 0.70629337E+00</totfact>
</mgrwt>
</event>
<event>
12    7  0.1544987E-007  0.2696045E+04  0.7818608E-02  0.8336289E-01
          2   -1    0    0  501    0  0.00000000000E+00  0.00000000000E+00  0.33072742151E+04  0.33072742151E+04  0.00000000000E+00 0. -1.
         -1   -1    0    0    0  501 -0.00000000000E+00 -0.00000000000E+00 -0.54944471355E+03  0.54944471355E+03  0.00000000000E+00 0.  1.
         24    2    1    2    0    0  0.10523814486E+04  0.54833287860E+03  0.14692426689E+04  0.18903326205E+04  0.80670545040E+02 0.  0.
        254    2    1    2    0    0 -0.10523814486E+04 -0.54833287860E+03  0.12885868326E+04  0.19663863081E+04  0.89333276466E+03 0.  0.
         23    2    4    4    0    0 -0.35478147778E+02 -0.37452820719E+03  0.12086646370E+03  0.40560114446E+03  0.91506881659E+02 0.  0.
         23    2    4    4    0    0 -0.10169033009E+04 -0.17380467142E+03  0.11677203689E+04  0.15607851637E+04  0.90438266529E+02 0.  0.
          4    1    3    3  502    0  0.62781175925E+03  0.31177520271E+03  0.80788114326E+03  0.10695902597E+04  0.00000000000E+00 0. -1.
         -3    1    3    3    0  502  0.42456968938E+03  0.23655767589E+03  0.66136152565E+03  0.82074236077E+03  0.00000000000E+00 0.  1.
         13    1    5    5    0    0 -0.63596711586E+02 -0.27919296241E+03  0.74236511010E+02  0.29581127691E+03  0.00000000000E+00 0.  1.
        -13    1    5    5    0    0  0.28118563808E+02 -0.95335244781E+02  0.46629952691E+02  0.10978986755E+03  0.00000000000E+00 0. -1.
          2    1    6    6  503    0 -0.98762424563E+03 -0.15234933669E+03  0.11272642731E+04  0.15064317815E+04  0.00000000000E+00 0.  1.
         -2    1    6    6    0  503 -0.29279055223E+02 -0.21455334726E+02  0.40456095829E+02  0.54353382164E+02  0.00000000000E+00 0. -1.
<mgrwt>
<rscale>  0 0.26960448E+04</rscale>
<asrwt>0</asrwt>
<pdfrwt beam="1">  1        2 0.50881141E+00 0.26960448E+04</pdfrwt>
<pdfrwt beam="2">  1       -1 0.84529958E-01 0.26960448E+04</pdfrwt>
<totfact> 0.15224967E+00</totfact>
</mgrwt>
</event>
<event>
12    7  0.1544987E-007  0.2779453E+04  0.7818608E-02  0.8309676E-01
         -1   -1    0    0    0  501 -0.00000000000E+00  0.00000000000E+00  0.12204645824E+04  0.12204645824E+04  0.00000000000E+00 0.  1.
          2   -1    0    0  501    0  0.00000000000E+00 -0.00000000000E+00 -0.15824627296E+04  0.15824627296E+04  0.00000000000E+00 0. -1.
         24    2    1    2    0    0  0.11283706654E+04  0.46441561462E+03  0.94450880124E+02  0.12266124264E+04  0.82187919401E+02 0.  0.
        254    2    1    2    0    0 -0.11283706654E+04 -0.46441561462E+03 -0.45644902730E+03  0.15763148856E+04  0.88742362060E+03 0.  0.
         23    2    4    4    0    0 -0.76633200824E+03 -0.72042491077E+03 -0.31441664357E+03  0.11018869661E+04  0.94975057286E+02 0.  0.
         23    2    4    4    0    0 -0.36203865716E+03  0.25600929615E+03 -0.14203238373E+03  0.47442791945E+03  0.91081851804E+02 0.  0.
          2    1    3    3  502    0  0.23644501926E+03  0.70193058118E+02  0.40603500455E+02  0.24996391097E+03  0.00000000000E+00 0. -1.
         -1    1    3    3    0  502  0.89192564614E+03  0.39422255650E+03  0.53847379668E+02  0.97664851538E+03  0.00000000000E+00 0.  1.
         13    1    5    5    0    0 -0.76587093481E+03 -0.70702190076E+03 -0.31348205882E+03  0.10884435025E+04  0.00000000000E+00 0. -1.
        -13    1    5    5    0    0 -0.46107342226E+00 -0.13403010007E+02 -0.93458474941E+00  0.13443463639E+02  0.00000000000E+00 0.  1.
          2    1    6    6  503    0 -0.32819541203E+03  0.21782035901E+03 -0.15240595540E+03  0.42235709124E+03  0.00000000000E+00 0. -1.
         -2    1    6    6    0  503 -0.33843245133E+02  0.38188937144E+02  0.10373571675E+02  0.52070828211E+02  0.00000000000E+00 0.  1.
<mgrwt>
<rscale>  0 0.27794530E+04</rscale>
<asrwt>0</asrwt>
<pdfrwt beam="1">  1        2 0.24345580E+00 0.27794530E+04</pdfrwt>
<pdfrwt beam="2">  1       -1 0.18776378E+00 0.27794530E+04</pdfrwt>
<totfact> 0.20743195E+00</totfact>
</mgrwt>
</event>
<event>
12    7  0.1544987E-007  0.2022260E+04  0.7818608E-02  0.8596283E-01
         -1   -1    0    0    0  501 -0.00000000000E+00  0.00000000000E+00  0.14760624688E+04  0.14760624688E+04  0.00000000000E+00 0.  1.
          2   -1    0    0  501    0  0.00000000000E+00 -0.00000000000E+00 -0.69264276495E+03  0.69264276495E+03  0.00000000000E+00 0. -1.
         24    2    1    2    0    0  0.42559342377E+03 -0.45478723505E+02  0.10469890337E+04  0.11339600657E+04  0.80506628734E+02 0.  0.
        254    2    1    2    0    0 -0.42559342377E+03  0.45478723505E+02 -0.26356932989E+03  0.10347451680E+04  0.90445049307E+03 0.  0.
         23    2    4    4    0    0  0.26207977765E+03  0.12010078251E+03 -0.10889500035E+03  0.32006563568E+03  0.86451617849E+02 0.  0.
         23    2    4    4    0    0 -0.68767320142E+03 -0.74622059002E+02 -0.15467432953E+03  0.71467953233E+03  0.91541258898E+02 0.  0.
          4    1    3    3  502    0  0.13295260850E+03  0.95497916006E+01  0.25290360776E+03  0.28588079587E+03  0.00000000000E+00 0. -1.
         -3    1    3    3    0  502  0.29264081527E+03 -0.55028515106E+02  0.79408542594E+03  0.84807926983E+03  0.00000000000E+00 0.  1.
         13    1    5    5    0    0  0.21259167218E+03  0.55764640505E+02 -0.77885225852E+02  0.23317594777E+03  0.00000000000E+00 0. -1.
        -13    1    5    5    0    0  0.49488105467E+02  0.64336142002E+02 -0.31009774503E+02  0.86889687910E+02  0.00000000000E+00 0.  1.
          1    1    6    6  503    0 -0.58773543315E+03 -0.63603647817E+02 -0.97913590432E+02  0.59922068939E+03  0.00000000000E+00 0. -1.
         -1    1    6    6    0  503 -0.99937768266E+02 -0.11018411184E+02 -0.56760739102E+02  0.11545884295E+03  0.00000000000E+00 0.  1.
<mgrwt>
<rscale>  0 0.20222601E+04</rscale>
<asrwt>0</asrwt>
<pdfrwt beam="1">  1        2 0.10656043E+00 0.20222601E+04</pdfrwt>
<pdfrwt beam="2">  1       -1 0.22708653E+00 0.20222601E+04</pdfrwt>
<totfact> 0.43382156E+00</totfact>
</mgrwt>
</event>
<event>
12    7  0.1544987E-007  0.1379166E+04  0.7818608E-02  0.8969039E-01
          2   -1    0    0  501    0  0.00000000000E+00  0.00000000000E+00  0.37196062430E+03  0.37196062430E+03  0.00000000000E+00 0. -1.
         -1   -1    0    0    0  501 -0.00000000000E+00 -0.00000000000E+00 -0.12784279592E+04  0.12784279592E+04  0.00000000000E+00 0.  1.
         24    2    1    2    0    0 -0.48724535111E+01 -0.53264839171E+02  0.20465041097E+03  0.22615038149E+03  0.80008252335E+02 0.  0.
        254    2    1    2    0    0  0.48724535111E+01  0.53264839171E+02 -0.11111177459E+04  0.14242382020E+04  0.88938795076E+03 0.  0.
         23    2    4    4    0    0 -0.16710159865E+03 -0.16341074506E+03  0.23865794484E+02  0.25246797999E+03  0.92436404639E+02 0.  0.
         23    2    4    4    0    0  0.17197405216E+03  0.21667558423E+03 -0.11349835403E+04  0.11717702220E+04  0.91293115287E+02 0.  0.
          4    1    3    3  502    0 -0.40165417521E+02 -0.43948848210E+02  0.11968101746E+03  0.13367239043E+03  0.00000000000E+00 0. -1.
         -3    1    3    3    0  502  0.35292964010E+02 -0.93159909606E+01  0.84969393510E+02  0.92477991055E+02  0.00000000000E+00 0.  1.
         13    1    5    5    0    0 -0.76359967989E+02 -0.86285450946E+02  0.57427019578E+02  0.12873960670E+03  0.00000000000E+00 0.  1.
        -13    1    5    5    0    0 -0.90741630665E+02 -0.77125294111E+02 -0.33561225094E+02  0.12372837329E+03  0.00000000000E+00 0. -1.
          1    1    6    6  503    0  0.15124477995E+03  0.18733567854E+03 -0.81626773971E+03  0.85103622884E+03  0.00000000000E+00 0. -1.
         -1    1    6    6    0  503  0.20729272216E+02  0.29339905692E+02 -0.31871580064E+03  0.32073399316E+03  0.00000000000E+00 0.  1.
<mgrwt>
<rscale>  0 0.13791662E+04</rscale>
<asrwt>0</asrwt>
<pdfrwt beam="1">  1        2 0.57224713E-01 0.13791662E+04</pdfrwt>
<pdfrwt beam="2">  1       -1 0.19668122E+00 0.13791662E+04</pdfrwt>
<totfact> 0.15278362E+01</totfact>
</mgrwt>
</event>
<event>
12    7  0.1544987E-007  0.1329121E+04  0.7818608E-02  0.9006786E-01
         -1   -1    0    0    0  501 -0.00000000000E+00  0.00000000000E+00  0.49914944984E+03  0.49914944984E+03  0.00000000000E+00 0.  1.
          2   -1    0    0  501    0  0.00000000000E+00 -0.00000000000E+00 -0.88478616547E+03  0.88478616547E+03  0.00000000000E+00 0. -1.
         24    2    1    2    0    0  0.82786509104E+02  0.84943973463E+02  0.23966344467E+03  0.28169855490E+03  0.88580045175E+02 0.  0.
        254    2    1    2    0    0 -0.82786509104E+02 -0.84943973463E+02 -0.62530016030E+03  0.11022370604E+04  0.89992064215E+03 0.  0.
         23    2    4    4    0    0  0.24692673677E+03 -0.27084062345E+03 -0.16646742198E+02  0.37981680014E+03  0.98266123333E+02 0.  0.
         23    2    4    4    0    0 -0.32971324588E+03  0.18589664999E+03 -0.60865341810E+03  0.72242026027E+03  0.90352975064E+02 0.  0.
          4    1    3    3  502    0 -0.16615606978E+02  0.28938917182E+02  0.44341962776E+02  0.55495486175E+02  0.00000000000E+00 0. -1.
         -3    1    3    3    0  502  0.99402116082E+02  0.56005056281E+02  0.19532148190E+03  0.22620306872E+03  0.00000000000E+00 0.  1.
         13    1    5    5    0    0  0.73947915496E+02 -0.14038368245E+03 -0.34662423944E+02  0.16241107147E+03  0.00000000000E+00 0. -1.
        -13    1    5    5    0    0  0.17297882128E+03 -0.13045694101E+03  0.18015681745E+02  0.21740572867E+03  0.00000000000E+00 0.  1.
          1    1    6    6  503    0 -0.35982428617E+02  0.47594224836E+02 -0.58167576587E+02  0.83327140675E+02  0.00000000000E+00 0. -1.
         -1    1    6    6    0  503 -0.29373081726E+03  0.13830242515E+03 -0.55048584151E+03  0.63909311960E+03  0.00000000000E+00 0.  1.
<mgrwt>
<rscale>  0 0.13291208E+04</rscale>
<asrwt>0</asrwt>
<pdfrwt beam="1">  1        2 0.13612095E+00 0.13291208E+04</pdfrwt>
<pdfrwt beam="2">  1       -1 0.76792223E-01 0.13291208E+04</pdfrwt>
<totfact> 0.57056723E+01</totfact>
</mgrwt>
</event>
<event>
12    7  0.1544987E-007  0.1406693E+04  0.7818608E-02  0.8948988E-01
         -1   -1    0    0    0  501 -0.00000000000E+00  0.00000000000E+00  0.59563977002E+03  0.59563977002E+03  0.00000000000E+00 0.  1.
          2   -1    0    0  501    0  0.00000000000E+00 -0.00000000000E+00 -0.83052898538E+03  0.83052898538E+03  0.00000000000E+00 0. -1.
         24    2    1    2    0    0 -0.27640231582E+03  0.13736524296E+03 -0.34003034451E+03  0.46598428953E+03  0.79077637418E+02 0.  0.
        254    2    1    2    0    0  0.27640231582E+03 -0.13736524296E+03  0.10514112914E+03  0.96018446587E+03  0.90312352493E+03 0.  0.
         23    2    4    4    0    0 -0.28535476092E+03 -0.15121407299E+03  0.18850217760E+03  0.38491739772E+03  0.91297845862E+02 0.  0.
         23    2    4    4    0    0  0.56175707675E+03  0.13848830030E+02 -0.83361048457E+02  0.57526706814E+03  0.90666046142E+02 0.  0.
          2    1    3    3  502    0 -0.25126336087E+03  0.94657802713E+02 -0.29670403876E+03  0.40015829711E+03  0.00000000000E+00 0. -1.
         -1    1    3    3    0  502 -0.25138954949E+02  0.42707440244E+02 -0.43326305746E+02  0.65825992418E+02  0.00000000000E+00 0.  1.
         13    1    5    5    0    0 -0.86577122985E+02 -0.39608747294E+01  0.65573761943E+02  0.10867936791E+03  0.00000000000E+00 0. -1.
        -13    1    5    5    0    0 -0.19877763794E+03 -0.14725319826E+03  0.12292841565E+03  0.27623802982E+03  0.00000000000E+00 0.  1.
          2    1    6    6  503    0  0.79015001812E+02 -0.23751318681E+02 -0.31409216043E+02  0.88283829227E+02  0.00000000000E+00 0. -1.
         -2    1    6    6    0  503  0.48274207493E+03  0.37600148712E+02 -0.51951832414E+02  0.48698323892E+03  0.00000000000E+00 0.  1.
<mgrwt>
<rscale>  0 0.14066927E+04</rscale>
<asrwt>0</asrwt>
<pdfrwt beam="1">  1        2 0.12777369E+00 0.14066927E+04</pdfrwt>
<pdfrwt beam="2">  1       -1 0.91636887E-01 0.14066927E+04</pdfrwt>
<totfact> 0.42237765E+01</totfact>
</mgrwt>
</event>
<event>
12    7  0.1544987E-007  0.1700340E+04  0.7818608E-02  0.8761170E-01
          2   -1    0    0  501    0  0.00000000000E+00  0.00000000000E+00  0.18303045563E+04  0.18303045563E+04  0.00000000000E+00 0. -1.
         -1   -1    0    0    0  501 -0.00000000000E+00 -0.00000000000E+00 -0.39490111292E+03  0.39490111292E+03  0.00000000000E+00 0.  1.
         24    2    1    2    0    0  0.36458597559E+03 -0.20786033107E+03  0.10682858259E+04  0.11504926470E+04  0.79182537004E+02 0.  0.
        254    2    1    2    0    0 -0.36458597559E+03  0.20786033107E+03  0.36711761752E+03  0.10747130223E+04  0.91875126356E+03 0.  0.
         23    2    4    4    0    0  0.43988326054E+02  0.46038364209E+03  0.13811016880E+02  0.47155628329E+03  0.91030288316E+02 0.  0.
         23    2    4    4    0    0 -0.40857430164E+03 -0.25252331102E+03  0.35330660064E+03  0.60315673897E+03  0.90947870429E+02 0.  0.
          4    1    3    3  502    0  0.36686390611E+03 -0.20167353166E+03  0.10332051323E+04  0.11147978222E+04  0.00000000000E+00 0. -1.
         -3    1    3    3    0  502 -0.22779305209E+01 -0.61867994113E+01  0.35080693550E+02  0.35694824756E+02  0.00000000000E+00 0.  1.
         13    1    5    5    0    0  0.35683759404E+02  0.87930882838E+02 -0.21628358703E+02  0.97329115593E+02  0.00000000000E+00 0.  1.
        -13    1    5    5    0    0  0.83045666498E+01  0.37245275925E+03  0.35439375583E+02  0.37422716770E+03  0.00000000000E+00 0. -1.
          1    1    6    6  503    0 -0.33648826574E+03 -0.16350042140E+03  0.27755966327E+03  0.46582840988E+03  0.00000000000E+00 0. -1.
         -1    1    6    6    0  503 -0.72086035898E+02 -0.89022889619E+02  0.75746937378E+02  0.13732832909E+03  0.00000000000E+00 0.  1.
<mgrwt>
<rscale>  0 0.17003403E+04</rscale>
<asrwt>0</asrwt>
<pdfrwt beam="1">  1        2 0.28158531E+00 0.17003403E+04</pdfrwt>
<pdfrwt beam="2">  1       -1 0.60754018E-01 0.17003403E+04</pdfrwt>
<totfact> 0.24718668E+01</totfact>
</mgrwt>
</event>
<event>
12    7  0.1544987E-007  0.1906388E+04  0.7818608E-02  0.8651683E-01
          2   -1    0    0  501    0  0.00000000000E+00  0.00000000000E+00  0.27425749232E+04  0.27425749232E+04  0.00000000000E+00 0. -1.
         -1   -1    0    0    0  501 -0.00000000000E+00 -0.00000000000E+00 -0.33128679146E+03  0.33128679146E+03  0.00000000000E+00 0.  1.
         24    2    1    2    0    0 -0.16227420270E+03 -0.33725682670E+03  0.17943527032E+04  0.18346899088E+04  0.79437735376E+02 0.  0.
        254    2    1    2    0    0  0.16227420270E+03  0.33725682670E+03  0.61693542857E+03  0.12391718059E+04  0.10074037709E+04 0.  0.
         23    2    4    4    0    0  0.35314195872E+03  0.73159859192E+02 -0.15039236957E+03  0.40056018949E+03  0.88141888851E+02 0.  0.
         23    2    4    4    0    0 -0.19086775603E+03  0.26409696751E+03  0.76732779814E+03  0.83861161644E+03  0.91103155206E+02 0.  0.
          2    1    3    3  502    0 -0.11660507425E+03 -0.19404055112E+03  0.12300649713E+04  0.12507231159E+04  0.00000000000E+00 0. -1.
         -1    1    3    3    0  502 -0.45669128441E+02 -0.14321627558E+03  0.56428773187E+03  0.58396679291E+03  0.00000000000E+00 0.  1.
         13    1    5    5    0    0  0.32101587049E+03  0.43516973233E+02 -0.14963504440E+03  0.35684108869E+03  0.00000000000E+00 0. -1.
        -13    1    5    5    0    0  0.32126088231E+02  0.29642885960E+02 -0.75732517301E+00  0.43719100797E+02  0.00000000000E+00 0.  1.
          3    1    6    6  503    0 -0.14217528911E+03  0.22689257509E+03  0.53397506641E+03  0.59734698878E+03  0.00000000000E+00 0. -1.
         -3    1    6    6    0  503 -0.48692466915E+02  0.37204392417E+02  0.23335273173E+03  0.24126462765E+03  0.00000000000E+00 0.  1.
<mgrwt>
<rscale>  0 0.19063880E+04</rscale>
<asrwt>0</asrwt>
<pdfrwt beam="1">  1        2 0.42193459E+00 0.19063880E+04</pdfrwt>
<pdfrwt beam="2">  1       -1 0.50967201E-01 0.19063880E+04</pdfrwt>
<totfact> 0.10344331E+01</totfact>
</mgrwt>
</event>
<event>
12    7  0.1544987E-007  0.1516744E+04  0.7818608E-02  0.8873394E-01
         -1   -1    0    0    0  501 -0.00000000000E+00  0.00000000000E+00  0.31775392551E+03  0.31775392551E+03  0.00000000000E+00 0.  1.
          2   -1    0    0  501    0  0.00000000000E+00 -0.00000000000E+00 -0.18099792221E+04  0.18099792221E+04  0.00000000000E+00 0. -1.
         24    2    1    2    0    0  0.14786832240E+03  0.29331810518E+03  0.22003926955E+02  0.33848849117E+03  0.78674864222E+02 0.  0.
        254    2    1    2    0    0 -0.14786832240E+03 -0.29331810518E+03 -0.15142292235E+04  0.17892446564E+04  0.89476575009E+03 0.  0.
         23    2    4    4    0    0 -0.32984688832E+03  0.20871480334E+03 -0.51574372777E+03  0.65324173066E+03  0.91500421144E+02 0.  0.
         23    2    4    4    0    0  0.18197856592E+03 -0.50203290851E+03 -0.99848549575E+03  0.11360029258E+04  0.91521158260E+02 0.  0.
          4    1    3    3  502    0  0.14215194456E+02  0.90476735628E+02 -0.14884968389E+02  0.92788327538E+02  0.00000000000E+00 0. -1.
         -3    1    3    3    0  502  0.13365312795E+03  0.20284136955E+03  0.36888895344E+02  0.24570016364E+03  0.00000000000E+00 0.  1.
         13    1    5    5    0    0 -0.28074733033E+03  0.20903756880E+03 -0.47094632117E+03  0.58677611240E+03  0.00000000000E+00 0. -1.
        -13    1    5    5    0    0 -0.49099557993E+02 -0.32276545857E+00 -0.44797406597E+02  0.66465618259E+02  0.00000000000E+00 0.  1.
          1    1    6    6  503    0  0.11236845216E+03 -0.39521137349E+03 -0.81293400491E+03  0.91086793506E+03  0.00000000000E+00 0. -1.
         -1    1    6    6    0  503  0.69610113758E+02 -0.10682153502E+03 -0.18555149084E+03  0.22513499070E+03  0.00000000000E+00 0.  1.
<mgrwt>
<rscale>  0 0.15167439E+04</rscale>
<asrwt>0</asrwt>
<pdfrwt beam="1">  1        2 0.27845835E+00 0.15167439E+04</pdfrwt>
<pdfrwt beam="2">  1       -1 0.48885217E-01 0.15167439E+04</pdfrwt>
<totfact> 0.39239668E+01</totfact>
</mgrwt>
</event>
<event>
12    7  0.1544987E-007  0.2028223E+04  0.7818608E-02  0.8593538E-01
         -1   -1    0    0    0  501 -0.00000000000E+00  0.00000000000E+00  0.31272969773E+03  0.31272969773E+03  0.00000000000E+00 0.  1.
          2   -1    0    0  501    0  0.00000000000E+00 -0.00000000000E+00 -0.32885330717E+04  0.32885330717E+04  0.00000000000E+00 0. -1.
         24    2    1    2    0    0  0.21306134040E+03  0.30633749994E+03  0.82315088093E+02  0.39015853856E+03  0.78804269173E+02 0.  0.
        254    2    1    2    0    0 -0.21306134040E+03 -0.30633749994E+03 -0.30581184621E+04  0.32111042309E+04  0.90546344755E+03 0.  0.
         23    2    4    4    0    0  0.31238454192E+03 -0.28266850852E+03 -0.16528449656E+04  0.17081945966E+04  0.92448427681E+02 0.  0.
         23    2    4    4    0    0 -0.52544588232E+03 -0.23668991419E+02 -0.14052734965E+04  0.15029096343E+04  0.85382507179E+02 0.  0.
          4    1    3    3  502    0  0.15082240269E+02  0.30340965878E+02 -0.14669818682E+02  0.36922239397E+02  0.00000000000E+00 0. -1.
         -3    1    3    3    0  502  0.19797910013E+03  0.27599653406E+03  0.96984906776E+02  0.35323629917E+03  0.00000000000E+00 0.  1.
         13    1    5    5    0    0  0.14187440520E+03 -0.78553065714E+02 -0.72951331531E+03  0.74732095394E+03  0.00000000000E+00 0.  1.
        -13    1    5    5    0    0  0.17051013672E+03 -0.20411544281E+03 -0.92333165025E+03  0.96087364262E+03  0.00000000000E+00 0. -1.
          2    1    6    6  503    0 -0.30261964290E+02 -0.21846565675E+02 -0.11328066445E+03  0.11927098496E+03  0.00000000000E+00 0.  1.
         -2    1    6    6    0  503 -0.49518391803E+03 -0.18224257436E+01 -0.12919928321E+04  0.13836386494E+04  0.00000000000E+00 0. -1.
<mgrwt>
<rscale>  0 0.20282228E+04</rscale>
<asrwt>0</asrwt>
<pdfrwt beam="1">  1        2 0.50592816E+00 0.20282228E+04</pdfrwt>
<pdfrwt beam="2">  1       -1 0.48112262E-01 0.20282228E+04</pdfrwt>
<totfact> 0.51845312E+00</totfact>
</mgrwt>
</event>
<event>
12    7  0.1544987E-007  0.1330959E+04  0.7818608E-02  0.9005368E-01
          2   -1    0    0  501    0  0.00000000000E+00  0.00000000000E+00  0.35126169435E+04  0.35126169435E+04  0.00000000000E+00 0. -1.
         -1   -1    0    0    0  501 -0.00000000000E+00 -0.00000000000E+00 -0.12607779629E+03  0.12607779629E+03  0.00000000000E+00 0.  1.
         24    2    1    2    0    0 -0.53292799602E+02  0.21348670429E+03  0.16875787393E+04  0.17032243562E+04  0.68077241002E+02 0.  0.
        254    2    1    2    0    0  0.53292799602E+02 -0.21348670429E+03  0.16989604079E+04  0.19354703836E+04  0.90064557001E+03 0.  0.
         23    2    4    4    0    0  0.63804843122E+02 -0.45938508236E+03  0.15774357252E+04  0.16467575705E+04  0.91658697374E+02 0.  0.
         23    2    4    4    0    0 -0.10512043520E+02  0.24589837807E+03  0.12152468266E+03  0.28871281311E+03  0.89500416546E+02 0.  0.
          2    1    3    3  502    0 -0.14632404384E+01  0.12126195254E+03  0.10422937461E+04  0.10493249523E+04  0.00000000000E+00 0. -1.
         -1    1    3    3    0  502 -0.51829559164E+02  0.92224751752E+02  0.64528499320E+03  0.65389940395E+03  0.00000000000E+00 0.  1.
         13    1    5    5    0    0  0.52689209569E+02 -0.45450898695E+03  0.15583985238E+04  0.16241799565E+04  0.00000000000E+00 0.  1.
        -13    1    5    5    0    0  0.11115633553E+02 -0.48760954096E+01  0.19037201366E+02  0.22577613948E+02  0.00000000000E+00 0. -1.
          1    1    6    6  503    0  0.20540599148E+02  0.10788395787E+02  0.20422751646E+02  0.30909456187E+02  0.00000000000E+00 0. -1.
         -1    1    6    6    0  503 -0.31052642668E+02  0.23510998228E+03  0.10110193101E+03  0.25780335692E+03  0.00000000000E+00 0.  1.
<mgrwt>
<rscale>  0 0.13309591E+04</rscale>
<asrwt>0</asrwt>
<pdfrwt beam="1">  1        2 0.54040253E+00 0.13309591E+04</pdfrwt>
<pdfrwt beam="2">  1       -1 0.19396587E-01 0.13309591E+04</pdfrwt>
<totfact> 0.19489439E+01</totfact>
</mgrwt>
</event>
<event>
12    7  0.1544987E-007  0.3311372E+04  0.7818608E-02  0.8160008E-01
         -1   -1    0    0    0  501 -0.00000000000E+00  0.00000000000E+00  0.13527036147E+04  0.13527036147E+04  0.00000000000E+00 0.  1.
          2   -1    0    0  501    0  0.00000000000E+00 -0.00000000000E+00 -0.20265314509E+04  0.20265314509E+04  0.00000000000E+00 0. -1.
         24    2    1    2    0    0  0.10811758701E+04 -0.19239006788E+03 -0.14261704374E+04  0.18017739881E+04  0.80449905000E+02 0.  0.
        254    2    1    2    0    0 -0.10811758701E+04  0.19239006788E+03  0.75234260125E+03  0.15774610775E+04  0.84640939322E+03 0.  0.
         23    2    4    4    0    0 -0.11596307939E+04  0.84596743210E+02  0.79556863601E+03  0.14117515976E+04  0.90625226382E+02 0.  0.
         23    2    4    4    0    0  0.78454923730E+02  0.10779332467E+03 -0.43226034766E+02  0.16570947989E+03  0.88411343962E+02 0.  0.
          2    1    3    3  502    0  0.10635391640E+04 -0.19255831500E+03 -0.13837685883E+04  0.17558501542E+04  0.00000000000E+00 0. -1.
         -1    1    3    3    0  502  0.17636706104E+02  0.16824711165E+00 -0.42401849093E+02  0.45923833853E+02  0.00000000000E+00 0.  1.
         13    1    5    5    0    0 -0.87456235994E+03  0.96597462510E+02  0.62600173314E+03  0.10798465451E+04  0.00000000000E+00 0.  1.
        -13    1    5    5    0    0 -0.28506843394E+03 -0.12000719300E+02  0.16956690288E+03  0.33190505245E+03  0.00000000000E+00 0. -1.
          3    1    6    6  503    0  0.33481807893E+02  0.94875123951E+02 -0.58631165110E+02  0.11644713018E+03  0.00000000000E+00 0.  1.
         -3    1    6    6    0  503  0.44973115837E+02  0.12918200723E+02  0.15405130344E+02  0.49262349710E+02  0.00000000000E+00 0. -1.
<mgrwt>
<rscale>  0 0.33113722E+04</rscale>
<asrwt>0</asrwt>
<pdfrwt beam="1">  1        2 0.31177407E+00 0.33113722E+04</pdfrwt>
<pdfrwt beam="2">  1       -1 0.20810825E+00 0.33113722E+04</pdfrwt>
<totfact> 0.81162799E-01</totfact>
</mgrwt>
</event>
<event>
12    7  0.1544987E-007  0.1942954E+04  0.7818608E-02  0.8633766E-01
         -1   -1    0    0    0  501 -0.00000000000E+00  0.00000000000E+00  0.10631622417E+04  0.10631622417E+04  0.00000000000E+00 0.  1.
          2   -1    0    0  501    0  0.00000000000E+00 -0.00000000000E+00 -0.88769810307E+03  0.88769810307E+03  0.00000000000E+00 0. -1.
         24    2    1    2    0    0  0.50216354698E+03 -0.29078653657E+03 -0.42404611846E+03  0.72316682355E+03  0.80187943785E+02 0.  0.
        254    2    1    2    0    0 -0.50216354698E+03  0.29078653657E+03  0.59951025713E+03  0.12276935213E+04  0.90060745943E+03 0.  0.
         23    2    4    4    0    0 -0.13342305309E+03 -0.92815395084E+02 -0.19168468079E+03  0.26954516622E+03  0.97443168664E+02 0.  0.
         23    2    4    4    0    0 -0.36874049389E+03  0.38360193165E+03  0.79119493792E+03  0.95814835505E+03  0.94545474155E+02 0.  0.
          4    1    3    3  502    0  0.50368131181E+03 -0.29133667114E+03 -0.42561466034E+03  0.72091591667E+03  0.00000000000E+00 0. -1.
         -3    1    3    3    0  502 -0.15177648287E+01  0.55013456536E+00  0.15685418813E+01  0.22509068725E+01  0.00000000000E+00 0.  1.
         13    1    5    5    0    0 -0.78740996661E+02 -0.10658064722E+03 -0.14405756912E+03  0.19573492826E+03  0.00000000000E+00 0. -1.
        -13    1    5    5    0    0 -0.54682056430E+02  0.13765252138E+02 -0.47627111669E+02  0.73810237961E+02  0.00000000000E+00 0.  1.
          4    1    6    6  503    0 -0.29667232718E+03  0.34161551483E+03  0.70884667639E+03  0.84093949861E+03  0.00000000000E+00 0. -1.
         -4    1    6    6    0  503 -0.72068166713E+02  0.41986416824E+02  0.82348261532E+02  0.11720885644E+03  0.00000000000E+00 0.  1.
<mgrwt>
<rscale>  0 0.19429535E+04</rscale>
<asrwt>0</asrwt>
<pdfrwt beam="1">  1        2 0.13656894E+00 0.19429535E+04</pdfrwt>
<pdfrwt beam="2">  1       -1 0.16356342E+00 0.19429535E+04</pdfrwt>
<totfact> 0.87453657E+00</totfact>
</mgrwt>
</event>
<event>
12    7  0.1544987E-007  0.1918581E+04  0.7818608E-02  0.8645662E-01
          2   -1    0    0  501    0  0.00000000000E+00  0.00000000000E+00  0.12783567021E+04  0.12783567021E+04  0.00000000000E+00 0. -1.
         -1   -1    0    0    0  501 -0.00000000000E+00 -0.00000000000E+00 -0.71986038007E+03  0.71986038007E+03  0.00000000000E+00 0.  1.
         24    2    1    2    0    0 -0.20714329932E+03 -0.11422991298E+03  0.10042938855E+04  0.10352987076E+04  0.85325178000E+02 0.  0.
        254    2    1    2    0    0  0.20714329932E+03  0.11422991298E+03 -0.44579756349E+03  0.96291837457E+03  0.82007286810E+03 0.  0.
         23    2    4    4    0    0 -0.24053863367E+03  0.15135816665E+03 -0.40485592033E+03  0.50276907023E+03  0.90001626930E+02 0.  0.
         23    2    4    4    0    0  0.44768193299E+03 -0.37128253670E+02 -0.40941643158E+02  0.46014930434E+03  0.90904036194E+02 0.  0.
          4    1    3    3  502    0 -0.13857847918E+03 -0.95556670433E+02  0.83320839096E+03  0.85004193716E+03  0.00000000000E+00 0. -1.
         -3    1    3    3    0  502 -0.68564820137E+02 -0.18673242544E+02  0.17108549453E+03  0.18525677042E+03  0.00000000000E+00 0.  1.
         13    1    5    5    0    0 -0.90510585377E+02  0.50591419316E+02 -0.79770251142E+02  0.13082412140E+03  0.00000000000E+00 0.  1.
        -13    1    5    5    0    0 -0.15002804829E+03  0.10076674733E+03 -0.32508566919E+03  0.37194494882E+03  0.00000000000E+00 0. -1.
          1    1    6    6  503    0  0.10974825232E+03 -0.36839042430E+02  0.17866477504E+02  0.11713669345E+03  0.00000000000E+00 0. -1.
         -1    1    6    6    0  503  0.33793368067E+03 -0.28921124000E+00 -0.58808120662E+02  0.34301261089E+03  0.00000000000E+00 0.  1.
<mgrwt>
<rscale>  0 0.19185811E+04</rscale>
<asrwt>0</asrwt>
<pdfrwt beam="1">  1        2 0.19667026E+00 0.19185811E+04</pdfrwt>
<pdfrwt beam="2">  1       -1 0.11074775E+00 0.19185811E+04</pdfrwt>
<totfact> 0.13628746E+01</totfact>
</mgrwt>
</event>
<event>
12    7  0.1544987E-007  0.1465947E+04  0.7818608E-02  0.8907419E-01
         -1   -1    0    0    0  501 -0.00000000000E+00  0.00000000000E+00  0.64454481829E+03  0.64454481829E+03  0.00000000000E+00 0.  1.
          2   -1    0    0  501    0  0.00000000000E+00 -0.00000000000E+00 -0.83353382848E+03  0.83353382848E+03  0.00000000000E+00 0. -1.
         24    2    1    2    0    0 -0.28103944128E+03  0.74186369693E+02  0.29085522236E+03  0.41895138815E+03  0.80229173352E+02 0.  0.
        254    2    1    2    0    0  0.28103944128E+03 -0.74186369693E+02 -0.47984423255E+03  0.10591272586E+04  0.89833917729E+03 0.  0.
         23    2    4    4    0    0  0.28608647801E+03 -0.45813314452E+03 -0.30542310909E+03  0.62721485926E+03  0.91562836921E+02 0.  0.
         23    2    4    4    0    0 -0.50470367273E+01  0.38394677483E+03 -0.17442112346E+03  0.43191239936E+03  0.93193314837E+02 0.  0.
          2    1    3    3  502    0 -0.57170420974E+01 -0.51398316632E+01 -0.32537213332E+01  0.83480022990E+01  0.00000000000E+00 0. -1.
         -1    1    3    3    0  502 -0.27532239918E+03  0.79326201356E+02  0.29410894369E+03  0.41060338585E+03  0.00000000000E+00 0.  1.
         13    1    5    5    0    0  0.40606020500E+02 -0.10798202474E+03 -0.32277166581E+02  0.11979474968E+03  0.00000000000E+00 0.  1.
        -13    1    5    5    0    0  0.24548045750E+03 -0.35015111979E+03 -0.27314594251E+03  0.50742010959E+03  0.00000000000E+00 0. -1.
          2    1    6    6  503    0 -0.52221034759E+01 -0.20652327271E+01  0.37627570741E+01  0.67597257140E+01  0.00000000000E+00 0.  1.
         -2    1    6    6    0  503  0.17506674853E+00  0.38601200756E+03 -0.17818388053E+03  0.42515267365E+03  0.00000000000E+00 0. -1.
<mgrwt>
<rscale>  0 0.14659467E+04</rscale>
<asrwt>0</asrwt>
<pdfrwt beam="1">  1        2 0.12823597E+00 0.14659467E+04</pdfrwt>
<pdfrwt beam="2">  1       -1 0.99160741E-01 0.14659467E+04</pdfrwt>
<totfact> 0.35034938E+01</totfact>
</mgrwt>
</event>
<event>
12    7  0.1544987E-007  0.1608433E+04  0.7818608E-02  0.8815384E-01
          2   -1    0    0  501    0  0.00000000000E+00  0.00000000000E+00  0.12871015458E+04  0.12871015458E+04  0.00000000000E+00 0. -1.
         -1   -1    0    0    0  501 -0.00000000000E+00 -0.00000000000E+00 -0.50249631750E+03  0.50249631750E+03  0.00000000000E+00 0.  1.
         24    2    1    2    0    0 -0.11428786584E+03 -0.29906138429E+03  0.76332750204E+03  0.83177436809E+03  0.81733078921E+02 0.  0.
        254    2    1    2    0    0  0.11428786584E+03  0.29906138429E+03  0.21277726292E+02  0.95782349525E+03  0.90248195470E+03 0.  0.
         23    2    4    4    0    0  0.33058941846E+03  0.40188451668E+03  0.27592651511E+03  0.59638461555E+03  0.93480690945E+02 0.  0.
         23    2    4    4    0    0 -0.21630155262E+03 -0.10282313239E+03 -0.25464878881E+03  0.36143887970E+03  0.91831911109E+02 0.  0.
          2    1    3    3  502    0 -0.10967963226E+03 -0.29581362984E+03  0.69548531071E+03  0.76369833229E+03  0.00000000000E+00 0. -1.
         -1    1    3    3    0  502 -0.46082335766E+01 -0.32477544528E+01  0.67842191330E+02  0.68076035799E+02  0.00000000000E+00 0.  1.
         13    1    5    5    0    0  0.30847321088E+03  0.39763521051E+03  0.27577103120E+03  0.57386334969E+03  0.00000000000E+00 0.  1.
        -13    1    5    5    0    0  0.22116207574E+02  0.42493061676E+01  0.15548390312E+00  0.22521265852E+02  0.00000000000E+00 0. -1.
          3    1    6    6  503    0 -0.18051641842E+02 -0.23123823447E+02 -0.41327142526E+00  0.29338435153E+02  0.00000000000E+00 0. -1.
         -3    1    6    6    0  503 -0.19824991078E+03 -0.79699308941E+02 -0.25423551739E+03  0.33210044455E+03  0.00000000000E+00 0.  1.
<mgrwt>
<rscale>  0 0.16084325E+04</rscale>
<asrwt>0</asrwt>
<pdfrwt beam="1">  1        2 0.19801562E+00 0.16084325E+04</pdfrwt>
<pdfrwt beam="2">  1       -1 0.77307126E-01 0.16084325E+04</pdfrwt>
<totfact> 0.30829410E+01</totfact>
</mgrwt>
</event>
<event>
12    7  0.1544987E-007  0.1321529E+04  0.7818608E-02  0.9012665E-01
         -1   -1    0    0    0  501 -0.00000000000E+00  0.00000000000E+00  0.36813834012E+03  0.36813834012E+03  0.00000000000E+00 0.  1.
          2   -1    0    0  501    0  0.00000000000E+00 -0.00000000000E+00 -0.11859935769E+04  0.11859935769E+04  0.00000000000E+00 0. -1.
         24    2    1    2    0    0  0.27782926050E+03  0.20674694018E+03 -0.20928541898E+03  0.41237339500E+03  0.79486068240E+02 0.  0.
        254    2    1    2    0    0 -0.27782926050E+03 -0.20674694018E+03 -0.60856981783E+03  0.11417585221E+04  0.90184361408E+03 0.  0.
         23    2    4    4    0    0 -0.36771042006E+02  0.34393520720E+03 -0.24844854042E+03  0.43491366947E+03  0.88202530389E+02 0.  0.
         23    2    4    4    0    0 -0.24105821850E+03 -0.55068214738E+03 -0.36012127740E+03  0.70684485259E+03  0.92641346315E+02 0.  0.
          4    1    3    3  502    0  0.27066357563E+03  0.17566748513E+03 -0.18239674065E+03  0.37065672462E+03  0.00000000000E+00 0. -1.
         -3    1    3    3    0  502  0.71656848744E+01  0.31079455047E+02 -0.26888678331E+02  0.41716670387E+02  0.00000000000E+00 0.  1.
         13    1    5    5    0    0 -0.26607970313E+01  0.10711847544E+03 -0.30854157517E+02  0.11150527637E+03  0.00000000000E+00 0.  1.
        -13    1    5    5    0    0 -0.34110244975E+02  0.23681673176E+03 -0.21759438291E+03  0.32340839310E+03  0.00000000000E+00 0. -1.
          3    1    6    6  503    0 -0.27668093756E+02 -0.21435543877E+02 -0.67486210946E+01  0.35644772970E+02  0.00000000000E+00 0.  1.
         -3    1    6    6    0  503 -0.21339012474E+03 -0.52924660350E+03 -0.35337265631E+03  0.67120007962E+03  0.00000000000E+00 0. -1.
<mgrwt>
<rscale>  0 0.13215290E+04</rscale>
<asrwt>0</asrwt>
<pdfrwt beam="1">  1        2 0.18246055E+00 0.13215290E+04</pdfrwt>
<pdfrwt beam="2">  1       -1 0.56636667E-01 0.13215290E+04</pdfrwt>
<totfact> 0.67991186E+01</totfact>
</mgrwt>
</event>
<event>
12    7  0.1544987E-007  0.2289469E+04  0.7818608E-02  0.8482085E-01
         -1   -1    0    0    0  501 -0.00000000000E+00  0.00000000000E+00  0.52141757175E+03  0.52141757175E+03  0.00000000000E+00 0.  1.
          2   -1    0    0  501    0  0.00000000000E+00 -0.00000000000E+00 -0.25131826419E+04  0.25131826419E+04  0.00000000000E+00 0. -1.
         24    2    1    2    0    0 -0.48765320337E+03 -0.68344695444E+03 -0.20260434161E+03  0.86721217305E+03  0.78122004322E+02 0.  0.
        254    2    1    2    0    0  0.48765320337E+03  0.68344695444E+03 -0.17891607285E+04  0.21673880406E+04  0.88970187122E+03 0.  0.
         23    2    4    4    0    0 -0.17260017099E+03  0.45945740221E+02 -0.75631827691E+03  0.78266408404E+03  0.92972589437E+02 0.  0.
         23    2    4    4    0    0  0.66025337436E+03  0.63750121422E+03 -0.10328424516E+04  0.13847239565E+04  0.91403443380E+02 0.  0.
          4    1    3    3  502    0 -0.12356118523E+03 -0.13677224505E+03 -0.19527365484E+02  0.18535191263E+03  0.00000000000E+00 0. -1.
         -3    1    3    3    0  502 -0.36409201814E+03 -0.54667470939E+03 -0.18307697613E+03  0.68186026043E+03  0.00000000000E+00 0.  1.
         13    1    5    5    0    0 -0.98259320738E+02  0.19298459317E+02 -0.23568890205E+03  0.25607925178E+03  0.00000000000E+00 0. -1.
        -13    1    5    5    0    0 -0.74340850254E+02  0.26647280904E+02 -0.52062937487E+03  0.52658483226E+03  0.00000000000E+00 0.  1.
          3    1    6    6  503    0  0.58790167450E+03  0.57153854989E+03 -0.87623384556E+03  0.12000293517E+04  0.00000000000E+00 0. -1.
         -3    1    6    6    0  503  0.72351699859E+02  0.65962664334E+02 -0.15660860603E+03  0.18469460479E+03  0.00000000000E+00 0.  1.
<mgrwt>
<rscale>  0 0.22894694E+04</rscale>
<asrwt>0</asrwt>
<pdfrwt beam="1">  1        2 0.38664348E+00 0.22894694E+04</pdfrwt>
<pdfrwt beam="2">  1       -1 0.80218090E-01 0.22894694E+04</pdfrwt>
<totfact> 0.54763817E+00</totfact>
</mgrwt>
</event>
<event>
12    7  0.1544987E-007  0.2539925E+04  0.7818608E-02  0.8388899E-01
         -1   -1    0    0    0  501 -0.00000000000E+00  0.00000000000E+00  0.16930607304E+04  0.16930607304E+04  0.00000000000E+00 0.  1.
          2   -1    0    0  501    0  0.00000000000E+00 -0.00000000000E+00 -0.95259707315E+03  0.95259707315E+03  0.00000000000E+00 0. -1.
         24    2    1    2    0    0 -0.62091600135E+03  0.88615751820E+03  0.60669794168E+02  0.10865857095E+04  0.78586591711E+02 0.  0.
        254    2    1    2    0    0  0.62091600135E+03 -0.88615751820E+03  0.67979386309E+03  0.15590720940E+04  0.89318210369E+03 0.  0.
         23    2    4    4    0    0 -0.80027213630E+02 -0.12229422730E+03 -0.14986060771E+03  0.22821313276E+03  0.90899940962E+02 0.  0.
         23    2    4    4    0    0  0.70094321498E+03 -0.76386329089E+03  0.82965447079E+03  0.13308589613E+04  0.89724668507E+02 0.  0.
          2    1    3    3  502    0 -0.15875816082E+03  0.22897660948E+03  0.50116091636E+02  0.28310080175E+03  0.00000000000E+00 0. -1.
         -1    1    3    3    0  502 -0.46215784053E+03  0.65718090872E+03  0.10553702532E+02  0.80348490775E+03  0.00000000000E+00 0.  1.
         13    1    5    5    0    0 -0.23847150065E+02 -0.35903635293E+02 -0.10925665814E+03  0.11745115981E+03  0.00000000000E+00 0.  1.
        -13    1    5    5    0    0 -0.56180063565E+02 -0.86390592010E+02 -0.40603949569E+02  0.11076197294E+03  0.00000000000E+00 0. -1.
          3    1    6    6  503    0  0.18403043252E+03 -0.26163510207E+03  0.25189144719E+03  0.40714791894E+03  0.00000000000E+00 0. -1.
         -3    1    6    6    0  503  0.51691278246E+03 -0.50222818882E+03  0.57776302360E+03  0.92371104235E+03  0.00000000000E+00 0.  1.
<mgrwt>
<rscale>  0 0.25399250E+04</rscale>
<asrwt>0</asrwt>
<pdfrwt beam="1">  1        2 0.14655340E+00 0.25399250E+04</pdfrwt>
<pdfrwt beam="2">  1       -1 0.26047088E+00 0.25399250E+04</pdfrwt>
<totfact> 0.16330074E+00</totfact>
</mgrwt>
</event>
<event>
12    7  0.1544987E-007  0.1974746E+04  0.7818608E-02  0.8618520E-01
          2   -1    0    0  501    0  0.00000000000E+00  0.00000000000E+00  0.13328138619E+04  0.13328138619E+04  0.00000000000E+00 0. -1.
         -1   -1    0    0    0  501 -0.00000000000E+00 -0.00000000000E+00 -0.73146410992E+03  0.73146410992E+03  0.00000000000E+00 0.  1.
         24    2    1    2    0    0  0.59930810983E+03  0.46427239736E+03  0.38259968046E+02  0.76305671422E+03  0.77927238519E+02 0.  0.
        254    2    1    2    0    0 -0.59930810983E+03 -0.46427239736E+03  0.56308978394E+03  0.13012212576E+04  0.89520253965E+03 0.  0.
         23    2    4    4    0    0 -0.56372562234E+03 -0.70712849410E+03  0.39905179105E+03  0.99244155491E+03  0.88772875983E+02 0.  0.
         23    2    4    4    0    0 -0.35582487486E+02  0.24285609674E+03  0.16403799289E+03  0.30877970269E+03  0.90505494559E+02 0.  0.
          2    1    3    3  502    0  0.52861884065E+03  0.42742426335E+03  0.14809431757E+02  0.67996227753E+03  0.00000000000E+00 0. -1.
         -1    1    3    3    0  502  0.70689269183E+02  0.36848134013E+02  0.23450536288E+02  0.83094436698E+02  0.00000000000E+00 0.  1.
         13    1    5    5    0    0 -0.23742590707E+03 -0.36767513520E+03  0.20147823043E+03  0.48181899478E+03  0.00000000000E+00 0. -1.
        -13    1    5    5    0    0 -0.32629971527E+03 -0.33945335890E+03  0.19757356062E+03  0.51062256013E+03  0.00000000000E+00 0.  1.
          4    1    6    6  503    0 -0.43177854215E+02  0.11127118161E+03  0.35130888409E+02  0.12441777313E+03  0.00000000000E+00 0. -1.
         -4    1    6    6    0  503  0.75953667298E+01  0.13158491513E+03  0.12890710448E+03  0.18436192956E+03  0.00000000000E+00 0.  1.
<mgrwt>
<rscale>  0 0.19747461E+04</rscale>
<asrwt>0</asrwt>
<pdfrwt beam="1">  1        2 0.20504829E+00 0.19747461E+04</pdfrwt>
<pdfrwt beam="2">  1       -1 0.11253294E+00 0.19747461E+04</pdfrwt>
<totfact> 0.12137619E+01</totfact>
</mgrwt>
</event>
<event>
12    7  0.1544987E-007  0.1291084E+04  0.7818608E-02  0.9036666E-01
          2   -1    0    0  501    0  0.00000000000E+00  0.00000000000E+00  0.14143041849E+04  0.14143041849E+04  0.00000000000E+00 0. -1.
         -1   -1    0    0    0  501 -0.00000000000E+00 -0.00000000000E+00 -0.29464961540E+03  0.29464961540E+03  0.00000000000E+00 0.  1.
         24    2    1    2    0    0  0.10258931287E+03 -0.39088448112E+02  0.67333598613E+03  0.68663550957E+03  0.77682037122E+02 0.  0.
        254    2    1    2    0    0 -0.10258931287E+03  0.39088448112E+02  0.44631858333E+03  0.10223182907E+04  0.91317136168E+03 0.  0.
         23    2    4    4    0    0  0.80750271496E+02  0.35574853268E+03  0.51653193785E+03  0.63895923208E+03  0.91575283758E+02 0.  0.
         23    2    4    4    0    0 -0.18333958436E+03 -0.31666008456E+03 -0.70213354516E+02  0.38335905862E+03  0.90262064713E+02 0.  0.
          4    1    3    3  502    0  0.10682696667E+03 -0.49513712236E+02  0.65166619114E+03  0.66221781400E+03  0.00000000000E+00 0. -1.
         -3    1    3    3    0  502 -0.42376538041E+01  0.10425264124E+02  0.21669794992E+02  0.24417695567E+02  0.00000000000E+00 0.  1.
         13    1    5    5    0    0  0.97989452701E+02  0.24302136283E+03  0.36445883495E+03  0.44887811040E+03  0.00000000000E+00 0. -1.
        -13    1    5    5    0    0 -0.17239181205E+02  0.11272716985E+03  0.15207310290E+03  0.19008112168E+03  0.00000000000E+00 0.  1.
          2    1    6    6  503    0 -0.86960226293E+02 -0.69603399311E+02 -0.13828362922E+02  0.11224053534E+03  0.00000000000E+00 0. -1.
         -2    1    6    6    0  503 -0.96379358071E+02 -0.24705668525E+03 -0.56384991594E+02  0.27111852328E+03  0.00000000000E+00 0.  1.
<mgrwt>
<rscale>  0 0.12910836E+04</rscale>
<asrwt>0</asrwt>
<pdfrwt beam="1">  1        2 0.21758526E+00 0.12910836E+04</pdfrwt>
<pdfrwt beam="2">  1       -1 0.45330711E-01 0.12910836E+04</pdfrwt>
<totfact> 0.76648105E+01</totfact>
</mgrwt>
</event>
<event>
12    7  0.1544987E-007  0.2514844E+04  0.7818608E-02  0.8397716E-01
         -1   -1    0    0    0  501 -0.00000000000E+00  0.00000000000E+00  0.11100294249E+04  0.11100294249E+04  0.00000000000E+00 0.  1.
          2   -1    0    0  501    0  0.00000000000E+00 -0.00000000000E+00 -0.14243853291E+04  0.14243853291E+04  0.00000000000E+00 0. -1.
         24    2    1    2    0    0 -0.15473567558E+03 -0.10671643259E+04 -0.15246693471E+02  0.10813386501E+04  0.79233747401E+02 0.  0.
        254    2    1    2    0    0  0.15473567558E+03  0.10671643259E+04 -0.29910921075E+03  0.14530761039E+04  0.92692017780E+03 0.  0.
         23    2    4    4    0    0  0.40691782219E+03  0.93431279727E+03  0.10326171021E+02  0.10233764309E+04  0.93113760552E+02 0.  0.
         23    2    4    4    0    0 -0.25218214660E+03  0.13285152866E+03 -0.30943538177E+03  0.42969967300E+03  0.87442493987E+02 0.  0.
          4    1    3    3  502    0 -0.58911606707E+02 -0.47831951285E+03 -0.44834218270E+02  0.48401471146E+03  0.00000000000E+00 0. -1.
         -3    1    3    3    0  502 -0.95824068878E+02 -0.58884481308E+03  0.29587524799E+02  0.59732393865E+03  0.00000000000E+00 0.  1.
         13    1    5    5    0    0  0.77478231016E+02  0.10362328685E+03  0.96578776145E+01  0.12974566066E+03  0.00000000000E+00 0. -1.
        -13    1    5    5    0    0  0.32943959117E+03  0.83068951042E+03  0.66829340620E+00  0.89363077026E+03  0.00000000000E+00 0.  1.
          3    1    6    6  503    0 -0.11410967638E+02 -0.97145381362E+01 -0.40863963440E+01  0.15533224672E+02  0.00000000000E+00 0. -1.
         -3    1    6    6    0  503 -0.24077117897E+03  0.14256606679E+03 -0.30534898543E+03  0.41416644833E+03  0.00000000000E+00 0.  1.
<mgrwt>
<rscale>  0 0.25148436E+04</rscale>
<asrwt>0</asrwt>
<pdfrwt beam="1">  1        2 0.21913620E+00 0.25148436E+04</pdfrwt>
<pdfrwt beam="2">  1       -1 0.17077376E+00 0.25148436E+04</pdfrwt>
<totfact> 0.34536602E+00</totfact>
</mgrwt>
</event>
<event>
12    7  0.1544987E-007  0.2605857E+04  0.7818608E-02  0.8366214E-01
         -1   -1    0    0    0  501 -0.00000000000E+00  0.00000000000E+00  0.82874719562E+03  0.82874719562E+03  0.00000000000E+00 0.  1.
          2   -1    0    0  501    0  0.00000000000E+00 -0.00000000000E+00 -0.20484204111E+04  0.20484204111E+04  0.00000000000E+00 0. -1.
         24    2    1    2    0    0  0.68926912425E+03  0.41678031066E+03 -0.14402053297E+04  0.16520251060E+04  0.78726148328E+02 0.  0.
        254    2    1    2    0    0 -0.68926912425E+03 -0.41678031066E+03  0.22053211418E+03  0.12251425007E+04  0.89640503156E+03 0.  0.
         23    2    4    4    0    0 -0.78044578767E+03 -0.50122636490E+03  0.37837034394E+03  0.10058487846E+04  0.90797378806E+02 0.  0.
         23    2    4    4    0    0  0.91176663421E+02  0.84446054236E+02 -0.15783822976E+03  0.21929371606E+03  0.87934675199E+02 0.  0.
          2    1    3    3  502    0  0.53754340379E+03  0.36067505158E+03 -0.11673848740E+04  0.13348508710E+04  0.00000000000E+00 0. -1.
         -1    1    3    3    0  502  0.15172572046E+03  0.56105259083E+02 -0.27282045566E+03  0.31717423504E+03  0.00000000000E+00 0.  1.
         13    1    5    5    0    0 -0.47114237834E+03 -0.31140150913E+03  0.18281029883E+03  0.59360394702E+03  0.00000000000E+00 0.  1.
        -13    1    5    5    0    0 -0.30930340932E+03 -0.18982485576E+03  0.19556004511E+03  0.41224483760E+03  0.00000000000E+00 0. -1.
          3    1    6    6  503    0  0.41892927468E+01  0.26951536058E+02  0.31824778157E+01  0.27460219130E+02  0.00000000000E+00 0. -1.
         -3    1    6    6    0  503  0.86987370674E+02  0.57494518178E+02 -0.16102070758E+03  0.19183349693E+03  0.00000000000E+00 0.  1.
<mgrwt>
<rscale>  0 0.26058570E+04</rscale>
<asrwt>0</asrwt>
<pdfrwt beam="1">  1        2 0.31514160E+00 0.26058570E+04</pdfrwt>
<pdfrwt beam="2">  1       -1 0.12749957E+00 0.26058570E+04</pdfrwt>
<totfact> 0.33634262E+00</totfact>
</mgrwt>
</event>
<event>
12    7  0.1544987E-007  0.2194711E+04  0.7818608E-02  0.8520633E-01
         -1   -1    0    0    0  501 -0.00000000000E+00  0.00000000000E+00  0.51228295513E+03  0.51228295513E+03  0.00000000000E+00 0.  1.
          2   -1    0    0  501    0  0.00000000000E+00 -0.00000000000E+00 -0.23506335974E+04  0.23506335974E+04  0.00000000000E+00 0. -1.
         24    2    1    2    0    0  0.70586023905E+03  0.58352112864E+03 -0.81428507694E+03  0.12279770870E+04  0.78306800117E+02 0.  0.
        254    2    1    2    0    0 -0.70586023905E+03 -0.58352112864E+03 -0.10240655654E+04  0.16349394656E+04  0.88633018080E+03 0.  0.
         23    2    4    4    0    0 -0.71741306586E+03 -0.29818527817E+03 -0.10766979503E+04  0.13308759598E+04  0.91413221211E+02 0.  0.
         23    2    4    4    0    0  0.11552826813E+02 -0.28533585047E+03  0.52632384952E+02  0.30406350579E+03  0.90191087355E+02 0.  0.
          2    1    3    3  502    0  0.82266743632E+02  0.74312762819E+02 -0.67058744780E+02  0.12956496084E+03  0.00000000000E+00 0. -1.
         -1    1    3    3    0  502  0.62359349541E+03  0.50920836582E+03 -0.74722633216E+03  0.10984121261E+04  0.00000000000E+00 0.  1.
         13    1    5    5    0    0 -0.80403814119E+02 -0.11070638824E+02 -0.82763447175E+02  0.11591859453E+03  0.00000000000E+00 0. -1.
        -13    1    5    5    0    0 -0.63700925174E+03 -0.28711463934E+03 -0.99393450315E+03  0.12149573653E+04  0.00000000000E+00 0.  1.
          3    1    6    6  503    0  0.39753777552E+02 -0.18147631470E+03  0.36365070929E+01  0.18581506885E+03  0.00000000000E+00 0. -1.
         -3    1    6    6    0  503 -0.28200950738E+02 -0.10385953577E+03  0.48995877859E+02  0.11824843694E+03  0.00000000000E+00 0.  1.
<mgrwt>
<rscale>  0 0.21947114E+04</rscale>
<asrwt>0</asrwt>
<pdfrwt beam="1">  1        2 0.36163593E+00 0.21947114E+04</pdfrwt>
<pdfrwt beam="2">  1       -1 0.78812764E-01 0.21947114E+04</pdfrwt>
<totfact> 0.71094809E+00</totfact>
</mgrwt>
</event>
<event>
12    7  0.1544987E-007  0.1545172E+04  0.7818608E-02  0.8854958E-01
         -1   -1    0    0    0  501 -0.00000000000E+00  0.00000000000E+00  0.25375216451E+03  0.25375216451E+03  0.00000000000E+00 0.  1.
          2   -1    0    0  501    0  0.00000000000E+00 -0.00000000000E+00 -0.23522515946E+04  0.23522515946E+04  0.00000000000E+00 0. -1.
         24    2    1    2    0    0 -0.35183060185E+03  0.44110026456E+01 -0.86346639710E+02  0.37358526440E+03  0.91137139777E+02 0.  0.
        254    2    1    2    0    0  0.35183060185E+03 -0.44110026456E+01 -0.20121527904E+04  0.22324184948E+04  0.90062714505E+03 0.  0.
         23    2    4    4    0    0  0.11723818165E+03  0.23756008306E+03 -0.11488359600E+03  0.30334607674E+03  0.92957072581E+02 0.  0.
         23    2    4    4    0    0  0.23459242019E+03 -0.24197108570E+03 -0.18972691944E+04  0.19290724180E+04  0.90035481535E+02 0.  0.
          4    1    3    3  502    0 -0.80815036254E+02 -0.35309351078E+02 -0.35108664343E+02  0.94923330484E+02  0.00000000000E+00 0. -1.
         -3    1    3    3    0  502 -0.27101556559E+03  0.39720353724E+02 -0.51237975367E+02  0.27866193391E+03  0.00000000000E+00 0.  1.
         13    1    5    5    0    0  0.12634389622E+03  0.21210350265E+03 -0.80644204869E+02  0.25971939421E+03  0.00000000000E+00 0. -1.
        -13    1    5    5    0    0 -0.91057145639E+01  0.25456580404E+02 -0.34239391128E+02  0.43626682528E+02  0.00000000000E+00 0.  1.
          3    1    6    6  503    0  0.14799425462E+03 -0.19091511214E+03 -0.14974757607E+04  0.15168337197E+04  0.00000000000E+00 0. -1.
         -3    1    6    6    0  503  0.86598165567E+02 -0.51055973563E+02 -0.39979343377E+03  0.41223869833E+03  0.00000000000E+00 0.  1.
<mgrwt>
<rscale>  0 0.15451717E+04</rscale>
<asrwt>0</asrwt>
<pdfrwt beam="1">  1        2 0.36188486E+00 0.15451717E+04</pdfrwt>
<pdfrwt beam="2">  1       -1 0.39038795E-01 0.15451717E+04</pdfrwt>
<totfact> 0.29613310E+01</totfact>
</mgrwt>
</event>
<event>
12    7  0.1544987E-007  0.3018114E+04  0.7818608E-02  0.8238577E-01
         -1   -1    0    0    0  501 -0.00000000000E+00  0.00000000000E+00  0.57751491353E+03  0.57751491353E+03  0.00000000000E+00 0.  1.
          2   -1    0    0  501    0  0.00000000000E+00 -0.00000000000E+00 -0.39431940629E+04  0.39431940629E+04  0.00000000000E+00 0. -1.
         24    2    1    2    0    0 -0.19063938934E+02  0.56175006562E+03 -0.34095143119E+04  0.34564280626E+04  0.78616400560E+02 0.  0.
        254    2    1    2    0    0  0.19063938934E+02 -0.56175006562E+03  0.43835162565E+02  0.10642809139E+04  0.90268808130E+03 0.  0.
         23    2    4    4    0    0  0.25177956713E+03  0.78168127734E+02 -0.19089203984E+03  0.33800006506E+03  0.91110188718E+02 0.  0.
         23    2    4    4    0    0 -0.23271562819E+03 -0.63991819336E+03  0.23472720241E+03  0.72628084880E+03  0.93462045676E+02 0.  0.
          4    1    3    3  502    0 -0.15252426220E+02  0.20696688169E+03 -0.10407493361E+04  0.10612384780E+04  0.00000000000E+00 0. -1.
         -3    1    3    3    0  502 -0.38115127140E+01  0.35478318393E+03 -0.23687649758E+04  0.23951895845E+04  0.00000000000E+00 0.  1.
         13    1    5    5    0    0  0.86445304444E+02 -0.11662013581E+02 -0.86381655927E+02  0.12276230570E+03  0.00000000000E+00 0. -1.
        -13    1    5    5    0    0  0.16533426268E+03  0.89830141316E+02 -0.10451038392E+03  0.21523775935E+03  0.00000000000E+00 0.  1.
          3    1    6    6  503    0 -0.36019690148E+02 -0.12672118065E+03  0.84525902287E+02  0.15652572907E+03  0.00000000000E+00 0. -1.
         -3    1    6    6    0  503 -0.19669593805E+03 -0.51319701270E+03  0.15020130012E+03  0.56975511972E+03  0.00000000000E+00 0.  1.
<mgrwt>
<rscale>  0 0.30181142E+04</rscale>
<asrwt>0</asrwt>
<pdfrwt beam="1">  1        2 0.60664524E+00 0.30181142E+04</pdfrwt>
<pdfrwt beam="2">  1       -1 0.88848448E-01 0.30181142E+04</pdfrwt>
<totfact> 0.45821720E-01</totfact>
</mgrwt>
</event>
<event>
12    7  0.1544987E-007  0.1978645E+04  0.7818608E-02  0.8616670E-01
          2   -1    0    0  501    0  0.00000000000E+00  0.00000000000E+00  0.16219811808E+04  0.16219811808E+04  0.00000000000E+00 0. -1.
         -1   -1    0    0    0  501 -0.00000000000E+00 -0.00000000000E+00 -0.60343415831E+03  0.60343415831E+03  0.00000000000E+00 0.  1.
         24    2    1    2    0    0 -0.51210061462E+03 -0.16132871598E+03 -0.23398149892E+03  0.59131012358E+03  0.81402250071E+02 0.  0.
        254    2    1    2    0    0  0.51210061462E+03  0.16132871598E+03  0.12525285214E+04  0.16341052155E+04  0.90177500762E+03 0.  0.
         23    2    4    4    0    0  0.74409592431E+03  0.14546037163E+03  0.10956308421E+04  0.13353344749E+04  0.88734173446E+02 0.  0.
         23    2    4    4    0    0 -0.23199530969E+03  0.15868344352E+02  0.15689767938E+03  0.29877074064E+03  0.10282726095E+03 0.  0.
          4    1    3    3  502    0 -0.16682029319E+03 -0.54098430291E+02 -0.35733334911E+02  0.17897631577E+03  0.00000000000E+00 0. -1.
         -3    1    3    3    0  502 -0.34528032143E+03 -0.10723028569E+03 -0.19824816401E+03  0.41233380782E+03  0.00000000000E+00 0.  1.
         13    1    5    5    0    0  0.30052230319E+03  0.35432487251E+02  0.37293967078E+03  0.48026358795E+03  0.00000000000E+00 0. -1.
        -13    1    5    5    0    0  0.44357362112E+03  0.11002788438E+03  0.72269117127E+03  0.85507088696E+03  0.00000000000E+00 0.  1.
          1    1    6    6  503    0 -0.12612296772E+03 -0.60115838730E+01  0.14137541073E+03  0.18955249639E+03  0.00000000000E+00 0. -1.
         -1    1    6    6    0  503 -0.10587234196E+03  0.21879928225E+02  0.15522268652E+02  0.10921824425E+03  0.00000000000E+00 0.  1.
<mgrwt>
<rscale>  0 0.19786448E+04</rscale>
<asrwt>0</asrwt>
<pdfrwt beam="1">  1        2 0.24953557E+00 0.19786448E+04</pdfrwt>
<pdfrwt beam="2">  1       -1 0.92836025E-01 0.19786448E+04</pdfrwt>
<totfact> 0.12957486E+01</totfact>
</mgrwt>
</event>
<event>
12    7  0.1544987E-007  0.2436159E+04  0.7818608E-02  0.8426089E-01
         -3   -1    0    0    0  501 -0.00000000000E+00  0.00000000000E+00  0.10107666765E+04  0.10107666765E+04  0.00000000000E+00 0.  1.
          2   -1    0    0  501    0  0.00000000000E+00 -0.00000000000E+00 -0.14679133743E+04  0.14679133743E+04  0.00000000000E+00 0. -1.
         24    2    1    2    0    0  0.86712621240E+03  0.52077051280E+03  0.63086324941E+02  0.10169852309E+04  0.84671601751E+02 0.  0.
        254    2    1    2    0    0 -0.86712621240E+03 -0.52077051280E+03 -0.52023302272E+03  0.14616948200E+04  0.91804115028E+03 0.  0.
         23    2    4    4    0    0 -0.23663593064E+03  0.12520035342E+03 -0.47468727816E+03  0.55349627378E+03  0.96738931580E+02 0.  0.
         23    2    4    4    0    0 -0.63049028176E+03 -0.64597086622E+03 -0.45545744569E+02  0.90819854620E+03  0.89184242294E+02 0.  0.
          2    1    3    3  502    0  0.59684040139E+03  0.32657074145E+03  0.13373177927E+02  0.68047465478E+03  0.00000000000E+00 0. -1.
         -1    1    3    3    0  502  0.27028581101E+03  0.19419977135E+03  0.49713147014E+02  0.33651057608E+03  0.00000000000E+00 0.  1.
         13    1    5    5    0    0 -0.70836123589E+02 -0.17409632078E+01 -0.16943844285E+03  0.18365776127E+03  0.00000000000E+00 0. -1.
        -13    1    5    5    0    0 -0.16579980705E+03  0.12694131663E+03 -0.30524883531E+03  0.36983851252E+03  0.00000000000E+00 0.  1.
          1    1    6    6  503    0 -0.34566370814E+03 -0.29115084310E+03 -0.29920550026E+02  0.45293206100E+03  0.00000000000E+00 0. -1.
         -1    1    6    6    0  503 -0.28482657362E+03 -0.35482002312E+03 -0.15625194543E+02  0.45526648520E+03  0.00000000000E+00 0.  1.
<mgrwt>
<rscale>  0 0.24361592E+04</rscale>
<asrwt>0</asrwt>
<pdfrwt beam="1">  1        2 0.22583283E+00 0.24361592E+04</pdfrwt>
<pdfrwt beam="2">  1       -3 0.15550256E+00 0.24361592E+04</pdfrwt>
<totfact> 0.22063165E+00</totfact>
</mgrwt>
</event>
<event>
12    7  0.1544987E-007  0.1355303E+04  0.7818608E-02  0.8986824E-01
         -1   -1    0    0    0  501 -0.00000000000E+00  0.00000000000E+00  0.25545793487E+03  0.25545793487E+03  0.00000000000E+00 0.  1.
          2   -1    0    0  501    0  0.00000000000E+00 -0.00000000000E+00 -0.17976008419E+04  0.17976008419E+04  0.00000000000E+00 0. -1.
         24    2    1    2    0    0 -0.22771062372E+03 -0.53929496343E+02  0.25539309158E+01  0.24498751185E+03  0.72469577552E+02 0.  0.
        254    2    1    2    0    0  0.22771062372E+03  0.53929496343E+02 -0.15446968379E+04  0.18080712649E+04  0.91009497260E+03 0.  0.
         23    2    4    4    0    0 -0.23346713762E+03  0.28908278758E+03 -0.89032806132E+03  0.96900652264E+03  0.90630137006E+02 0.  0.
         23    2    4    4    0    0  0.46117776134E+03 -0.23515329124E+03 -0.65436877663E+03  0.83906474228E+03  0.88595417389E+02 0.  0.
          2    1    3    3  502    0 -0.14437392168E+02  0.82099192796E+01 -0.14696741462E+02  0.22177359554E+02  0.00000000000E+00 0. -1.
         -1    1    3    3    0  502 -0.21327323155E+03 -0.62139415622E+02  0.17250672378E+02  0.22281015230E+03  0.00000000000E+00 0.  1.
         13    1    5    5    0    0 -0.10186809901E+02 -0.16683403962E+01 -0.65818672177E+01  0.12242362178E+02  0.00000000000E+00 0. -1.
        -13    1    5    5    0    0 -0.22328032772E+03  0.29075112798E+03 -0.88374619410E+03  0.95676416047E+03  0.00000000000E+00 0.  1.
          2    1    6    6  503    0  0.12236409610E+03 -0.10573023266E+03 -0.22341522994E+03  0.27580104982E+03  0.00000000000E+00 0. -1.
         -2    1    6    6    0  503  0.33881366523E+03 -0.12942305858E+03 -0.43095354668E+03  0.56326369246E+03  0.00000000000E+00 0.  1.
<mgrwt>
<rscale>  0 0.13553028E+04</rscale>
<asrwt>0</asrwt>
<pdfrwt beam="1">  1        2 0.27655397E+00 0.13553028E+04</pdfrwt>
<pdfrwt beam="2">  1       -1 0.39301222E-01 0.13553028E+04</pdfrwt>
<totfact> 0.60570259E+01</totfact>
</mgrwt>
</event>
<event>
12    7  0.1544987E-007  0.1531759E+04  0.7818608E-02  0.8863604E-01
          2   -1    0    0  501    0  0.00000000000E+00  0.00000000000E+00  0.19228275521E+04  0.19228275521E+04  0.00000000000E+00 0. -1.
         -1   -1    0    0    0  501 -0.00000000000E+00 -0.00000000000E+00 -0.30505684941E+03  0.30505684941E+03  0.00000000000E+00 0.  1.
         24    2    1    2    0    0  0.33278280656E+03  0.32569967171E+03  0.78977073755E+03  0.91928297753E+03  0.67221294304E+02 0.  0.
        254    2    1    2    0    0 -0.33278280656E+03 -0.32569967171E+03  0.82799996516E+03  0.13086014240E+04  0.90001615101E+03 0.  0.
         23    2    4    4    0    0 -0.59598381352E+03 -0.32441284514E+03  0.38954174343E+03  0.78776024386E+03  0.91558898343E+02 0.  0.
         23    2    4    4    0    0  0.26320100696E+03 -0.12868265647E+01  0.43845822174E+03  0.52084118013E+03  0.98759793065E+02 0.  0.
          4    1    3    3  502    0  0.40359589649E+02  0.42063751462E+02  0.60989090474E+02  0.84367794926E+02  0.00000000000E+00 0. -1.
         -3    1    3    3    0  502  0.29242321691E+03  0.28363592024E+03  0.72878164707E+03  0.83491518261E+03  0.00000000000E+00 0.  1.
         13    1    5    5    0    0 -0.68607073585E+01 -0.19565346570E+02  0.18078926366E+02  0.27508538137E+02  0.00000000000E+00 0.  1.
        -13    1    5    5    0    0 -0.58912310616E+03 -0.30484749857E+03  0.37146281706E+03  0.76025170573E+03  0.00000000000E+00 0. -1.
          3    1    6    6  503    0  0.27160860332E+03 -0.25993621313E+01  0.43138707659E+03  0.50977720617E+03  0.00000000000E+00 0. -1.
         -3    1    6    6    0  503 -0.84075963601E+01  0.13125355666E+01  0.70711451451E+01  0.11063973962E+02  0.00000000000E+00 0.  1.
<mgrwt>
<rscale>  0 0.15317594E+04</rscale>
<asrwt>0</asrwt>
<pdfrwt beam="1">  1        2 0.29581962E+00 0.15317594E+04</pdfrwt>
<pdfrwt beam="2">  1       -1 0.46931824E-01 0.15317594E+04</pdfrwt>
<totfact> 0.36654115E+01</totfact>
</mgrwt>
</event>
<event>
12    7  0.1544987E-007  0.1965712E+04  0.7818608E-02  0.8622821E-01
          2   -1    0    0  501    0  0.00000000000E+00  0.00000000000E+00  0.11753505189E+04  0.11753505189E+04  0.00000000000E+00 0. -1.
         -1   -1    0    0    0  501 -0.00000000000E+00 -0.00000000000E+00 -0.82188720731E+03  0.82188720731E+03  0.00000000000E+00 0.  1.
         24    2    1    2    0    0 -0.22257996040E+03 -0.46934616827E+03  0.72722668976E+03  0.89722102982E+03  0.79493733175E+02 0.  0.
        254    2    1    2    0    0  0.22257996040E+03  0.46934616827E+03 -0.37376337820E+03  0.11000166964E+04  0.89471224701E+03 0.  0.
         23    2    4    4    0    0 -0.13441149904E+03  0.91458633679E+01 -0.47439135663E+03  0.50186296176E+03  0.93108405898E+02 0.  0.
         23    2    4    4    0    0  0.35699145944E+03  0.46020030490E+03  0.10062797842E+03  0.59815373461E+03  0.91840500002E+02 0.  0.
          2    1    3    3  502    0 -0.17636835238E+03 -0.28374450283E+03  0.45252614824E+03  0.56249146967E+03  0.00000000000E+00 0. -1.
         -1    1    3    3    0  502 -0.46211608017E+02 -0.18560166543E+03  0.27470054152E+03  0.33472956015E+03  0.00000000000E+00 0.  1.
         13    1    5    5    0    0 -0.54278178230E+02  0.39302437441E+01 -0.34722706893E+03  0.35146579471E+03  0.00000000000E+00 0.  1.
        -13    1    5    5    0    0 -0.80133320810E+02  0.52156196239E+01 -0.12716428769E+03  0.15039716705E+03  0.00000000000E+00 0. -1.
          2    1    6    6  503    0  0.23373999240E+03  0.28308651637E+03  0.19509232194E+02  0.36763156820E+03  0.00000000000E+00 0. -1.
         -2    1    6    6    0  503  0.12325146704E+03  0.17711378853E+03  0.81118746229E+02  0.23052216641E+03  0.00000000000E+00 0.  1.
<mgrwt>
<rscale>  0 0.19657116E+04</rscale>
<asrwt>0</asrwt>
<pdfrwt beam="1">  1        2 0.18082316E+00 0.19657116E+04</pdfrwt>
<pdfrwt beam="2">  1       -1 0.12644418E+00 0.19657116E+04</pdfrwt>
<totfact> 0.11322189E+01</totfact>
</mgrwt>
</event>
<event>
12    7  0.1544987E-007  0.2038615E+04  0.7818608E-02  0.8588777E-01
          2   -1    0    0  501    0  0.00000000000E+00  0.00000000000E+00  0.22026766383E+04  0.22026766383E+04  0.00000000000E+00 0. -1.
         -1   -1    0    0    0  501 -0.00000000000E+00 -0.00000000000E+00 -0.47169310608E+03  0.47169310608E+03  0.00000000000E+00 0.  1.
         24    2    1    2    0    0 -0.63935802273E+03  0.36905635792E+03  0.11338242106E+04  0.13553874289E+04  0.80848409539E+02 0.  0.
        254    2    1    2    0    0  0.63935802273E+03 -0.36905635792E+03  0.59715932161E+03  0.13189823155E+04  0.91549648638E+03 0.  0.
         23    2    4    4    0    0  0.73358371740E+03 -0.16821586237E+03  0.72362632609E+03  0.10479911161E+04  0.90601726977E+02 0.  0.
         23    2    4    4    0    0 -0.94225694665E+02 -0.20084049555E+03 -0.12646700447E+03  0.27099119932E+03  0.90702484539E+02 0.  0.
          4    1    3    3  502    0 -0.38619247051E+03  0.25117223727E+03  0.76078374284E+03  0.88939531168E+03  0.00000000000E+00 0. -1.
         -3    1    3    3    0  502 -0.25316555222E+03  0.11788412065E+03  0.37304046777E+03  0.46599211724E+03  0.00000000000E+00 0.  1.
         13    1    5    5    0    0  0.51811088842E+03 -0.16051982664E+03  0.52261286326E+03  0.75321292626E+03  0.00000000000E+00 0.  1.
        -13    1    5    5    0    0  0.21547282898E+03 -0.76960357312E+01  0.20101346283E+03  0.29477818988E+03  0.00000000000E+00 0. -1.
          1    1    6    6  503    0  0.11112607694E+02 -0.41786929601E+01 -0.21219921942E+02  0.24315357531E+02  0.00000000000E+00 0. -1.
         -1    1    6    6    0  503 -0.10533830236E+03 -0.19666180259E+03 -0.10524708253E+03  0.24667584179E+03  0.00000000000E+00 0.  1.
<mgrwt>
<rscale>  0 0.20386146E+04</rscale>
<asrwt>0</asrwt>
<pdfrwt beam="1">  1        2 0.33887332E+00 0.20386146E+04</pdfrwt>
<pdfrwt beam="2">  1       -1 0.72568171E-01 0.20386146E+04</pdfrwt>
<totfact> 0.10390700E+01</totfact>
</mgrwt>
</event>
<event>
12    7  0.1544987E-007  0.1104682E+04  0.7818608E-02  0.9200640E-01
          2   -1    0    0  501    0  0.00000000000E+00  0.00000000000E+00  0.67651191433E+03  0.67651191433E+03  0.00000000000E+00 0. -1.
         -1   -1    0    0    0  501 -0.00000000000E+00 -0.00000000000E+00 -0.45096152572E+03  0.45096152572E+03  0.00000000000E+00 0.  1.
         24    2    1    2    0    0  0.13360897400E+03 -0.97908233904E+02  0.77016154553E+02  0.19910987483E+03  0.79220414004E+02 0.  0.
        254    2    1    2    0    0 -0.13360897400E+03  0.97908233904E+02  0.14853423406E+03  0.92836356522E+03  0.90130966395E+03 0.  0.
         23    2    4    4    0    0  0.13324844720E+03  0.37984911380E+03 -0.13978864450E+03  0.43600781290E+03  0.92311699361E+02 0.  0.
         23    2    4    4    0    0 -0.26685742120E+03 -0.28194087990E+03  0.28832287856E+03  0.49235575232E+03  0.92631320446E+02 0.  0.
          4    1    3    3  502    0 -0.25938557105E+01 -0.17279751380E+02  0.28735822947E+02  0.33631315996E+02  0.00000000000E+00 0. -1.
         -3    1    3    3    0  502  0.13620282971E+03 -0.80628482524E+02  0.48280331607E+02  0.16547855884E+03  0.00000000000E+00 0.  1.
         13    1    5    5    0    0  0.13994110535E+03  0.34491957928E+03 -0.14612671841E+03  0.39988254147E+03  0.00000000000E+00 0. -1.
        -13    1    5    5    0    0 -0.66926581467E+01  0.34929534522E+02  0.63380739115E+01  0.36125271430E+02  0.00000000000E+00 0.  1.
          2    1    6    6  503    0 -0.27335365556E+03 -0.27325041296E+03  0.28702896625E+03  0.48142874515E+03  0.00000000000E+00 0. -1.
         -2    1    6    6    0  503  0.64962343615E+01 -0.86904669384E+01  0.12939123139E+01  0.10927007164E+02  0.00000000000E+00 0.  1.
<mgrwt>
<rscale>  0 0.11046825E+04</rscale>
<asrwt>0</asrwt>
<pdfrwt beam="1">  1        2 0.10407876E+00 0.11046825E+04</pdfrwt>
<pdfrwt beam="2">  1       -1 0.69378697E-01 0.11046825E+04</pdfrwt>
<totfact> 0.10195282E+02</totfact>
</mgrwt>
</event>
<event>
12    7  0.1544987E-007  0.2877507E+04  0.7818608E-02  0.8279601E-01
         -1   -1    0    0    0  501 -0.00000000000E+00  0.00000000000E+00  0.85164314798E+03  0.85164314798E+03  0.00000000000E+00 0.  1.
          2   -1    0    0  501    0  0.00000000000E+00 -0.00000000000E+00 -0.24306093583E+04  0.24306093583E+04  0.00000000000E+00 0. -1.
         24    2    1    2    0    0 -0.89314332689E+03 -0.94543809901E+03 -0.66346648322E+03  0.14622765041E+04  0.80663490074E+02 0.  0.
        254    2    1    2    0    0  0.89314332689E+03  0.94543809901E+03 -0.91549972710E+03  0.18199760022E+04  0.88465512873E+03 0.  0.
         23    2    4    4    0    0  0.78931567806E+03  0.39136214377E+03 -0.87852437611E+03  0.12475653290E+04  0.91818317527E+02 0.  0.
         23    2    4    4    0    0  0.10382764883E+03  0.55407595524E+03 -0.36975350998E+02  0.57241067322E+03  0.92230458061E+02 0.  0.
          2    1    3    3  502    0 -0.68613480741E+03 -0.74598514571E+03 -0.55065927245E+03  0.11534732099E+04  0.00000000000E+00 0. -1.
         -1    1    3    3    0  502 -0.20700851948E+03 -0.19945295330E+03 -0.11280721076E+03  0.30880329422E+03  0.00000000000E+00 0.  1.
         13    1    5    5    0    0  0.27093834012E+03  0.17766954634E+03 -0.29219102064E+03  0.43629077962E+03  0.00000000000E+00 0.  1.
        -13    1    5    5    0    0  0.51837733794E+03  0.21369259743E+03 -0.58633335547E+03  0.81127454935E+03  0.00000000000E+00 0. -1.
          2    1    6    6  503    0  0.17483013693E+02  0.26424292823E+03  0.16346529398E+02  0.26532468772E+03  0.00000000000E+00 0.  1.
         -2    1    6    6    0  503  0.86344635140E+02  0.28983302701E+03 -0.53321880395E+02  0.30708598550E+03  0.00000000000E+00 0. -1.
<mgrwt>
<rscale>  0 0.28775071E+04</rscale>
<asrwt>0</asrwt>
<pdfrwt beam="1">  1        2 0.37393990E+00 0.28775071E+04</pdfrwt>
<pdfrwt beam="2">  1       -1 0.13102202E+00 0.28775071E+04</pdfrwt>
<totfact> 0.18654226E+00</totfact>
</mgrwt>
</event>
<event>
12    7  0.1544987E-007  0.1472298E+04  0.7818608E-02  0.8903086E-01
          2   -1    0    0  501    0  0.00000000000E+00  0.00000000000E+00  0.40057170663E+03  0.40057170663E+03  0.00000000000E+00 0. -1.
         -1   -1    0    0    0  501 -0.00000000000E+00 -0.00000000000E+00 -0.13528554153E+04  0.13528554153E+04  0.00000000000E+00 0.  1.
         24    2    1    2    0    0 -0.19075520125E+03 -0.39993151563E+03 -0.20518793964E+03  0.49498424096E+03  0.81083563196E+02 0.  0.
        254    2    1    2    0    0  0.19075520125E+03  0.39993151563E+03 -0.74709576906E+03  0.12584428810E+04  0.91060069878E+03 0.  0.
         23    2    4    4    0    0 -0.22001695182E+03  0.12556504618E+03  0.88573550790E+02  0.28349906760E+03  0.91391506810E+02 0.  0.
         23    2    4    4    0    0  0.41077215307E+03  0.27436646945E+03 -0.83566931985E+03  0.97494381342E+03  0.90341053123E+02 0.  0.
          2    1    3    3  502    0 -0.74331631008E+02 -0.98255565733E+02 -0.28339148879E+02  0.12642173439E+03  0.00000000000E+00 0. -1.
         -1    1    3    3    0  502 -0.11642357024E+03 -0.30167594990E+03 -0.17684879076E+03  0.36856250657E+03  0.00000000000E+00 0.  1.
         13    1    5    5    0    0 -0.22609477002E+03  0.12690178775E+03  0.77181036271E+02  0.27051769097E+03  0.00000000000E+00 0. -1.
        -13    1    5    5    0    0  0.60778182013E+01 -0.13367415715E+01  0.11392514519E+02  0.12981376629E+02  0.00000000000E+00 0.  1.
          2    1    6    6  503    0  0.31226124409E+03  0.16034750979E+03 -0.60354698314E+03  0.69820295710E+03  0.00000000000E+00 0. -1.
         -2    1    6    6    0  503  0.98510908986E+02  0.11401895966E+03 -0.23212233671E+03  0.27674085631E+03  0.00000000000E+00 0.  1.
<mgrwt>
<rscale>  0 0.14722983E+04</rscale>
<asrwt>0</asrwt>
<pdfrwt beam="1">  1        2 0.61626417E-01 0.14722983E+04</pdfrwt>
<pdfrwt beam="2">  1       -1 0.20813160E+00 0.14722983E+04</pdfrwt>
<totfact> 0.11640297E+01</totfact>
</mgrwt>
</event>
<event>
12    7  0.1544987E-007  0.1944942E+04  0.7818608E-02  0.8632803E-01
          2   -1    0    0  501    0  0.00000000000E+00  0.00000000000E+00  0.54021124775E+03  0.54021124775E+03  0.00000000000E+00 0. -1.
         -1   -1    0    0    0  501 -0.00000000000E+00 -0.00000000000E+00 -0.17506119950E+04  0.17506119950E+04  0.00000000000E+00 0.  1.
         24    2    1    2    0    0 -0.30846592146E+03 -0.40362705724E+03 -0.11345353867E+04  0.12455298998E+04  0.78154728383E+02 0.  0.
        254    2    1    2    0    0  0.30846592146E+03  0.40362705724E+03 -0.75865360529E+02  0.10452933429E+04  0.91039364774E+03 0.  0.
         23    2    4    4    0    0 -0.30803196541E+03  0.15939058270E+03 -0.10870905398E+03  0.37501003248E+03  0.92335347929E+02 0.  0.
         23    2    4    4    0    0  0.61649788687E+03  0.24423647454E+03  0.32843693449E+02  0.67028331046E+03  0.92086416352E+02 0.  0.
          2    1    3    3  502    0 -0.17079902535E+03 -0.17077183789E+03 -0.58944974568E+03  0.63701360296E+03  0.00000000000E+00 0. -1.
         -1    1    3    3    0  502 -0.13766689611E+03 -0.23285521935E+03 -0.54508564100E+03  0.60851629681E+03  0.00000000000E+00 0.  1.
         13    1    5    5    0    0 -0.12450969177E+03  0.11382547187E+03 -0.36523645511E+02  0.17260613567E+03  0.00000000000E+00 0. -1.
        -13    1    5    5    0    0 -0.18352227364E+03  0.45565110826E+02 -0.72185408466E+02  0.20240389680E+03  0.00000000000E+00 0.  1.
          4    1    6    6  503    0  0.19073631069E+03  0.54834153590E+02 -0.27668511753E+02  0.20038131439E+03  0.00000000000E+00 0. -1.
         -4    1    6    6    0  503  0.42576157618E+03  0.18940232095E+03  0.60512205202E+02  0.46990199607E+03  0.00000000000E+00 0.  1.
<mgrwt>
<rscale>  0 0.19449425E+04</rscale>
<asrwt>0</asrwt>
<pdfrwt beam="1">  1        2 0.83109426E-01 0.19449425E+04</pdfrwt>
<pdfrwt beam="2">  1       -1 0.26932491E+00 0.19449425E+04</pdfrwt>
<totfact> 0.31295747E+00</totfact>
</mgrwt>
</event>
<event>
12    7  0.1839683E-007  0.2223516E+04  0.7818608E-02  0.8508704E-01
         -1   -1    0    0    0  501 -0.00000000000E+00  0.00000000000E+00  0.88952691859E+03  0.88952691859E+03  0.00000000000E+00 0.  1.
          2   -1    0    0  501    0  0.00000000000E+00 -0.00000000000E+00 -0.13895089954E+04  0.13895089954E+04  0.00000000000E+00 0. -1.
         24    2    1    2    0    0 -0.52742771804E+02 -0.80040522362E+03  0.26512067567E+03  0.84994249743E+03  0.93182371169E+02 0.  0.
        254    2    1    2    0    0  0.52742771804E+02  0.80040522362E+03 -0.76510275249E+03  0.14290934166E+04  0.90193982585E+03 0.  0.
         23    2    4    4    0    0  0.23272167021E+03  0.78187125736E+02  0.10360207191E+03  0.28118753499E+03  0.89779942717E+02 0.  0.
         23    2    4    4    0    0 -0.17997889841E+03  0.72221809788E+03 -0.86870482441E+03  0.11479058816E+04  0.95123373776E+02 0.  0.
          4    1    3    3  502    0  0.57781666269E+01 -0.86576936457E+00  0.14927721432E+01  0.60303511367E+01  0.00000000000E+00 0. -1.
         -3    1    3    3    0  502 -0.58520938431E+02 -0.79953945425E+03  0.26362790352E+03  0.84391214629E+03  0.00000000000E+00 0.  1.
         13    1    5    5    0    0  0.20690435071E+03  0.63811526738E+02  0.53519658896E+02  0.22303738515E+03  0.00000000000E+00 0.  1.
        -13    1    5    5    0    0  0.25817319500E+02  0.14375598998E+02  0.50082413017E+02  0.58150149839E+02  0.00000000000E+00 0. -1.
          4    1    6    6  503    0 -0.59303526488E+00  0.13486057894E+03 -0.18397458878E+03  0.22811044860E+03  0.00000000000E+00 0. -1.
         -4    1    6    6    0  503 -0.17938586314E+03  0.58735751894E+03 -0.68473023562E+03  0.91979543298E+03  0.00000000000E+00 0.  1.
<mgrwt>
<rscale>  0 0.22235158E+04</rscale>
<asrwt>0</asrwt>
<pdfrwt beam="1">  1        2 0.21377061E+00 0.22235158E+04</pdfrwt>
<pdfrwt beam="2">  1       -1 0.13685030E+00 0.22235158E+04</pdfrwt>
<totfact> 0.67842283E+00</totfact>
</mgrwt>
</event>
<event>
12    7  0.1544987E-007  0.1222187E+04  0.7818608E-02  0.9093655E-01
         -1   -1    0    0    0  501 -0.00000000000E+00  0.00000000000E+00  0.26939524466E+03  0.26939524466E+03  0.00000000000E+00 0.  1.
          2   -1    0    0  501    0  0.00000000000E+00 -0.00000000000E+00 -0.13861984666E+04  0.13861984666E+04  0.00000000000E+00 0. -1.
         24    2    1    2    0    0  0.39225270511E+02  0.70088671524E+02  0.99240945800E+02  0.14954725371E+03  0.77875362252E+02 0.  0.
        254    2    1    2    0    0 -0.39225270511E+02 -0.70088671524E+02 -0.12160441678E+04  0.15060464576E+04  0.88485110087E+03 0.  0.
         23    2    4    4    0    0  0.36364207026E+03 -0.99124047361E+02 -0.26828882523E+03  0.47180380763E+03  0.92513821245E+02 0.  0.
         23    2    4    4    0    0 -0.40286734077E+03  0.29035375837E+02 -0.94775534254E+03  0.10342426500E+04  0.90953407609E+02 0.  0.
          4    1    3    3  502    0 -0.22477241629E+01 -0.12035254876E+02 -0.23734024566E+01  0.12471273514E+02  0.00000000000E+00 0. -1.
         -1    1    3    3    0  502  0.41472994674E+02  0.82123926400E+02  0.10161434826E+03  0.13707598019E+03  0.00000000000E+00 0.  1.
         13    1    5    5    0    0  0.91044333846E+01  0.13884226547E+01  0.72096950935E+01  0.11696073190E+02  0.00000000000E+00 0.  1.
        -13    1    5    5    0    0  0.35453763688E+03 -0.10051247002E+03 -0.27549852033E+03  0.46010773444E+03  0.00000000000E+00 0. -1.
          4    1    6    6  503    0 -0.35821060962E+03  0.40533307055E+02 -0.76385826496E+03  0.84465214069E+03  0.00000000000E+00 0. -1.
         -4    1    6    6    0  503 -0.44656731153E+02 -0.11497931218E+02 -0.18389707759E+03  0.18959050927E+03  0.00000000000E+00 0.  1.
<mgrwt>
<rscale>  0 0.12221870E+04</rscale>
<asrwt>0</asrwt>
<pdfrwt beam="1">  1        2 0.21326130E+00 0.12221870E+04</pdfrwt>
<pdfrwt beam="2">  1       -1 0.41445422E-01 0.12221870E+04</pdfrwt>
<totfact> 0.94375917E+01</totfact>
</mgrwt>
</event>
<event>
12    7  0.1544987E-007  0.2478400E+04  0.7818608E-02  0.8410721E-01
         -1   -1    0    0    0  501 -0.00000000000E+00  0.00000000000E+00  0.11257137939E+04  0.11257137939E+04  0.00000000000E+00 0.  1.
          2   -1    0    0  501    0  0.00000000000E+00 -0.00000000000E+00 -0.13641266049E+04  0.13641266049E+04  0.00000000000E+00 0. -1.
         24    2    1    2    0    0 -0.12177204082E+03  0.65521402063E+03  0.74329981918E+03  0.10014597910E+04  0.79330001449E+02 0.  0.
        254    2    1    2    0    0  0.12177204082E+03 -0.65521402063E+03 -0.98171263016E+03  0.14883806078E+04  0.89854510338E+03 0.  0.
         23    2    4    4    0    0  0.22452011256E+03 -0.84656770003E+03 -0.78913412481E+03  0.11824776115E+04  0.91839441525E+02 0.  0.
         23    2    4    4    0    0 -0.10274807173E+03  0.19135367941E+03 -0.19257850535E+03  0.30590299635E+03  0.96523393999E+02 0.  0.
          4    1    3    3  502    0 -0.43078939145E+02  0.24195108741E+03  0.33253103645E+03  0.41348883165E+03  0.00000000000E+00 0. -1.
         -3    1    3    3    0  502 -0.78693101679E+02  0.41326293322E+03  0.41076878272E+03  0.58797095939E+03  0.00000000000E+00 0.  1.
         13    1    5    5    0    0  0.12637862131E+03 -0.38879605384E+03 -0.42168172628E+03  0.58732393591E+03  0.00000000000E+00 0. -1.
        -13    1    5    5    0    0  0.98141491245E+02 -0.45777164619E+03 -0.36745239853E+03  0.59515367557E+03  0.00000000000E+00 0.  1.
          3    1    6    6  503    0 -0.10371510089E+03  0.12421949823E+03 -0.95610451087E+02  0.18795920900E+03  0.00000000000E+00 0. -1.
         -3    1    6    6    0  503  0.96702915119E+00  0.67134181175E+02 -0.96968054258E+02  0.11794378735E+03  0.00000000000E+00 0.  1.
<mgrwt>
<rscale>  0 0.24783996E+04</rscale>
<asrwt>0</asrwt>
<pdfrwt beam="1">  1        2 0.20986563E+00 0.24783996E+04</pdfrwt>
<pdfrwt beam="2">  1       -1 0.17318674E+00 0.24783996E+04</pdfrwt>
<totfact> 0.36020715E+00</totfact>
</mgrwt>
</event>
<event>
12    7  0.1544987E-007  0.1674587E+04  0.7818608E-02  0.8775993E-01
         -1   -1    0    0    0  501 -0.00000000000E+00  0.00000000000E+00  0.41596422943E+03  0.41596422943E+03  0.00000000000E+00 0.  1.
          2   -1    0    0  501    0  0.00000000000E+00 -0.00000000000E+00 -0.16853853521E+04  0.16853853521E+04  0.00000000000E+00 0. -1.
         24    2    1    2    0    0  0.37274972259E+03  0.32761900388E+03 -0.46937261300E+02  0.50734153056E+03  0.94423274381E+02 0.  0.
        254    2    1    2    0    0 -0.37274972259E+03 -0.32761900388E+03 -0.12224838613E+04  0.15940080509E+04  0.89449332464E+03 0.  0.
         23    2    4    4    0    0  0.79292779101E+01 -0.10544699361E+03  0.11623078712E+03  0.18149630739E+03  0.90826052495E+02 0.  0.
         23    2    4    4    0    0 -0.38067900050E+03 -0.22217201026E+03 -0.13387146484E+04  0.14125117435E+04  0.93571427877E+02 0.  0.
          2    1    3    3  502    0  0.16639423721E+02  0.14988772169E+01 -0.16541163915E+02  0.23510150113E+02  0.00000000000E+00 0. -1.
         -1    1    3    3    0  502  0.35611029887E+03  0.32612012666E+03 -0.30396097385E+02  0.48383138045E+03  0.00000000000E+00 0.  1.
         13    1    5    5    0    0 -0.39789058195E+02 -0.64462973263E+02  0.54147096803E+02  0.93115799766E+02  0.00000000000E+00 0.  1.
        -13    1    5    5    0    0  0.47718336105E+02 -0.40984020350E+02  0.62083690316E+02  0.88380507624E+02  0.00000000000E+00 0. -1.
          2    1    6    6  503    0 -0.22866684343E+03 -0.10479276436E+03 -0.63342357684E+03  0.68153904983E+03  0.00000000000E+00 0. -1.
         -2    1    6    6    0  503 -0.15201215707E+03 -0.11737924590E+03 -0.70529107160E+03  0.73097269370E+03  0.00000000000E+00 0.  1.
<mgrwt>
<rscale>  0 0.16745865E+04</rscale>
<asrwt>0</asrwt>
<pdfrwt beam="1">  1        2 0.25929005E+00 0.16745865E+04</pdfrwt>
<pdfrwt beam="2">  1       -1 0.63994498E-01 0.16745865E+04</pdfrwt>
<totfact> 0.26875159E+01</totfact>
</mgrwt>
</event>
<event>
12    7  0.1544987E-007  0.1185443E+04  0.7818608E-02  0.9125695E-01
          2   -1    0    0  501    0  0.00000000000E+00  0.00000000000E+00  0.17751117990E+04  0.17751117990E+04  0.00000000000E+00 0. -1.
         -1   -1    0    0    0  501 -0.00000000000E+00 -0.00000000000E+00 -0.19791350084E+03  0.19791350084E+03  0.00000000000E+00 0.  1.
         24    2    1    2    0    0 -0.60560910864E+02 -0.30434966123E+03  0.73237922464E+03  0.80104814611E+03  0.94881312638E+02 0.  0.
        254    2    1    2    0    0  0.60560910864E+02  0.30434966123E+03  0.84481907350E+03  0.11719771537E+04  0.75067625623E+03 0.  0.
         23    2    4    4    0    0  0.28960268881E+03  0.55610139124E+02  0.62481975952E+02  0.31488790974E+03  0.91039515846E+02 0.  0.
         23    2    4    4    0    0 -0.22904177794E+03  0.24873952210E+03  0.78233709754E+03  0.85708924397E+03  0.90659539116E+02 0.  0.
          4    1    3    3  502    0 -0.44201493356E+02 -0.26042755599E+03  0.51636789215E+03  0.58001041713E+03  0.00000000000E+00 0. -1.
         -3    1    3    3    0  502 -0.16359417508E+02 -0.43922105241E+02  0.21601133249E+03  0.22103772898E+03  0.00000000000E+00 0.  1.
         13    1    5    5    0    0  0.26027487119E+03  0.73388282212E+02  0.38758793477E+02  0.27318691881E+03  0.00000000000E+00 0.  1.
        -13    1    5    5    0    0  0.29327817621E+02 -0.17778143088E+02  0.23723182475E+02  0.41700990933E+02  0.00000000000E+00 0. -1.
          1    1    6    6  503    0 -0.99233497881E+02  0.16708138748E+03  0.48625880864E+03  0.52365170306E+03  0.00000000000E+00 0. -1.
         -1    1    6    6    0  503 -0.12980828006E+03  0.81658134628E+02  0.29607828891E+03  0.33343754091E+03  0.00000000000E+00 0.  1.
<mgrwt>
<rscale>  0 0.11854427E+04</rscale>
<asrwt>0</asrwt>
<pdfrwt beam="1">  1        2 0.27309411E+00 0.11854427E+04</pdfrwt>
<pdfrwt beam="2">  1       -1 0.30448232E-01 0.11854427E+04</pdfrwt>
<totfact> 0.99655721E+01</totfact>
</mgrwt>
</event>
<event>
12    7  0.1544987E-007  0.2018588E+04  0.7818608E-02  0.8597979E-01
         -1   -1    0    0    0  501 -0.00000000000E+00  0.00000000000E+00  0.30450027438E+03  0.30450027438E+03  0.00000000000E+00 0.  1.
          2   -1    0    0  501    0  0.00000000000E+00 -0.00000000000E+00 -0.33453977640E+04  0.33453977640E+04  0.00000000000E+00 0. -1.
         24    2    1    2    0    0 -0.12905693673E+03 -0.72402113757E+03 -0.18242545901E+04  0.19685367282E+04  0.79810653575E+02 0.  0.
        254    2    1    2    0    0  0.12905693673E+03  0.72402113757E+03 -0.12166428996E+04  0.16813613102E+04  0.89771577335E+03 0.  0.
         23    2    4    4    0    0  0.21835922039E+03  0.35135676230E+03 -0.12149980084E+04  0.12868485403E+04  0.92879931428E+02 0.  0.
         23    2    4    4    0    0 -0.89302283653E+02  0.37266437527E+03 -0.16448911732E+01  0.39451276990E+03  0.93722918666E+02 0.  0.
          4    1    3    3  502    0 -0.10067200306E+03 -0.59923576122E+03 -0.15794548317E+04  0.16923049120E+04  0.00000000000E+00 0. -1.
         -3    1    3    3    0  502 -0.28384933671E+02 -0.12478537635E+03 -0.24479975836E+03  0.27623181624E+03  0.00000000000E+00 0.  1.
         13    1    5    5    0    0  0.71149055214E+01 -0.56738858093E+01 -0.23737820023E+02  0.25422410590E+02  0.00000000000E+00 0. -1.
        -13    1    5    5    0    0  0.21124431487E+03  0.35703064810E+03 -0.11912601884E+04  0.12614261297E+04  0.00000000000E+00 0.  1.
          3    1    6    6  503    0  0.10510037431E+02  0.38031897024E+02  0.20775493373E+02  0.44592681047E+02  0.00000000000E+00 0. -1.
         -3    1    6    6    0  503 -0.99812321084E+02  0.33463247825E+03 -0.22420384547E+02  0.34992008885E+03  0.00000000000E+00 0.  1.
<mgrwt>
<rscale>  0 0.20185882E+04</rscale>
<asrwt>0</asrwt>
<pdfrwt beam="1">  1        2 0.51467660E+00 0.20185882E+04</pdfrwt>
<pdfrwt beam="2">  1       -1 0.46846194E-01 0.20185882E+04</pdfrwt>
<totfact> 0.50004449E+00</totfact>
</mgrwt>
</event>
<event>
12    7  0.1544987E-007  0.2372522E+04  0.7818608E-02  0.8449863E-01
          2   -1    0    0  501    0  0.00000000000E+00  0.00000000000E+00  0.19379196193E+04  0.19379196193E+04  0.00000000000E+00 0. -1.
         -1   -1    0    0    0  501 -0.00000000000E+00 -0.00000000000E+00 -0.72614736696E+03  0.72614736696E+03  0.00000000000E+00 0.  1.
         24    2    1    2    0    0  0.47235160222E+02 -0.47516519053E+03 -0.48628856254E+03  0.68625591026E+03  0.80358507038E+02 0.  0.
        254    2    1    2    0    0 -0.47235160222E+02  0.47516519053E+03  0.16980608149E+04  0.19778110760E+04  0.89460214771E+03 0.  0.
         23    2    4    4    0    0  0.31448643208E+03  0.18818187528E+03  0.13236245625E+04  0.13764549133E+04  0.91279854590E+02 0.  0.
         23    2    4    4    0    0 -0.36172159230E+03  0.28698331525E+03  0.37443625244E+03  0.60135616272E+03  0.90690648548E+02 0.  0.
          2    1    3    3  502    0  0.25473846803E+02 -0.17760656820E+03 -0.13013590523E+03  0.22164919076E+03  0.00000000000E+00 0. -1.
         -1    1    3    3    0  502  0.21761313419E+02 -0.29755862234E+03 -0.35615265732E+03  0.46460671950E+03  0.00000000000E+00 0.  1.
         13    1    5    5    0    0  0.28368533196E+03  0.18502747601E+03  0.11077326028E+04  0.11583540278E+04  0.00000000000E+00 0.  1.
        -13    1    5    5    0    0  0.30801100114E+02  0.31543992720E+01  0.21589195968E+03  0.21810088551E+03  0.00000000000E+00 0. -1.
          3    1    6    6  503    0 -0.78302214251E+02  0.57634980905E+02  0.13029015063E+03  0.16256860439E+03  0.00000000000E+00 0. -1.
         -3    1    6    6    0  503 -0.28341937805E+03  0.22934833435E+03  0.24414610180E+03  0.43878755833E+03  0.00000000000E+00 0.  1.
<mgrwt>
<rscale>  0 0.23725221E+04</rscale>
<asrwt>0</asrwt>
<pdfrwt beam="1">  1        2 0.29814148E+00 0.23725221E+04</pdfrwt>
<pdfrwt beam="2">  1       -1 0.11171498E+00 0.23725221E+04</pdfrwt>
<totfact> 0.54584755E+00</totfact>
</mgrwt>
</event>
<event>
12    7  0.1544987E-007  0.1843547E+04  0.7818608E-02  0.8683478E-01
         -1   -1    0    0    0  501 -0.00000000000E+00  0.00000000000E+00  0.10386425643E+04  0.10386425643E+04  0.00000000000E+00 0.  1.
          2   -1    0    0  501    0  0.00000000000E+00 -0.00000000000E+00 -0.81805454346E+03  0.81805454346E+03  0.00000000000E+00 0. -1.
         24    2    1    2    0    0  0.27046570375E+03 -0.51398339231E+03 -0.24167609267E+03  0.63416824947E+03  0.80196074707E+02 0.  0.
        254    2    1    2    0    0 -0.27046570375E+03  0.51398339231E+03  0.46226411349E+03  0.12225288583E+04  0.97136917503E+03 0.  0.
         23    2    4    4    0    0 -0.39309390989E+03  0.34807815416E+03 -0.16200133122E+03  0.55888176706E+03  0.10209395103E+03 0.  0.
         23    2    4    4    0    0  0.12262820613E+03  0.16590523814E+03  0.62426544471E+03  0.66364709121E+03  0.90321045324E+02 0.  0.
          2    1    3    3  502    0  0.12142490397E+03 -0.18899579367E+03 -0.13027032563E+03  0.25968013992E+03  0.00000000000E+00 0. -1.
         -1    1    3    3    0  502  0.14904079978E+03 -0.32498759864E+03 -0.11140576704E+03  0.37448810956E+03  0.00000000000E+00 0.  1.
         13    1    5    5    0    0 -0.25166712341E+03  0.15575124931E+03 -0.97163847957E+02  0.31150538682E+03  0.00000000000E+00 0. -1.
        -13    1    5    5    0    0 -0.14142678647E+03  0.19232690485E+03 -0.64837483265E+02  0.24737638024E+03  0.00000000000E+00 0.  1.
          4    1    6    6  503    0  0.13220933202E+03  0.16274482769E+03  0.54847723160E+03  0.58719030986E+03  0.00000000000E+00 0. -1.
         -4    1    6    6    0  503 -0.95811258857E+01  0.31604104529E+01  0.75788213109E+02  0.76456781346E+02  0.00000000000E+00 0.  1.
<mgrwt>
<rscale>  0 0.18435469E+04</rscale>
<asrwt>0</asrwt>
<pdfrwt beam="1">  1        2 0.12585454E+00 0.18435469E+04</pdfrwt>
<pdfrwt beam="2">  1       -1 0.15979117E+00 0.18435469E+04</pdfrwt>
<totfact> 0.10529690E+01</totfact>
</mgrwt>
</event>
<event>
12    7  0.1544987E-007  0.1098856E+04  0.7818608E-02  0.9206308E-01
          2   -1    0    0  501    0  0.00000000000E+00  0.00000000000E+00  0.31192636689E+03  0.31192636689E+03  0.00000000000E+00 0. -1.
         -1   -1    0    0    0  501 -0.00000000000E+00 -0.00000000000E+00 -0.96776373078E+03  0.96776373078E+03  0.00000000000E+00 0.  1.
         24    2    1    2    0    0 -0.82822296240E+01  0.16637890856E+03 -0.10055815680E+03  0.21013844094E+03  0.79345352233E+02 0.  0.
        254    2    1    2    0    0  0.82822296240E+01 -0.16637890856E+03 -0.55527920709E+03  0.10695516567E+04  0.89880766133E+03 0.  0.
         23    2    4    4    0    0 -0.12737152103E+02 -0.50743740468E+03 -0.48558513631E+03  0.70819905462E+03  0.89989008516E+02 0.  0.
         23    2    4    4    0    0  0.21019381727E+02  0.34105849613E+03 -0.69694070782E+02  0.36135260212E+03  0.94634704875E+02 0.  0.
          4    1    3    3  502    0 -0.28618816620E+02  0.74995555713E+02 -0.11801244796E+02  0.81133466709E+02  0.00000000000E+00 0. -1.
         -3    1    3    3    0  502  0.20336586996E+02  0.91383352842E+02 -0.88756912003E+02  0.12900497423E+03  0.00000000000E+00 0.  1.
         13    1    5    5    0    0 -0.31154230364E+02 -0.21577478733E+03 -0.25810096625E+03  0.33785418999E+03  0.00000000000E+00 0. -1.
        -13    1    5    5    0    0  0.18417078261E+02 -0.29166261735E+03 -0.22748417006E+03  0.37034486463E+03  0.00000000000E+00 0.  1.
          3    1    6    6  503    0 -0.32360261592E+02  0.58258548027E+02 -0.16968069422E+02  0.68768890702E+02  0.00000000000E+00 0. -1.
         -3    1    6    6    0  503  0.53379643319E+02  0.28279994810E+03 -0.52726001359E+02  0.29258371141E+03  0.00000000000E+00 0.  1.
<mgrwt>
<rscale>  0 0.10988558E+04</rscale>
<asrwt>0</asrwt>
<pdfrwt beam="1">  1        2 0.47988673E-01 0.10988558E+04</pdfrwt>
<pdfrwt beam="2">  1       -1 0.14888672E+00 0.10988558E+04</pdfrwt>
<totfact> 0.42576600E+01</totfact>
</mgrwt>
</event>
<event>
12    7  0.1544987E-007  0.1340703E+04  0.7818608E-02  0.8997896E-01
          2   -1    0    0  501    0  0.00000000000E+00  0.00000000000E+00  0.29048157218E+04  0.29048157218E+04  0.00000000000E+00 0. -1.
         -1   -1    0    0    0  501 -0.00000000000E+00 -0.00000000000E+00 -0.15469860652E+03  0.15469860652E+03  0.00000000000E+00 0.  1.
         24    2    1    2    0    0 -0.84702724338E+02 -0.10431354734E+03  0.15745737318E+04  0.15822667216E+04  0.78928282317E+02 0.  0.
        254    2    1    2    0    0  0.84702724338E+02  0.10431354734E+03  0.11755433835E+04  0.14772476067E+04  0.88447859073E+03 0.  0.
         23    2    4    4    0    0  0.44744257942E+03  0.44269880039E+02  0.89171230328E+03  0.10039065727E+04  0.10253238905E+03 0.  0.
         23    2    4    4    0    0 -0.36273985508E+03  0.60043667298E+02  0.28383108020E+03  0.47334103399E+03  0.91138399844E+02 0.  0.
          2    1    3    3  502    0 -0.41028459712E+02 -0.10436587427E+03  0.11209039813E+04  0.11264995808E+04  0.00000000000E+00 0. -1.
         -1    1    3    3    0  502 -0.43674264627E+02  0.52326937471E-01  0.45366975049E+03  0.45576714081E+03  0.00000000000E+00 0.  1.
         13    1    5    5    0    0  0.30398122109E+03  0.73927692409E+02  0.64774250964E+03  0.71933319489E+03  0.00000000000E+00 0.  1.
        -13    1    5    5    0    0  0.14346135833E+03 -0.29657812370E+02  0.24396979365E+03  0.28457337785E+03  0.00000000000E+00 0. -1.
          2    1    6    6  503    0 -0.10377311174E+02  0.63547534877E+01  0.39180468771E+02  0.41026584214E+02  0.00000000000E+00 0. -1.
         -2    1    6    6    0  503 -0.35236254390E+03  0.53688913810E+02  0.24465061143E+03  0.43231444977E+03  0.00000000000E+00 0.  1.
<mgrwt>
<rscale>  0 0.13407027E+04</rscale>
<asrwt>0</asrwt>
<pdfrwt beam="1">  1        2 0.44689469E+00 0.13407027E+04</pdfrwt>
<pdfrwt beam="2">  1       -1 0.23799788E-01 0.13407027E+04</pdfrwt>
<totfact> 0.34156710E+01</totfact>
</mgrwt>
</event>
<event>
12    7  0.1544987E-007  0.1564914E+04  0.7818608E-02  0.8842397E-01
         -1   -1    0    0    0  501 -0.00000000000E+00  0.00000000000E+00  0.14253527153E+04  0.14253527153E+04  0.00000000000E+00 0.  1.
          2   -1    0    0  501    0  0.00000000000E+00 -0.00000000000E+00 -0.42953516811E+03  0.42953516811E+03  0.00000000000E+00 0. -1.
         24    2    1    2    0    0 -0.32814646170E+03 -0.39789011576E+03  0.34616172279E+03  0.62629242404E+03  0.80110033939E+02 0.  0.
        254    2    1    2    0    0  0.32814646170E+03  0.39789011576E+03  0.64965582437E+03  0.12285954593E+04  0.90630980795E+03 0.  0.
         23    2    4    4    0    0 -0.21291989933E+02  0.10106476671E+03  0.74090316423E+03  0.75320284771E+03  0.87804300185E+02 0.  0.
         23    2    4    4    0    0  0.34943845163E+03  0.29682534905E+03 -0.91247339861E+02  0.47539261162E+03  0.86368621787E+02 0.  0.
          4    1    3    3  502    0 -0.16048017662E+03 -0.15697898586E+03  0.18837634329E+03  0.29305619905E+03  0.00000000000E+00 0. -1.
         -3    1    3    3    0  502 -0.16766628508E+03 -0.24091112990E+03  0.15778537950E+03  0.33323622499E+03  0.00000000000E+00 0.  1.
         13    1    5    5    0    0 -0.87056106450E+00  0.14666303980E+02  0.12159162816E+02  0.19071014378E+02  0.00000000000E+00 0.  1.
        -13    1    5    5    0    0 -0.20421428869E+02  0.86398462733E+02  0.72874400141E+03  0.73413183333E+03  0.00000000000E+00 0. -1.
          2    1    6    6  503    0  0.28600877520E+03  0.20323515325E+03 -0.47064286144E+02  0.35400648869E+03  0.00000000000E+00 0. -1.
         -2    1    6    6    0  503  0.63429676435E+02  0.93590195799E+02 -0.44183053716E+02  0.12138612292E+03  0.00000000000E+00 0.  1.
<mgrwt>
<rscale>  0 0.15649142E+04</rscale>
<asrwt>0</asrwt>
<pdfrwt beam="1">  1        2 0.66082334E-01 0.15649142E+04</pdfrwt>
<pdfrwt beam="2">  1       -1 0.21928503E+00 0.15649142E+04</pdfrwt>
<totfact> 0.89739832E+00</totfact>
</mgrwt>
</event>
<event>
12    7  0.1544987E-007  0.3231895E+04  0.7818608E-02  0.8180444E-01
         -1   -1    0    0    0  501 -0.00000000000E+00  0.00000000000E+00  0.38101237082E+04  0.38101237082E+04  0.00000000000E+00 0.  1.
          2   -1    0    0  501    0  0.00000000000E+00 -0.00000000000E+00 -0.68535469587E+03  0.68535469587E+03  0.00000000000E+00 0. -1.
         24    2    1    2    0    0 -0.46611504617E+03  0.11428522304E+04  0.25062201142E+04  0.27955153132E+04  0.10194188888E+03 0.  0.
        254    2    1    2    0    0  0.46611504617E+03 -0.11428522304E+04  0.61854889818E+03  0.16999630909E+04  0.99191598138E+03 0.  0.
         23    2    4    4    0    0 -0.18098562774E+02 -0.18658952611E+02  0.45103897443E+03  0.46120583699E+03  0.92730540461E+02 0.  0.
         23    2    4    4    0    0  0.48421360895E+03 -0.11241932778E+04  0.16750992375E+03  0.12387572539E+04  0.90479912475E+02 0.  0.
          4    1    3    3  502    0 -0.46531884130E+01  0.42044552055E+02  0.57622789314E+02  0.71482741751E+02  0.00000000000E+00 0. -1.
         -3    1    3    3    0  502 -0.46146185776E+03  0.11008076784E+04  0.24485973249E+04  0.27240325715E+04  0.00000000000E+00 0.  1.
         13    1    5    5    0    0 -0.22496441989E+02 -0.32787331058E+02  0.44217029423E+03  0.44395457885E+03  0.00000000000E+00 0.  1.
        -13    1    5    5    0    0  0.43978792154E+01  0.14128378447E+02  0.88686802026E+01  0.17251258148E+02  0.00000000000E+00 0. -1.
          4    1    6    6  503    0  0.15457595387E+03 -0.30515602141E+03  0.12003904253E+02  0.34228353252E+03  0.00000000000E+00 0. -1.
         -4    1    6    6    0  503  0.32963765508E+03 -0.81903725642E+03  0.15550601950E+03  0.89647372139E+03  0.00000000000E+00 0.  1.
<mgrwt>
<rscale>  0 0.32318949E+04</rscale>
<asrwt>0</asrwt>
<pdfrwt beam="1">  1        2 0.10543919E+00 0.32318949E+04</pdfrwt>
<pdfrwt beam="2">  1       -1 0.58617287E+00 0.32318949E+04</pdfrwt>
<totfact> 0.20102411E-02</totfact>
</mgrwt>
</event>
<event>
12    7  0.1544987E-007  0.2066999E+04  0.7818608E-02  0.8575922E-01
          2   -1    0    0  501    0  0.00000000000E+00  0.00000000000E+00  0.30674472318E+04  0.30674472318E+04  0.00000000000E+00 0. -1.
         -1   -1    0    0    0  501 -0.00000000000E+00 -0.00000000000E+00 -0.34821165562E+03  0.34821165562E+03  0.00000000000E+00 0.  1.
         24    2    1    2    0    0  0.19788697072E+03 -0.20268915004E+03 -0.19410895169E+03  0.35275508934E+03  0.80720029735E+02 0.  0.
        254    2    1    2    0    0 -0.19788697072E+03  0.20268915004E+03  0.29133445279E+04  0.30629037981E+04  0.90197627109E+03 0.  0.
         23    2    4    4    0    0  0.26982443695E+03 -0.17748139971E+03  0.10182239236E+04  0.10720841594E+04  0.90992373795E+02 0.  0.
         23    2    4    4    0    0 -0.46771140768E+03  0.38017054975E+03  0.18951206043E+04  0.19908196388E+04  0.92720664279E+02 0.  0.
          4    1    3    3  502    0  0.75145877130E+02 -0.12714665274E+03 -0.74267350054E+02  0.16531428685E+03  0.00000000000E+00 0. -1.
         -3    1    3    3    0  502  0.12274109359E+03 -0.75542497306E+02 -0.11984160163E+03  0.18744080249E+03  0.00000000000E+00 0.  1.
         13    1    5    5    0    0  0.14659086508E+03 -0.43105943964E+02  0.49079617350E+03  0.51403101857E+03  0.00000000000E+00 0.  1.
        -13    1    5    5    0    0  0.12323357187E+03 -0.13437545575E+03  0.52742775012E+03  0.55805314078E+03  0.00000000000E+00 0. -1.
          1    1    6    6  503    0 -0.20074749802E+03  0.20962698570E+03  0.10014480574E+04  0.10426606556E+04  0.00000000000E+00 0. -1.
         -1    1    6    6    0  503 -0.26696390965E+03  0.17054356405E+03  0.89367254691E+03  0.94815898318E+03  0.00000000000E+00 0.  1.
<mgrwt>
<rscale>  0 0.20669987E+04</rscale>
<asrwt>0</asrwt>
<pdfrwt beam="1">  1        2 0.47191494E+00 0.20669987E+04</pdfrwt>
<pdfrwt beam="2">  1       -1 0.53571026E-01 0.20669987E+04</pdfrwt>
<totfact> 0.58500467E+00</totfact>
</mgrwt>
</event>
<event>
12    7  0.1544987E-007  0.1691956E+04  0.7818608E-02  0.8765965E-01
         -3   -1    0    0    0  501 -0.00000000000E+00  0.00000000000E+00  0.20013221719E+03  0.20013221719E+03  0.00000000000E+00 0.  1.
          2   -1    0    0  501    0  0.00000000000E+00 -0.00000000000E+00 -0.35760297584E+04  0.35760297584E+04  0.00000000000E+00 0. -1.
         24    2    1    2    0    0 -0.34138128055E+03 -0.49680537229E+03 -0.12952987448E+04  0.14308346522E+04  0.78308410889E+02 0.  0.
        254    2    1    2    0    0  0.34138128055E+03  0.49680537229E+03 -0.20805987964E+04  0.23453273233E+04  0.89906181394E+03 0.  0.
         23    2    4    4    0    0  0.30885926779E+03  0.56296087143E+03 -0.21247692027E+04  0.22214268189E+04  0.88170046737E+02 0.  0.
         23    2    4    4    0    0  0.32522012752E+02 -0.66155499144E+02  0.44170406258E+02  0.12390050441E+03  0.89252892517E+02 0.  0.
          2    1    3    3  502    0 -0.45832862037E+01 -0.40715665232E+01 -0.44670110444E+02  0.45088833800E+02  0.00000000000E+00 0. -1.
         -1    1    3    3    0  502 -0.33679799434E+03 -0.49273380576E+03 -0.12506286343E+04  0.13857458184E+04  0.00000000000E+00 0.  1.
         13    1    5    5    0    0  0.26317796558E+02  0.36053612189E+02 -0.23952017668E+03  0.24364401163E+03  0.00000000000E+00 0. -1.
        -13    1    5    5    0    0  0.28254147124E+03  0.52690725924E+03 -0.18852490260E+04  0.19777828073E+04  0.00000000000E+00 0.  1.
          4    1    6    6  503    0  0.17767791298E+01  0.10055366011E+02 -0.18108309384E+02  0.20788896038E+02  0.00000000000E+00 0. -1.
         -4    1    6    6    0  503  0.30745233622E+02 -0.76210865156E+02  0.62278715643E+02  0.10311160837E+03  0.00000000000E+00 0.  1.
<mgrwt>
<rscale>  0 0.16919560E+04</rscale>
<asrwt>0</asrwt>
<pdfrwt beam="1">  1        2 0.55015840E+00 0.16919560E+04</pdfrwt>
<pdfrwt beam="2">  1       -3 0.30789573E-01 0.16919560E+04</pdfrwt>
<totfact> 0.46463335E+00</totfact>
</mgrwt>
</event>
<event>
12    7  0.1544987E-007  0.1765559E+04  0.7818608E-02  0.8724832E-01
          2   -1    0    0  501    0  0.00000000000E+00  0.00000000000E+00  0.44532537878E+03  0.44532537878E+03  0.00000000000E+00 0. -1.
         -3   -1    0    0    0  501 -0.00000000000E+00 -0.00000000000E+00 -0.17499561147E+04  0.17499561147E+04  0.00000000000E+00 0.  1.
         24    2    1    2    0    0  0.36901442177E+03  0.46259683243E+03 -0.13159367545E+03  0.61163025376E+03  0.81284679035E+02 0.  0.
        254    2    1    2    0    0 -0.36901442177E+03 -0.46259683243E+03 -0.11730370605E+04  0.15836512398E+04  0.88417635743E+03 0.  0.
         23    2    4    4    0    0 -0.49183298077E+02  0.99166515030E+02 -0.83780590559E+03  0.85012404035E+03  0.92407543178E+02 0.  0.
         23    2    4    4    0    0 -0.31983112370E+03 -0.56176334746E+03 -0.33523115490E+03  0.73352719940E+03  0.88386756965E+02 0.  0.
          4    1    3    3  502    0  0.31293718121E+03  0.42282230099E+03 -0.13402623773E+03  0.54283644867E+03  0.00000000000E+00 0. -1.
         -3    1    3    3    0  502  0.56077240560E+02  0.39774531436E+02  0.24325622784E+01  0.68793805091E+02  0.00000000000E+00 0.  1.
         13    1    5    5    0    0 -0.15141314592E+02 -0.99963761823E+01 -0.28705735567E+03  0.28763016600E+03  0.00000000000E+00 0. -1.
        -13    1    5    5    0    0 -0.34041983485E+02  0.10916289121E+03 -0.55074854991E+03  0.56249387436E+03  0.00000000000E+00 0.  1.
          3    1    6    6  503    0 -0.27322089225E+02 -0.91803442828E+02 -0.76035796743E+02  0.12229395349E+03  0.00000000000E+00 0. -1.
         -3    1    6    6    0  503 -0.29250903447E+03 -0.46995990463E+03 -0.25919535816E+03  0.61123324590E+03  0.00000000000E+00 0.  1.
<mgrwt>
<rscale>  0 0.17655593E+04</rscale>
<asrwt>0</asrwt>
<pdfrwt beam="1">  1        2 0.68511596E-01 0.17655593E+04</pdfrwt>
<pdfrwt beam="2">  1       -3 0.26922402E+00 0.17655593E+04</pdfrwt>
<totfact> 0.23569074E+00</totfact>
</mgrwt>
</event>
<event>
12    7  0.1544987E-007  0.2943278E+04  0.7818608E-02  0.8260116E-01
         -1   -1    0    0    0  501 -0.00000000000E+00  0.00000000000E+00  0.14562860786E+04  0.14562860786E+04  0.00000000000E+00 0.  1.
          2   -1    0    0  501    0  0.00000000000E+00 -0.00000000000E+00 -0.14871537606E+04  0.14871537606E+04  0.00000000000E+00 0. -1.
         24    2    1    2    0    0  0.36159696577E+03 -0.89757901392E+03  0.90548251451E+03  0.13277231489E+04  0.80930365717E+02 0.  0.
        254    2    1    2    0    0 -0.36159696577E+03  0.89757901392E+03 -0.93635019649E+03  0.16157166903E+04  0.89296600212E+03 0.  0.
         23    2    4    4    0    0  0.16019764106E+03  0.62004435278E+03 -0.74686014920E+03  0.98801348411E+03  0.90842053626E+02 0.  0.
         23    2    4    4    0    0 -0.52179460683E+03  0.27753466114E+03 -0.18949004729E+03  0.62770320619E+03  0.93860200189E+02 0.  0.
          4    1    3    3  502    0  0.15952406216E+03 -0.29468170593E+03  0.30320937009E+03  0.45190834948E+03  0.00000000000E+00 0. -1.
         -1    1    3    3    0  502  0.20207290361E+03 -0.60289730799E+03  0.60227314442E+03  0.87581479940E+03  0.00000000000E+00 0.  1.
         13    1    5    5    0    0  0.49409811308E+02  0.13691237171E+03 -0.11855565782E+03  0.18772791743E+03  0.00000000000E+00 0. -1.
        -13    1    5    5    0    0  0.11078782975E+03  0.48313198107E+03 -0.62830449137E+03  0.80028556668E+03  0.00000000000E+00 0.  1.
          4    1    6    6  503    0 -0.39249739219E+02  0.53005944553E+02 -0.26505695313E+02  0.71082515929E+02  0.00000000000E+00 0. -1.
         -4    1    6    6    0  503 -0.48254486761E+03  0.22452871659E+03 -0.16298435198E+03  0.55662069026E+03  0.00000000000E+00 0.  1.
<mgrwt>
<rscale>  0 0.29432780E+04</rscale>
<asrwt>0</asrwt>
<pdfrwt beam="1">  1        2 0.22879289E+00 0.29432780E+04</pdfrwt>
<pdfrwt beam="2">  1       -1 0.22404401E+00 0.29432780E+04</pdfrwt>
<totfact> 0.13071552E+00</totfact>
</mgrwt>
</event>
<event>
12    7  0.1544987E-007  0.1195188E+04  0.7818608E-02  0.9117079E-01
         -1   -1    0    0    0  501 -0.00000000000E+00  0.00000000000E+00  0.62211097494E+03  0.62211097494E+03  0.00000000000E+00 0.  1.
          2   -1    0    0  501    0  0.00000000000E+00 -0.00000000000E+00 -0.57404286095E+03  0.57404286095E+03  0.00000000000E+00 0. -1.
         24    2    1    2    0    0  0.79018346379E+02 -0.12547568260E+03  0.20637993401E+03  0.26684563973E+03  0.81399461261E+02 0.  0.
        254    2    1    2    0    0 -0.79018346379E+02  0.12547568260E+03 -0.15831182002E+03  0.92930819615E+03  0.90363878021E+03 0.  0.
         23    2    4    4    0    0  0.12646942456E+03  0.44002299711E+02 -0.49232040033E+03  0.51833878689E+03  0.91460394065E+02 0.  0.
         23    2    4    4    0    0 -0.20548777094E+03  0.81473382887E+02  0.33400858031E+03  0.41096940927E+03  0.92037967752E+02 0.  0.
          4    1    3    3  502    0  0.32418741969E+02 -0.34675386269E+02  0.14709326133E+02  0.49696292810E+02  0.00000000000E+00 0. -1.
         -3    1    3    3    0  502  0.46599604410E+02 -0.90800296329E+02  0.19167060787E+03  0.21714934692E+03  0.00000000000E+00 0.  1.
         13    1    5    5    0    0  0.94471846179E+02 -0.21349389121E+01 -0.39344522633E+03  0.40463395038E+03  0.00000000000E+00 0.  1.
        -13    1    5    5    0    0  0.31997578380E+02  0.46137238623E+02 -0.98875174006E+02  0.11370483651E+03  0.00000000000E+00 0. -1.
          3    1    6    6  503    0 -0.71389252067E+01  0.79553568751E+01  0.78656854936E+02  0.79379800860E+02  0.00000000000E+00 0. -1.
         -3    1    6    6    0  503 -0.19834884573E+03  0.73518026012E+02  0.25535172537E+03  0.33158960841E+03  0.00000000000E+00 0.  1.
<mgrwt>
<rscale>  0 0.11951876E+04</rscale>
<asrwt>0</asrwt>
<pdfrwt beam="1">  1        2 0.88314287E-01 0.11951876E+04</pdfrwt>
<pdfrwt beam="2">  1       -1 0.95709380E-01 0.11951876E+04</pdfrwt>
<totfact> 0.62181046E+01</totfact>
</mgrwt>
</event>
<event>
12    7  0.1544987E-007  0.1879694E+04  0.7818608E-02  0.8665031E-01
          2   -1    0    0  501    0  0.00000000000E+00  0.00000000000E+00  0.85274863037E+03  0.85274863037E+03  0.00000000000E+00 0. -1.
         -1   -1    0    0    0  501 -0.00000000000E+00 -0.00000000000E+00 -0.10358414126E+04  0.10358414126E+04  0.00000000000E+00 0.  1.
         24    2    1    2    0    0 -0.29137859074E+03  0.11353011981E+03 -0.72811419053E+03  0.79645763517E+03  0.80024489491E+02 0.  0.
        254    2    1    2    0    0  0.29137859074E+03 -0.11353011981E+03  0.54502140832E+03  0.10921324078E+04  0.89326048237E+03 0.  0.
         23    2    4    4    0    0  0.48807429599E+02  0.23864589060E+03 -0.12700427190E+03  0.29051288794E+03  0.94517864404E+02 0.  0.
         23    2    4    4    0    0  0.24257116115E+03 -0.35217601041E+03  0.67202568023E+03  0.80161951985E+03  0.90036821283E+02 0.  0.
          4    1    3    3  502    0 -0.48772558936E+01  0.11608123923E+02 -0.83930236464E+01  0.15132052471E+02  0.00000000000E+00 0. -1.
         -3    1    3    3    0  502 -0.28650133485E+03  0.10192199589E+03 -0.71972116688E+03  0.78132558270E+03  0.00000000000E+00 0.  1.
         13    1    5    5    0    0  0.37559525090E+02  0.10445169908E+03 -0.88321620010E+01  0.11135026920E+03  0.00000000000E+00 0. -1.
        -13    1    5    5    0    0  0.11247904509E+02  0.13419419152E+03 -0.11817210990E+03  0.17916261874E+03  0.00000000000E+00 0.  1.
          1    1    6    6  503    0  0.16678991227E+02 -0.43792595149E+02  0.13134281338E+03  0.13945219527E+03  0.00000000000E+00 0. -1.
         -1    1    6    6    0  503  0.22589216992E+03 -0.30838341526E+03  0.54068286684E+03  0.66216732458E+03  0.00000000000E+00 0.  1.
<mgrwt>
<rscale>  0 0.18796940E+04</rscale>
<asrwt>0</asrwt>
<pdfrwt beam="1">  1        2 0.13119210E+00 0.18796940E+04</pdfrwt>
<pdfrwt beam="2">  1       -1 0.15936022E+00 0.18796940E+04</pdfrwt>
<totfact> 0.99976119E+00</totfact>
</mgrwt>
</event>
<event>
12    7  0.1544987E-007  0.3093292E+04  0.7818608E-02  0.8217581E-01
         -1   -1    0    0    0  501 -0.00000000000E+00  0.00000000000E+00  0.68029517139E+03  0.68029517139E+03  0.00000000000E+00 0.  1.
          2   -1    0    0  501    0  0.00000000000E+00 -0.00000000000E+00 -0.35162879172E+04  0.35162879172E+04  0.00000000000E+00 0. -1.
         24    2    1    2    0    0 -0.11904310179E+04  0.32520350957E+03 -0.36228143987E+03  0.12883194551E+04  0.75072270069E+02 0.  0.
        254    2    1    2    0    0  0.11904310179E+04 -0.32520350957E+03 -0.24737113059E+04  0.29082636334E+04  0.90325323456E+03 0.  0.
         23    2    4    4    0    0  0.94767146077E+03 -0.58727733201E+03 -0.21203899343E+04  0.23973429664E+04  0.90686067785E+02 0.  0.
         23    2    4    4    0    0  0.24275955711E+03  0.26207382244E+03 -0.35332137162E+03  0.51092066706E+03  0.92677102886E+02 0.  0.
          2    1    3    3  502    0 -0.58407499903E+03  0.13106788308E+03 -0.20218063092E+03  0.63182228671E+03  0.00000000000E+00 0. -1.
         -1    1    3    3    0  502 -0.60635601885E+03  0.19413562649E+03 -0.16010080895E+03  0.65649716838E+03  0.00000000000E+00 0.  1.
         13    1    5    5    0    0  0.79803227513E+03 -0.46709962558E+03 -0.16998388824E+04  0.19350684222E+04  0.00000000000E+00 0.  1.
        -13    1    5    5    0    0  0.14963918564E+03 -0.12017770643E+03 -0.42055105189E+03  0.46227454424E+03  0.00000000000E+00 0. -1.
          4    1    6    6  503    0  0.22914617642E+03  0.26929581461E+03 -0.33676079530E+03  0.48829912880E+03  0.00000000000E+00 0.  1.
         -4    1    6    6    0  503  0.13613380694E+02 -0.72219921723E+01 -0.16560576321E+02  0.22621538253E+02  0.00000000000E+00 0. -1.
<mgrwt>
<rscale>  0 0.30932919E+04</rscale>
<asrwt>0</asrwt>
<pdfrwt beam="1">  1        2 0.54096738E+00 0.30932919E+04</pdfrwt>
<pdfrwt beam="2">  1       -1 0.10466079E+00 0.30932919E+04</pdfrwt>
<totfact> 0.65470274E-01</totfact>
</mgrwt>
</event>
<event>
12    7  0.1544987E-007  0.2012868E+04  0.7818608E-02  0.8600628E-01
         -1   -1    0    0    0  501 -0.00000000000E+00  0.00000000000E+00  0.32171665039E+03  0.32171665039E+03  0.00000000000E+00 0.  1.
          2   -1    0    0  501    0  0.00000000000E+00 -0.00000000000E+00 -0.31484528551E+04  0.31484528551E+04  0.00000000000E+00 0. -1.
         24    2    1    2    0    0 -0.25460457082E+03  0.68427829488E+03 -0.17053793076E+04  0.18566556430E+04  0.76100732913E+02 0.  0.
        254    2    1    2    0    0  0.25460457082E+03 -0.68427829488E+03 -0.11213568972E+04  0.16135138626E+04  0.90162376939E+03 0.  0.
         23    2    4    4    0    0 -0.15520390572E+03 -0.63142316901E+03 -0.37668834251E+03  0.75702442106E+03  0.91697306256E+02 0.  0.
         23    2    4    4    0    0  0.40980847654E+03 -0.52855125864E+02 -0.74466855465E+03  0.85648944150E+03  0.91138659988E+02 0.  0.
          2    1    3    3  502    0 -0.11266105372E+03  0.25445235683E+03 -0.73418515198E+03  0.78515371253E+03  0.00000000000E+00 0. -1.
         -1    1    3    3    0  502 -0.14194351710E+03  0.42982593804E+03 -0.97119415561E+03  0.10715019304E+04  0.00000000000E+00 0.  1.
         13    1    5    5    0    0 -0.21796686045E+02 -0.80114287806E+02 -0.15195304652E+02  0.84405520652E+02  0.00000000000E+00 0. -1.
        -13    1    5    5    0    0 -0.13340721967E+03 -0.55130888121E+03 -0.36149303786E+03  0.67261890040E+03  0.00000000000E+00 0.  1.
          4    1    6    6  503    0  0.93141095478E+02 -0.47879868252E+02 -0.21975535506E+03  0.24343410100E+03  0.00000000000E+00 0. -1.
         -4    1    6    6    0  503  0.31666738106E+03 -0.49752576118E+01 -0.52491319959E+03  0.61305534050E+03  0.00000000000E+00 0.  1.
<mgrwt>
<rscale>  0 0.20128683E+04</rscale>
<asrwt>0</asrwt>
<pdfrwt beam="1">  1        2 0.48437733E+00 0.20128683E+04</pdfrwt>
<pdfrwt beam="2">  1       -1 0.49494873E-01 0.20128683E+04</pdfrwt>
<totfact> 0.60738294E+00</totfact>
</mgrwt>
</event>
<event>
12    7  0.1544987E-007  0.2198768E+04  0.7818608E-02  0.8518941E-01
          2   -1    0    0  501    0  0.00000000000E+00  0.00000000000E+00  0.55418831120E+03  0.55418831120E+03  0.00000000000E+00 0. -1.
         -1   -1    0    0    0  501 -0.00000000000E+00 -0.00000000000E+00 -0.21809284813E+04  0.21809284813E+04  0.00000000000E+00 0.  1.
         24    2    1    2    0    0  0.29296389838E+03  0.58833377983E+03  0.11056824051E+03  0.67107662909E+03  0.78447587955E+02 0.  0.
        254    2    1    2    0    0 -0.29296389838E+03 -0.58833377983E+03 -0.17373084106E+04  0.20640401634E+04  0.90003155519E+03 0.  0.
         23    2    4    4    0    0 -0.19848606079E+03  0.18943373965E+03 -0.72619635015E+03  0.78172556332E+03  0.91933994415E+02 0.  0.
         23    2    4    4    0    0 -0.94477837587E+02 -0.77776751948E+03 -0.10111120604E+04  0.12823146001E+04  0.90192896800E+02 0.  0.
          4    1    3    3  502    0  0.24129928138E+03  0.42513995691E+03  0.59548934880E+02  0.49245852800E+03  0.00000000000E+00 0. -1.
         -3    1    3    3    0  502  0.51664617003E+02  0.16319382292E+03  0.51019305634E+02  0.17861810109E+03  0.00000000000E+00 0.  1.
         13    1    5    5    0    0 -0.10627182318E+02  0.15853307455E+02 -0.15129079923E+03  0.15248990227E+03  0.00000000000E+00 0. -1.
        -13    1    5    5    0    0 -0.18785887848E+03  0.17358043219E+03 -0.57490555092E+03  0.62923566105E+03  0.00000000000E+00 0.  1.
          3    1    6    6  503    0  0.17743210728E+02 -0.92467963704E+02 -0.11498735982E+03  0.14861776057E+03  0.00000000000E+00 0. -1.
         -3    1    6    6    0  503 -0.11222104832E+03 -0.68529955578E+03 -0.89612470062E+03  0.11336968395E+04  0.00000000000E+00 0.  1.
<mgrwt>
<rscale>  0 0.21987679E+04</rscale>
<asrwt>0</asrwt>
<pdfrwt beam="1">  1        2 0.85259739E-01 0.21987679E+04</pdfrwt>
<pdfrwt beam="2">  1       -1 0.33552746E+00 0.21987679E+04</pdfrwt>
<totfact> 0.11034372E+00</totfact>
</mgrwt>
</event>
<event>
12    7  0.1544987E-007  0.1184752E+04  0.7818608E-02  0.9126309E-01
          2   -1    0    0  501    0  0.00000000000E+00  0.00000000000E+00  0.26229560068E+04  0.26229560068E+04  0.00000000000E+00 0. -1.
         -1   -1    0    0    0  501 -0.00000000000E+00 -0.00000000000E+00 -0.13378381414E+03  0.13378381414E+03  0.00000000000E+00 0.  1.
         24    2    1    2    0    0 -0.12399103389E+03 -0.35085424112E+02  0.60414516351E+02  0.16561553728E+03  0.84698458855E+02 0.  0.
        254    2    1    2    0    0  0.12399103389E+03  0.35085424112E+02  0.24287576763E+04  0.25911242837E+04  0.89356389795E+03 0.  0.
         23    2    4    4    0    0  0.18698727803E+03 -0.20189338897E+03  0.21191554302E+03  0.35885970633E+03  0.90260228233E+02 0.  0.
         23    2    4    4    0    0 -0.62996244135E+02  0.23697881308E+03  0.22168421333E+04  0.22322645774E+04  0.92133678270E+02 0.  0.
          4    1    3    3  502    0 -0.30540615578E+01  0.13053919136E+02  0.28647646046E+02  0.31629412274E+02  0.00000000000E+00 0. -1.
         -3    1    3    3    0  502 -0.12093697233E+03 -0.48139343248E+02  0.31766870305E+02  0.13398612501E+03  0.00000000000E+00 0.  1.
         13    1    5    5    0    0  0.14113648634E+03 -0.17503384950E+03  0.12574027140E+03  0.25761788000E+03  0.00000000000E+00 0. -1.
        -13    1    5    5    0    0  0.45850791687E+02 -0.26859539476E+02  0.86175271624E+02  0.10124182633E+03  0.00000000000E+00 0.  1.
          2    1    6    6  503    0  0.30577804075E+01  0.77886393927E+02  0.41897937932E+03  0.42616823048E+03  0.00000000000E+00 0. -1.
         -2    1    6    6    0  503 -0.66054024542E+02  0.15909241916E+03  0.17978627540E+04  0.18060963469E+04  0.00000000000E+00 0.  1.
<mgrwt>
<rscale>  0 0.11847516E+04</rscale>
<asrwt>0</asrwt>
<pdfrwt beam="1">  1        2 0.40353166E+00 0.11847516E+04</pdfrwt>
<pdfrwt beam="2">  1       -1 0.20582127E-01 0.11847516E+04</pdfrwt>
<totfact> 0.65244505E+01</totfact>
</mgrwt>
</event>
<event>
12    7  0.1544987E-007  0.2660065E+04  0.7818608E-02  0.8348080E-01
         -1   -1    0    0    0  501 -0.00000000000E+00  0.00000000000E+00  0.58896403793E+03  0.58896403793E+03  0.00000000000E+00 0.  1.
          2   -1    0    0  501    0  0.00000000000E+00 -0.00000000000E+00 -0.30035556885E+04  0.30035556885E+04  0.00000000000E+00 0. -1.
         24    2    1    2    0    0  0.80047472759E+03 -0.84261932462E+03 -0.82917586598E+03  0.14299339661E+04  0.80071310947E+02 0.  0.
        254    2    1    2    0    0 -0.80047472759E+03  0.84261932462E+03 -0.15854157846E+04  0.21625857604E+04  0.90136942772E+03 0.  0.
         23    2    4    4    0    0 -0.97484927266E+03  0.77474795128E+03 -0.14533059486E+04  0.19160035662E+04  0.91684202679E+02 0.  0.
         23    2    4    4    0    0  0.17437454507E+03  0.67871373341E+02 -0.13210983598E+03  0.24658219417E+03  0.91305883897E+02 0.  0.
          4    1    3    3  502    0  0.68350962071E+03 -0.68644696898E+03 -0.71341811783E+03  0.12030628636E+04  0.00000000000E+00 0. -1.
         -3    1    3    3    0  502  0.11696510687E+03 -0.15617235564E+03 -0.11575774815E+03  0.22687110250E+03  0.00000000000E+00 0.  1.
         13    1    5    5    0    0 -0.42648964196E+03  0.28157260799E+03 -0.60070290250E+03  0.78868277865E+03  0.00000000000E+00 0. -1.
        -13    1    5    5    0    0 -0.54835963070E+03  0.49317534329E+03 -0.85260304609E+03  0.11273207875E+04  0.00000000000E+00 0.  1.
          3    1    6    6  503    0  0.68096916677E+02  0.74751914089E+02 -0.73601079935E+02  0.12506861192E+03  0.00000000000E+00 0. -1.
         -3    1    6    6    0  503  0.10627762839E+03 -0.68805407478E+01 -0.58508756042E+02  0.12151358225E+03  0.00000000000E+00 0.  1.
<mgrwt>
<rscale>  0 0.26600649E+04</rscale>
<asrwt>0</asrwt>
<pdfrwt beam="1">  1        2 0.46208548E+00 0.26600649E+04</pdfrwt>
<pdfrwt beam="2">  1       -1 0.90609855E-01 0.26600649E+04</pdfrwt>
<totfact> 0.20622906E+00</totfact>
</mgrwt>
</event>
<event>
12    7  0.1544987E-007  0.3850803E+04  0.7818608E-02  0.8035340E-01
          2   -1    0    0  501    0  0.00000000000E+00  0.00000000000E+00  0.35982149998E+04  0.35982149998E+04  0.00000000000E+00 0. -1.
         -1   -1    0    0    0  501 -0.00000000000E+00 -0.00000000000E+00 -0.10302805004E+04  0.10302805004E+04  0.00000000000E+00 0.  1.
         24    2    1    2    0    0  0.79014754682E+03 -0.11683630695E+04  0.26737208827E+04  0.30239732725E+04  0.78902383960E+02 0.  0.
        254    2    1    2    0    0 -0.79014754682E+03  0.11683630695E+04 -0.10578638335E+03  0.16045222277E+04  0.75755885077E+03 0.  0.
         23    2    4    4    0    0 -0.80217423324E+03  0.12362293708E+04 -0.10867811518E+03  0.14804225314E+04  0.89963220040E+02 0.  0.
         23    2    4    4    0    0  0.12026686427E+02 -0.67866301260E+02  0.28917318316E+01  0.12409969636E+03  0.10315956810E+03 0.  0.
          4    1    3    3  502    0  0.65966419148E+03 -0.93040050254E+03  0.21978024681E+04  0.24761134121E+04  0.00000000000E+00 0. -1.
         -3    1    3    3    0  502  0.13048335534E+03 -0.23796256700E+03  0.47591841460E+03  0.54785986043E+03  0.00000000000E+00 0.  1.
         13    1    5    5    0    0 -0.69829291988E+03  0.11204679014E+04 -0.11057669734E+03  0.13248730226E+04  0.00000000000E+00 0.  1.
        -13    1    5    5    0    0 -0.10388131337E+03  0.11576146940E+03  0.18985821577E+01  0.15554950877E+03  0.00000000000E+00 0. -1.
          3    1    6    6  503    0 -0.16764690131E+02  0.18834250735E+02  0.18691825014E+02  0.31387388523E+02  0.00000000000E+00 0. -1.
         -3    1    6    6    0  503  0.28791376558E+02 -0.86700551995E+02 -0.15800093182E+02  0.92712307839E+02  0.00000000000E+00 0.  1.
<mgrwt>
<rscale>  0 0.38508029E+04</rscale>
<asrwt>0</asrwt>
<pdfrwt beam="1">  1        2 0.55357153E+00 0.38508029E+04</pdfrwt>
<pdfrwt beam="2">  1       -1 0.15850469E+00 0.38508029E+04</pdfrwt>
<totfact> 0.18783332E-01</totfact>
</mgrwt>
</event>
<event>
12    7  0.1544987E-007  0.1338095E+04  0.7818608E-02  0.8999889E-01
          2   -1    0    0  501    0  0.00000000000E+00  0.00000000000E+00  0.70946128043E+03  0.70946128043E+03  0.00000000000E+00 0. -1.
         -1   -1    0    0    0  501 -0.00000000000E+00 -0.00000000000E+00 -0.63093627679E+03  0.63093627679E+03  0.00000000000E+00 0.  1.
         24    2    1    2    0    0 -0.24183359758E+03 -0.13848395052E+03  0.24726161386E+03  0.38058798505E+03  0.77766414369E+02 0.  0.
        254    2    1    2    0    0  0.24183359758E+03  0.13848395052E+03 -0.16873661021E+03  0.95980957217E+03  0.90282948431E+03 0.  0.
         23    2    4    4    0    0  0.16167021164E+03  0.19069318654E+03  0.34170825536E+03  0.43299842093E+03  0.90674980105E+02 0.  0.
         23    2    4    4    0    0  0.80163385941E+02 -0.52209236013E+02 -0.51044486558E+03  0.52681115124E+03  0.88453691339E+02 0.  0.
          4    1    3    3  502    0 -0.20216656768E+03 -0.13023104463E+03  0.23937550526E+03  0.33931118253E+03  0.00000000000E+00 0. -1.
         -3    1    3    3    0  502 -0.39667029903E+02 -0.82529058980E+01  0.78861085914E+01  0.41276802515E+02  0.00000000000E+00 0.  1.
         13    1    5    5    0    0  0.77747915912E+01  0.69247323055E+02  0.82121265072E+02  0.10770116671E+03  0.00000000000E+00 0.  1.
        -13    1    5    5    0    0  0.15389542005E+03  0.12144586348E+03  0.25958699029E+03  0.32529725421E+03  0.00000000000E+00 0. -1.
          3    1    6    6  503    0  0.57003760633E+01  0.20939252758E+02 -0.14982683696E+03  0.15139031563E+03  0.00000000000E+00 0.  1.
         -3    1    6    6    0  503  0.74463009878E+02 -0.73148488771E+02 -0.36061802861E+03  0.37542083561E+03  0.00000000000E+00 0. -1.
<mgrwt>
<rscale>  0 0.13380955E+04</rscale>
<asrwt>0</asrwt>
<pdfrwt beam="1">  1        2 0.10914789E+00 0.13380955E+04</pdfrwt>
<pdfrwt beam="2">  1       -1 0.97067119E-01 0.13380955E+04</pdfrwt>
<totfact> 0.45895570E+01</totfact>
</mgrwt>
</event>
<event>
12    7  0.1544987E-007  0.1695103E+04  0.7818608E-02  0.8764162E-01
          2   -1    0    0  501    0  0.00000000000E+00  0.00000000000E+00  0.10680177631E+04  0.10680177631E+04  0.00000000000E+00 0. -1.
         -1   -1    0    0    0  501 -0.00000000000E+00 -0.00000000000E+00 -0.67259538934E+03  0.67259538934E+03  0.00000000000E+00 0.  1.
         24    2    1    2    0    0  0.21916631855E+03 -0.52507124113E+03 -0.78709716627E+02  0.57973698480E+03  0.78524318568E+02 0.  0.
        254    2    1    2    0    0 -0.21916631855E+03  0.52507124113E+03  0.47413209038E+03  0.11608761676E+04  0.89392312533E+03 0.  0.
         23    2    4    4    0    0 -0.18675156811E+03  0.40195129805E+03  0.73109693874E+03  0.85972350660E+03  0.90447663137E+02 0.  0.
         23    2    4    4    0    0 -0.32414750436E+02  0.12311994308E+03 -0.25696484836E+03  0.30115266104E+03  0.91938868436E+02 0.  0.
          4    1    3    3  502    0  0.69984847783E+02 -0.24428032480E+03 -0.92369303225E+01  0.25427559239E+03  0.00000000000E+00 0. -1.
         -3    1    3    3    0  502  0.14918147076E+03 -0.28079091633E+03 -0.69472786304E+02  0.32546139241E+03  0.00000000000E+00 0.  1.
         13    1    5    5    0    0  0.37095276023E+01 -0.13901337034E+01  0.89203395973E+00  0.40606392761E+01  0.00000000000E+00 0. -1.
        -13    1    5    5    0    0 -0.19046109571E+03  0.40334143175E+03  0.73020490478E+03  0.85566286732E+03  0.00000000000E+00 0.  1.
          3    1    6    6  503    0 -0.47253726150E+02  0.27254767221E+02 -0.13293646088E+03  0.14369356145E+03  0.00000000000E+00 0. -1.
         -3    1    6    6    0  503  0.14838975714E+02  0.95865175857E+02 -0.12402838748E+03  0.15745909959E+03  0.00000000000E+00 0.  1.
<mgrwt>
<rscale>  0 0.16951033E+04</rscale>
<asrwt>0</asrwt>
<pdfrwt beam="1">  1        2 0.16431042E+00 0.16951033E+04</pdfrwt>
<pdfrwt beam="2">  1       -1 0.10347621E+00 0.16951033E+04</pdfrwt>
<totfact> 0.21816734E+01</totfact>
</mgrwt>
</event>
<event>
12    7  0.1544987E-007  0.1487642E+04  0.7818608E-02  0.8892713E-01
          2   -1    0    0  501    0  0.00000000000E+00  0.00000000000E+00  0.10948657767E+04  0.10948657767E+04  0.00000000000E+00 0. -1.
         -1   -1    0    0    0  501 -0.00000000000E+00 -0.00000000000E+00 -0.50533098075E+03  0.50533098075E+03  0.00000000000E+00 0.  1.
         24    2    1    2    0    0 -0.35528138743E+03 -0.31797881777E+03  0.15397184764E+03  0.50726676891E+03  0.79226587548E+02 0.  0.
        254    2    1    2    0    0  0.35528138743E+03  0.31797881777E+03  0.43556294835E+03  0.10929299886E+04  0.88172869136E+03 0.  0.
         23    2    4    4    0    0  0.10680757947E+03  0.44106395653E+03 -0.10864511225E+03  0.47527991821E+03  0.90232851345E+02 0.  0.
         23    2    4    4    0    0  0.24847380796E+03 -0.12308513876E+03  0.54420806060E+03  0.61765007037E+03  0.91869535662E+02 0.  0.
          4    1    3    3  502    0 -0.32682791746E+03 -0.30978134649E+03  0.12871245716E+03  0.46834588382E+03  0.00000000000E+00 0. -1.
         -3    1    3    3    0  502 -0.28453469968E+02 -0.81974712760E+01  0.25259390484E+02  0.38920885090E+02  0.00000000000E+00 0.  1.
         13    1    5    5    0    0  0.29114234249E+02  0.30199905271E+03 -0.71052116909E+02  0.31160787826E+03  0.00000000000E+00 0. -1.
        -13    1    5    5    0    0  0.77693345220E+02  0.13906490381E+03 -0.37592995339E+02  0.16367203995E+03  0.00000000000E+00 0.  1.
          4    1    6    6  503    0  0.22816237846E+03 -0.75604208486E+02  0.44147440432E+03  0.50266660617E+03  0.00000000000E+00 0. -1.
         -4    1    6    6    0  503  0.20311429501E+02 -0.47480930276E+02  0.10273365628E+03  0.11498346420E+03  0.00000000000E+00 0.  1.
<mgrwt>
<rscale>  0 0.14876419E+04</rscale>
<asrwt>0</asrwt>
<pdfrwt beam="1">  1        2 0.16844089E+00 0.14876419E+04</pdfrwt>
<pdfrwt beam="2">  1       -1 0.77743228E-01 0.14876419E+04</pdfrwt>
<totfact> 0.40134460E+01</totfact>
</mgrwt>
</event>
<event>
12    7  0.1544987E-007  0.1255424E+04  0.7818608E-02  0.9065681E-01
          2   -1    0    0  501    0  0.00000000000E+00  0.00000000000E+00  0.90685284293E+03  0.90685284293E+03  0.00000000000E+00 0. -1.
         -1   -1    0    0    0  501 -0.00000000000E+00 -0.00000000000E+00 -0.43449433297E+03  0.43449433297E+03  0.00000000000E+00 0.  1.
         24    2    1    2    0    0 -0.42449515322E+02 -0.11511313309E+03 -0.17558057824E+03  0.22853189246E+03  0.79657339006E+02 0.  0.
        254    2    1    2    0    0  0.42449515322E+02  0.11511313309E+03  0.64793908819E+03  0.11128152834E+04  0.89637034662E+03 0.  0.
         23    2    4    4    0    0  0.26377113117E+03  0.72569698102E+02  0.78314327937E+03  0.83453889571E+03  0.91105442808E+02 0.  0.
         23    2    4    4    0    0 -0.22132161584E+03  0.42543434987E+02 -0.13520419118E+03  0.27827638773E+03  0.91456946996E+02 0.  0.
          4    1    3    3  502    0  0.11585323682E+02  0.63920017749E+01 -0.13909205939E+02  0.19197484766E+02  0.00000000000E+00 0. -1.
         -3    1    3    3    0  502 -0.54034839004E+02 -0.12150513486E+03 -0.16167137230E+03  0.20933440769E+03  0.00000000000E+00 0.  1.
         13    1    5    5    0    0  0.14891914836E+03  0.68501590162E+02  0.35123147911E+03  0.38759893256E+03  0.00000000000E+00 0. -1.
        -13    1    5    5    0    0  0.11485198281E+03  0.40681079394E+01  0.43191180026E+03  0.44693996315E+03  0.00000000000E+00 0.  1.
          3    1    6    6  503    0 -0.20930013751E+03  0.34211857954E+02 -0.14818579262E+03  0.25871997975E+03  0.00000000000E+00 0. -1.
         -3    1    6    6    0  503 -0.12021478332E+02  0.83315770334E+01  0.12981601438E+02  0.19556407979E+02  0.00000000000E+00 0.  1.
<mgrwt>
<rscale>  0 0.12554241E+04</rscale>
<asrwt>0</asrwt>
<pdfrwt beam="1">  1        2 0.13951582E+00 0.12554241E+04</pdfrwt>
<pdfrwt beam="2">  1       -1 0.66845282E-01 0.12554241E+04</pdfrwt>
<totfact> 0.73809294E+01</totfact>
</mgrwt>
</event>
<event>
12    7  0.1544987E-007  0.1346378E+04  0.7818608E-02  0.8993575E-01
         -1   -1    0    0    0  501 -0.00000000000E+00  0.00000000000E+00  0.35005110036E+03  0.35005110036E+03  0.00000000000E+00 0.  1.
          2   -1    0    0  501    0  0.00000000000E+00 -0.00000000000E+00 -0.12946203374E+04  0.12946203374E+04  0.00000000000E+00 0. -1.
         24    2    1    2    0    0  0.80405684640E+02  0.54319385883E+02 -0.69185771055E+03  0.70311325686E+03  0.79281085531E+02 0.  0.
        254    2    1    2    0    0 -0.80405684640E+02 -0.54319385883E+02 -0.25271152648E+03  0.94155818089E+03  0.90180542391E+03 0.  0.
         23    2    4    4    0    0  0.29646467066E+03  0.45320275328E+02  0.17156492063E+03  0.35830536660E+03  0.94884063159E+02 0.  0.
         23    2    4    4    0    0 -0.37687035530E+03 -0.99639661211E+02 -0.42427644711E+03  0.58325281429E+03  0.90631203354E+02 0.  0.
          2    1    3    3  502    0  0.80485297605E+02  0.69542868508E+02 -0.64838779847E+03  0.65705466355E+03  0.00000000000E+00 0. -1.
         -1    1    3    3    0  502 -0.79612965214E-01 -0.15223482625E+02 -0.43469912075E+02  0.46058593305E+02  0.00000000000E+00 0.  1.
         13    1    5    5    0    0  0.23715438456E+02  0.26491701135E+02  0.44113759288E+02  0.56659121143E+02  0.00000000000E+00 0. -1.
        -13    1    5    5    0    0  0.27274923220E+03  0.18828574193E+02  0.12745116134E+03  0.30164624546E+03  0.00000000000E+00 0.  1.
          3    1    6    6  503    0 -0.17009007952E+02 -0.15910086127E+02 -0.60166279860E+02  0.64516807300E+02  0.00000000000E+00 0. -1.
         -3    1    6    6    0  503 -0.35986134734E+03 -0.83729575084E+02 -0.36411016725E+03  0.51873600699E+03  0.00000000000E+00 0.  1.
<mgrwt>
<rscale>  0 0.13463778E+04</rscale>
<asrwt>0</asrwt>
<pdfrwt beam="1">  1        2 0.19917236E+00 0.13463778E+04</pdfrwt>
<pdfrwt beam="2">  1       -1 0.53854016E-01 0.13463778E+04</pdfrwt>
<totfact> 0.64533537E+01</totfact>
</mgrwt>
</event>
<event>
12    7  0.1544987E-007  0.2431539E+04  0.7818608E-02  0.8427789E-01
          2   -1    0    0  501    0  0.00000000000E+00  0.00000000000E+00  0.11390233838E+04  0.11390233838E+04  0.00000000000E+00 0. -1.
         -1   -1    0    0    0  501 -0.00000000000E+00 -0.00000000000E+00 -0.12976864625E+04  0.12976864625E+04  0.00000000000E+00 0.  1.
         24    2    1    2    0    0 -0.65799023280E+03  0.68428549681E+03  0.37313658898E+03  0.10230225897E+04  0.78399727886E+02 0.  0.
        254    2    1    2    0    0  0.65799023280E+03 -0.68428549681E+03 -0.53179966774E+03  0.14136872566E+04  0.90249819131E+03 0.  0.
         23    2    4    4    0    0  0.27969499678E+03 -0.29728743646E+03 -0.72083269951E+03  0.83330689260E+03  0.90506825566E+02 0.  0.
         23    2    4    4    0    0  0.37829523602E+03 -0.38699806036E+03  0.18903303177E+03  0.58038036403E+03  0.90736406902E+02 0.  0.
          2    1    3    3  502    0 -0.53923336694E+03  0.60016840524E+03  0.30878181645E+03  0.86389869131E+03  0.00000000000E+00 0. -1.
         -1    1    3    3    0  502 -0.11875686586E+03  0.84117091573E+02  0.64354772534E+02  0.15912389836E+03  0.00000000000E+00 0.  1.
         13    1    5    5    0    0  0.57770311479E+02 -0.38956821186E+02 -0.19248128775E+03  0.20470488255E+03  0.00000000000E+00 0. -1.
        -13    1    5    5    0    0  0.22192468530E+03 -0.25833061527E+03 -0.52835141175E+03  0.62860201005E+03  0.00000000000E+00 0.  1.
          3    1    6    6  503    0  0.27016809859E+03 -0.32715057448E+03  0.13262434652E+03  0.44453067068E+03  0.00000000000E+00 0. -1.
         -3    1    6    6    0  503  0.10812713742E+03 -0.59847485876E+02  0.56408685244E+02  0.13584969335E+03  0.00000000000E+00 0.  1.
<mgrwt>
<rscale>  0 0.24315388E+04</rscale>
<asrwt>0</asrwt>
<pdfrwt beam="1">  1        2 0.17523437E+00 0.24315388E+04</pdfrwt>
<pdfrwt beam="2">  1       -1 0.19964407E+00 0.24315388E+04</pdfrwt>
<totfact> 0.31903978E+00</totfact>
</mgrwt>
</event>
<event>
12    7  0.1544987E-007  0.1776745E+04  0.7818608E-02  0.8718765E-01
          2   -1    0    0  501    0  0.00000000000E+00  0.00000000000E+00  0.11782136260E+04  0.11782136260E+04  0.00000000000E+00 0. -1.
         -1   -1    0    0    0  501 -0.00000000000E+00 -0.00000000000E+00 -0.66983229175E+03  0.66983229175E+03  0.00000000000E+00 0.  1.
         24    2    1    2    0    0 -0.61551341906E+03  0.69003605752E+02 -0.33981972863E+02  0.62542735895E+03  0.79914580629E+02 0.  0.
        254    2    1    2    0    0  0.61551341906E+03 -0.69003605752E+02  0.54236330712E+03  0.12226185588E+04  0.90389154040E+03 0.  0.
         23    2    4    4    0    0  0.45641933913E+03  0.33376219065E+03  0.72722471706E+02  0.57746190453E+03  0.91966734521E+02 0.  0.
         23    2    4    4    0    0  0.15909407993E+03 -0.40276579640E+03  0.46964083541E+03  0.64515665428E+03  0.90185260729E+02 0.  0.
          4    1    3    3  502    0 -0.13092176474E+03  0.82818133693E+01  0.24846736797E+02  0.13351575655E+03  0.00000000000E+00 0. -1.
         -3    1    3    3    0  502 -0.48459165431E+03  0.60721792383E+02 -0.58828709660E+02  0.49191160241E+03  0.00000000000E+00 0.  1.
         13    1    5    5    0    0  0.61691055878E+02  0.88413544764E+02  0.65213704438E+01  0.10800587737E+03  0.00000000000E+00 0. -1.
        -13    1    5    5    0    0  0.39472828325E+03  0.24534864589E+03  0.66201101262E+02  0.46945602717E+03  0.00000000000E+00 0.  1.
          4    1    6    6  503    0  0.28913390218E+02 -0.30803457833E+02  0.82693163953E+02  0.92860091067E+02  0.00000000000E+00 0. -1.
         -4    1    6    6    0  503  0.13018068971E+03 -0.37196233857E+03  0.38694767146E+03  0.55229656321E+03  0.00000000000E+00 0.  1.
<mgrwt>
<rscale>  0 0.17767448E+04</rscale>
<asrwt>0</asrwt>
<pdfrwt beam="1">  1        2 0.18126363E+00 0.17767448E+04</pdfrwt>
<pdfrwt beam="2">  1       -1 0.10305112E+00 0.17767448E+04</pdfrwt>
<totfact> 0.18724271E+01</totfact>
</mgrwt>
</event>
<event>
12    7  0.1544987E-007  0.2040726E+04  0.7818608E-02  0.8587813E-01
          2   -1    0    0  501    0  0.00000000000E+00  0.00000000000E+00  0.65439896546E+03  0.65439896546E+03  0.00000000000E+00 0. -1.
         -1   -1    0    0    0  501 -0.00000000000E+00 -0.00000000000E+00 -0.15909882519E+04  0.15909882519E+04  0.00000000000E+00 0.  1.
         24    2    1    2    0    0 -0.76359098907E+03  0.18124895443E+03 -0.11407597980E+03  0.79721967799E+03  0.81384910940E+02 0.  0.
        254    2    1    2    0    0  0.76359098907E+03 -0.18124895443E+03 -0.82251330660E+03  0.14481675393E+04  0.89707229384E+03 0.  0.
         23    2    4    4    0    0  0.35465218840E+03 -0.14458697996E+03 -0.93396833838E+03  0.10133805279E+04  0.89216970345E+02 0.  0.
         23    2    4    4    0    0  0.40893880067E+03 -0.36661974470E+02  0.11145503177E+03  0.43478701140E+03  0.89679864589E+02 0.  0.
          2    1    3    3  502    0 -0.19609512701E+03  0.61344919767E+02  0.30419119649E+01  0.20548905384E+03  0.00000000000E+00 0. -1.
         -1    1    3    3    0  502 -0.56749586206E+03  0.11990403467E+03 -0.11711789177E+03  0.59173062415E+03  0.00000000000E+00 0.  1.
         13    1    5    5    0    0  0.32610557704E+03 -0.10356223656E+03 -0.78746892811E+03  0.85859029633E+03  0.00000000000E+00 0.  1.
        -13    1    5    5    0    0  0.28546611364E+02 -0.41024743404E+02 -0.14649941027E+03  0.15479023161E+03  0.00000000000E+00 0. -1.
          3    1    6    6  503    0  0.72462056122E+02 -0.17218021846E+02 -0.12804894776E+02  0.75572317577E+02  0.00000000000E+00 0. -1.
         -3    1    6    6    0  503  0.33647674454E+03 -0.19443952623E+02  0.12425992655E+03  0.35921469382E+03  0.00000000000E+00 0.  1.
<mgrwt>
<rscale>  0 0.20407264E+04</rscale>
<asrwt>0</asrwt>
<pdfrwt beam="1">  1        2 0.10067677E+00 0.20407264E+04</pdfrwt>
<pdfrwt beam="2">  1       -1 0.24476742E+00 0.20407264E+04</pdfrwt>
<totfact> 0.35558647E+00</totfact>
</mgrwt>
</event>
<event>
12    7  0.1544987E-007  0.1780680E+04  0.7818608E-02  0.8716642E-01
         -1   -1    0    0    0  501 -0.00000000000E+00  0.00000000000E+00  0.32761526386E+03  0.32761526386E+03  0.00000000000E+00 0.  1.
          2   -1    0    0  501    0  0.00000000000E+00 -0.00000000000E+00 -0.24196223391E+04  0.24196223391E+04  0.00000000000E+00 0. -1.
         24    2    1    2    0    0  0.17710279149E+03  0.44201129940E+02  0.19846008698E+03  0.27960727055E+03  0.73991087134E+02 0.  0.
        254    2    1    2    0    0 -0.17710279149E+03 -0.44201129940E+02 -0.22904671622E+04  0.24676303324E+04  0.89980025428E+03 0.  0.
         23    2    4    4    0    0  0.35066201271E+03  0.54724942021E+02 -0.77837537631E+03  0.86044539083E+03  0.92408753536E+02 0.  0.
         23    2    4    4    0    0 -0.52776480420E+03 -0.98926071961E+02 -0.15120917859E+04  0.16071849415E+04  0.91103299333E+02 0.  0.
          4    1    3    3  502    0  0.85905037403E+01 -0.21005190364E+01 -0.59634304168E+01  0.10666369442E+02  0.00000000000E+00 0. -1.
         -3    1    3    3    0  502  0.16851228775E+03  0.46301648977E+02  0.20442351740E+03  0.26894090110E+03  0.00000000000E+00 0.  1.
         13    1    5    5    0    0  0.74287654032E+02  0.32854216407E+02 -0.26267054125E+03  0.27494339112E+03  0.00000000000E+00 0. -1.
        -13    1    5    5    0    0  0.27637435868E+03  0.21870725613E+02 -0.51570483505E+03  0.58550199972E+03  0.00000000000E+00 0.  1.
          1    1    6    6  503    0 -0.40957394154E+03 -0.11439720141E+03 -0.11636273397E+04  0.12388971382E+04  0.00000000000E+00 0. -1.
         -1    1    6    6    0  503 -0.11819086266E+03  0.15471129453E+02 -0.34846444613E+03  0.36828780332E+03  0.00000000000E+00 0.  1.
<mgrwt>
<rscale>  0 0.17806799E+04</rscale>
<asrwt>0</asrwt>
<pdfrwt beam="1">  1        2 0.37224960E+00 0.17806799E+04</pdfrwt>
<pdfrwt beam="2">  1       -1 0.50402347E-01 0.17806799E+04</pdfrwt>
<totfact> 0.16501633E+01</totfact>
</mgrwt>
</event>
<event>
12    7  0.1544987E-007  0.1626004E+04  0.7818608E-02  0.8804730E-01
         -1   -1    0    0    0  501 -0.00000000000E+00  0.00000000000E+00  0.13329273445E+04  0.13329273445E+04  0.00000000000E+00 0.  1.
          2   -1    0    0  501    0  0.00000000000E+00 -0.00000000000E+00 -0.49588043033E+03  0.49588043033E+03  0.00000000000E+00 0. -1.
         24    2    1    2    0    0 -0.42737103314E+03  0.13222486480E+01  0.67217452304E+03  0.80046746154E+03  0.79257928637E+02 0.  0.
        254    2    1    2    0    0  0.42737103314E+03 -0.13222486480E+01  0.16487239108E+03  0.10283403132E+04  0.92068080581E+03 0.  0.
         23    2    4    4    0    0  0.18160001836E+03  0.44399971155E+03  0.71326107862E+01  0.48843425836E+03  0.91667006479E+02 0.  0.
         23    2    4    4    0    0  0.24577101478E+03 -0.44532196020E+03  0.15773978029E+03  0.53990605489E+03  0.88891337486E+02 0.  0.
          2    1    3    3  502    0 -0.28968244589E+03  0.74752372614E+01  0.51896119719E+03  0.59438415425E+03  0.00000000000E+00 0. -1.
         -1    1    3    3    0  502 -0.13768858725E+03 -0.61529886134E+01  0.15321332585E+03  0.20608330730E+03  0.00000000000E+00 0.  1.
         13    1    5    5    0    0  0.16049527617E+03  0.35901631780E+03 -0.27617856245E+02  0.39422607233E+03  0.00000000000E+00 0. -1.
        -13    1    5    5    0    0  0.21104742185E+02  0.84983393748E+02  0.34750467031E+02  0.94208186027E+02  0.00000000000E+00 0.  1.
          3    1    6    6  503    0  0.24289546136E+03 -0.40693132710E+03  0.12697684175E+03  0.49062656723E+03  0.00000000000E+00 0. -1.
         -3    1    6    6    0  503  0.28755534208E+01 -0.38390633091E+02  0.30762938537E+02  0.49279487661E+02  0.00000000000E+00 0.  1.
<mgrwt>
<rscale>  0 0.16260044E+04</rscale>
<asrwt>0</asrwt>
<pdfrwt beam="1">  1        2 0.76289298E-01 0.16260044E+04</pdfrwt>
<pdfrwt beam="2">  1       -1 0.20506574E+00 0.16260044E+04</pdfrwt>
<totfact> 0.94468411E+00</totfact>
</mgrwt>
</event>
<event>
12    7  0.1544987E-007  0.1573501E+04  0.7818608E-02  0.8836995E-01
          2   -1    0    0  501    0  0.00000000000E+00  0.00000000000E+00  0.35545577560E+03  0.35545577560E+03  0.00000000000E+00 0. -1.
         -1   -1    0    0    0  501 -0.00000000000E+00 -0.00000000000E+00 -0.17413598702E+04  0.17413598702E+04  0.00000000000E+00 0.  1.
         24    2    1    2    0    0  0.25115275480E+03 -0.43432551359E+03 -0.25786750634E+03  0.56988706141E+03  0.80989221053E+02 0.  0.
        254    2    1    2    0    0 -0.25115275480E+03  0.43432551359E+03 -0.11280365882E+04  0.15269285844E+04  0.89851432898E+03 0.  0.
         23    2    4    4    0    0 -0.11851957897E+02  0.58450528917E+03 -0.33431402041E+03  0.67970073269E+03  0.91871213092E+02 0.  0.
         23    2    4    4    0    0 -0.23930079690E+03 -0.15017977558E+03 -0.79372256783E+03  0.84722785169E+03  0.89334660730E+02 0.  0.
          4    1    3    3  502    0  0.23647622986E+03 -0.39794570095E+03 -0.25939355265E+03  0.53062868689E+03  0.00000000000E+00 0. -1.
         -3    1    3    3    0  502  0.14676524937E+02 -0.36379812649E+02  0.15260463037E+01  0.39258374519E+02  0.00000000000E+00 0.  1.
         13    1    5    5    0    0  0.28457833935E+02  0.46108908273E+03 -0.26040457268E+03  0.53030513103E+03  0.00000000000E+00 0. -1.
        -13    1    5    5    0    0 -0.40309791833E+02  0.12341620645E+03 -0.73909447736E+02  0.14939560166E+03  0.00000000000E+00 0.  1.
          4    1    6    6  503    0 -0.22190777642E+03 -0.13318531079E+03 -0.62055801816E+03  0.67236421838E+03  0.00000000000E+00 0. -1.
         -4    1    6    6    0  503 -0.17393020483E+02 -0.16994464788E+02 -0.17316454966E+03  0.17486363331E+03  0.00000000000E+00 0.  1.
<mgrwt>
<rscale>  0 0.15735011E+04</rscale>
<asrwt>0</asrwt>
<pdfrwt beam="1">  1        2 0.54685504E-01 0.15735011E+04</pdfrwt>
<pdfrwt beam="2">  1       -1 0.26790152E+00 0.15735011E+04</pdfrwt>
<totfact> 0.53289089E+00</totfact>
</mgrwt>
</event>
<event>
12    7  0.1544987E-007  0.1622929E+04  0.7818608E-02  0.8806584E-01
          2   -1    0    0  501    0  0.00000000000E+00  0.00000000000E+00  0.99062345712E+03  0.99062345712E+03  0.00000000000E+00 0. -1.
         -1   -1    0    0    0  501 -0.00000000000E+00 -0.00000000000E+00 -0.66470755818E+03  0.66470755818E+03  0.00000000000E+00 0.  1.
         24    2    1    2    0    0 -0.67546820393E+02 -0.45533568077E+03  0.43398382638E+03  0.63766603534E+03  0.79892777807E+02 0.  0.
        254    2    1    2    0    0  0.67546820393E+02  0.45533568077E+03 -0.10806792744E+03  0.10176649799E+04  0.90114936573E+03 0.  0.
         23    2    4    4    0    0 -0.40567287020E+03  0.19756845892E+03 -0.32835618351E+01  0.46081824429E+03  0.93482078039E+02 0.  0.
         23    2    4    4    0    0  0.47321969059E+03  0.25776722185E+03 -0.10478436561E+03  0.55684673566E+03  0.93368664528E+02 0.  0.
          2    1    3    3  502    0 -0.73573360472E+02 -0.45512978036E+03  0.42654146614E+03  0.62808739733E+03  0.00000000000E+00 0. -1.
         -1    1    3    3    0  502  0.60265400785E+01 -0.20590040374E+00  0.74423602373E+01  0.95786380136E+01  0.00000000000E+00 0.  1.
         13    1    5    5    0    0 -0.34154022463E+03  0.16851021294E+03  0.31760900722E+02  0.38217034385E+03  0.00000000000E+00 0. -1.
        -13    1    5    5    0    0 -0.64132645575E+02  0.29058245986E+02 -0.35044462557E+02  0.78647900443E+02  0.00000000000E+00 0.  1.
          1    1    6    6  503    0  0.41986038934E+03  0.22651879624E+03 -0.60718655566E+02  0.48091607035E+03  0.00000000000E+00 0.  1.
         -1    1    6    6    0  503  0.53359301257E+02  0.31248425606E+02 -0.44065710041E+02  0.75930665313E+02  0.00000000000E+00 0. -1.
<mgrwt>
<rscale>  0 0.16229293E+04</rscale>
<asrwt>0</asrwt>
<pdfrwt beam="1">  1        2 0.15240361E+00 0.16229293E+04</pdfrwt>
<pdfrwt beam="2">  1       -1 0.10226270E+00 0.16229293E+04</pdfrwt>
<totfact> 0.25258108E+01</totfact>
</mgrwt>
</event>
<event>
12    7  0.1544987E-007  0.1329973E+04  0.7818608E-02  0.9006128E-01
         -1   -1    0    0    0  501 -0.00000000000E+00  0.00000000000E+00  0.13774743421E+04  0.13774743421E+04  0.00000000000E+00 0.  1.
          2   -1    0    0  501    0  0.00000000000E+00 -0.00000000000E+00 -0.32102759562E+03  0.32102759562E+03  0.00000000000E+00 0. -1.
         24    2    1    2    0    0  0.12993376973E+02  0.24603884690E+03  0.42530584196E+03  0.49796032112E+03  0.79846604056E+02 0.  0.
        254    2    1    2    0    0 -0.12993376973E+02 -0.24603884690E+03  0.63114090449E+03  0.12005416166E+04  0.99108899185E+03 0.  0.
         23    2    4    4    0    0  0.23751180950E+03 -0.52537990961E+03  0.55870851999E+03  0.80786776989E+03  0.89773126539E+02 0.  0.
         23    2    4    4    0    0 -0.25050518647E+03  0.27934106271E+03  0.72432384500E+02  0.39267384668E+03  0.90343908334E+02 0.  0.
          4    1    3    3  502    0 -0.18656163078E+02  0.14331008795E+03  0.18539387550E+03  0.23506748564E+03  0.00000000000E+00 0. -1.
         -3    1    3    3    0  502  0.31649540051E+02  0.10272875894E+03  0.23991196646E+03  0.26289283548E+03  0.00000000000E+00 0.  1.
         13    1    5    5    0    0  0.23935952918E+03 -0.51399185156E+03  0.52684831772E+03  0.77398304734E+03  0.00000000000E+00 0.  1.
        -13    1    5    5    0    0 -0.18477196807E+01 -0.11388058053E+02  0.31860202267E+02  0.33884722557E+02  0.00000000000E+00 0. -1.
          2    1    6    6  503    0 -0.25035142793E+03  0.25147780220E+03  0.53191198333E+02  0.35881224344E+03  0.00000000000E+00 0.  1.
         -2    1    6    6    0  503 -0.15375853755E+00  0.27863260517E+02  0.19241186167E+02  0.33861603232E+02  0.00000000000E+00 0. -1.
<mgrwt>
<rscale>  0 0.13299733E+04</rscale>
<asrwt>0</asrwt>
<pdfrwt beam="1">  1        2 0.49388862E-01 0.13299733E+04</pdfrwt>
<pdfrwt beam="2">  1       -1 0.21191913E+00 0.13299733E+04</pdfrwt>
<totfact> 0.14228816E+01</totfact>
</mgrwt>
</event>
<event>
12    7  0.1544987E-007  0.1649027E+04  0.7818608E-02  0.8790983E-01
          2   -1    0    0  501    0  0.00000000000E+00  0.00000000000E+00  0.31225093050E+04  0.31225093050E+04  0.00000000000E+00 0. -1.
         -1   -1    0    0    0  501 -0.00000000000E+00 -0.00000000000E+00 -0.21771660607E+03  0.21771660607E+03  0.00000000000E+00 0.  1.
         24    2    1    2    0    0  0.43620589592E+03 -0.17294615379E+03  0.34365492546E+03  0.58734150015E+03  0.81764137987E+02 0.  0.
        254    2    1    2    0    0 -0.43620589592E+03  0.17294615379E+03  0.25611377734E+04  0.27528844109E+04  0.89373370162E+03 0.  0.
         23    2    4    4    0    0 -0.12083923072E+03 -0.32311330801E+03  0.14400930328E+04  0.14833481814E+04  0.86310802408E+02 0.  0.
         23    2    4    4    0    0 -0.31536666520E+03  0.49605946180E+03  0.11210447406E+04  0.12695362295E+04  0.97210104053E+02 0.  0.
          2    1    3    3  502    0  0.90102055351E+02 -0.76961662021E+01  0.89579275100E+02  0.12728730447E+03  0.00000000000E+00 0. -1.
         -1    1    3    3    0  502  0.34610384057E+03 -0.16524998759E+03  0.25407565036E+03  0.46005419567E+03  0.00000000000E+00 0.  1.
         13    1    5    5    0    0 -0.97523621862E+02 -0.25560841531E+03  0.12650878213E+04  0.12943313774E+04  0.00000000000E+00 0.  1.
        -13    1    5    5    0    0 -0.23315608855E+02 -0.67504892693E+02  0.17500521145E+03  0.18901680399E+03  0.00000000000E+00 0. -1.
          4    1    6    6  503    0 -0.78771568608E+02  0.73773238568E+02  0.26468138955E+03  0.28583857109E+03  0.00000000000E+00 0. -1.
         -4    1    6    6    0  503 -0.23659509659E+03  0.42228622323E+03  0.85636335110E+03  0.98369765841E+03  0.00000000000E+00 0.  1.
<mgrwt>
<rscale>  0 0.16490265E+04</rscale>
<asrwt>0</asrwt>
<pdfrwt beam="1">  1        2 0.48038602E+00 0.16490265E+04</pdfrwt>
<pdfrwt beam="2">  1       -1 0.33494865E-01 0.16490265E+04</pdfrwt>
<totfact> 0.13380007E+01</totfact>
</mgrwt>
</event>
<event>
12    7  0.1544987E-007  0.2007007E+04  0.7818608E-02  0.8603352E-01
         -1   -1    0    0    0  501 -0.00000000000E+00  0.00000000000E+00  0.11983902632E+04  0.11983902632E+04  0.00000000000E+00 0.  1.
          2   -1    0    0  501    0  0.00000000000E+00 -0.00000000000E+00 -0.84030999115E+03  0.84030999115E+03  0.00000000000E+00 0. -1.
         24    2    1    2    0    0  0.27642949085E+03  0.24107257693E+03 -0.57955139797E+03  0.69042974115E+03  0.79272654962E+02 0.  0.
        254    2    1    2    0    0 -0.27642949085E+03 -0.24107257693E+03  0.93763167002E+03  0.13482705132E+04  0.89674465563E+03 0.  0.
         23    2    4    4    0    0 -0.37858299900E+03 -0.18662332148E+03  0.34657463740E+02  0.43335938184E+03  0.91901375306E+02 0.  0.
         23    2    4    4    0    0  0.10215350816E+03 -0.54449255443E+02  0.90297420628E+03  0.91491113137E+03  0.91103789371E+02 0.  0.
          2    1    3    3  502    0  0.23087285135E+03  0.23472639984E+03 -0.50647309858E+03  0.60408091830E+03  0.00000000000E+00 0. -1.
         -1    1    3    3    0  502  0.45556639500E+02  0.63461770852E+01 -0.73078299388E+02  0.86348822850E+02  0.00000000000E+00 0.  1.
         13    1    5    5    0    0 -0.33889804973E+03 -0.13160799723E+03  0.20987183406E+02  0.36416069930E+03  0.00000000000E+00 0. -1.
        -13    1    5    5    0    0 -0.39684949274E+02 -0.55015324255E+02  0.13670280335E+02  0.69198682547E+02  0.00000000000E+00 0.  1.
          4    1    6    6  503    0  0.46908665657E+02 -0.61596487103E+02  0.31796278079E+03  0.32725354101E+03  0.00000000000E+00 0. -1.
         -4    1    6    6    0  503  0.55244842499E+02  0.71472316596E+01  0.58501142549E+03  0.58765759035E+03  0.00000000000E+00 0.  1.
<mgrwt>
<rscale>  0 0.20070070E+04</rscale>
<asrwt>0</asrwt>
<pdfrwt beam="1">  1        2 0.12927846E+00 0.20070070E+04</pdfrwt>
<pdfrwt beam="2">  1       -1 0.18436773E+00 0.20070070E+04</pdfrwt>
<totfact> 0.66152533E+00</totfact>
</mgrwt>
</event>
<event>
12    7  0.1544987E-007  0.1797316E+04  0.7818608E-02  0.8707728E-01
         -1   -1    0    0    0  501 -0.00000000000E+00  0.00000000000E+00  0.49753121609E+03  0.49753121609E+03  0.00000000000E+00 0.  1.
          2   -1    0    0  501    0  0.00000000000E+00 -0.00000000000E+00 -0.16231865550E+04  0.16231865550E+04  0.00000000000E+00 0. -1.
         24    2    1    2    0    0 -0.61549328515E+02 -0.49234375890E+03 -0.95298389988E+03  0.10772805179E+04  0.78513081889E+02 0.  0.
        254    2    1    2    0    0  0.61549328515E+02  0.49234375890E+03 -0.17267143901E+03  0.10434372532E+04  0.90152935545E+03 0.  0.
         23    2    4    4    0    0 -0.41051766588E+03  0.20183148517E+03 -0.73351644585E+02  0.47284170354E+03  0.94541580452E+02 0.  0.
         23    2    4    4    0    0  0.47206699440E+03  0.29051227372E+03 -0.99319794429E+02  0.57059554965E+03  0.92033859717E+02 0.  0.
          2    1    3    3  502    0 -0.78098868604E+02 -0.37915448247E+03 -0.76092684659E+03  0.85373720823E+03  0.00000000000E+00 0. -1.
         -1    1    3    3    0  502  0.16549540090E+02 -0.11318927643E+03 -0.19205705330E+03  0.22354330967E+03  0.00000000000E+00 0.  1.
         13    1    5    5    0    0 -0.50493447333E+02 -0.67752514976E+01 -0.53235744088E+01  0.51223360891E+02  0.00000000000E+00 0. -1.
        -13    1    5    5    0    0 -0.36002421855E+03  0.20860673667E+03 -0.68028070176E+02  0.42161834265E+03  0.00000000000E+00 0.  1.
          3    1    6    6  503    0  0.28478175849E+03  0.12893845909E+03 -0.31976843695E+02  0.31424241396E+03  0.00000000000E+00 0. -1.
         -3    1    6    6    0  503  0.18728523591E+03  0.16157381463E+03 -0.67342950734E+02  0.25635313569E+03  0.00000000000E+00 0.  1.
<mgrwt>
<rscale>  0 0.17973158E+04</rscale>
<asrwt>0</asrwt>
<pdfrwt beam="1">  1        2 0.24972101E+00 0.17973158E+04</pdfrwt>
<pdfrwt beam="2">  1       -1 0.76543264E-01 0.17973158E+04</pdfrwt>
<totfact> 0.19944722E+01</totfact>
</mgrwt>
</event>
<event>
12    7  0.1544987E-007  0.1364651E+04  0.7818608E-02  0.8979811E-01
         -1   -1    0    0    0  501 -0.00000000000E+00  0.00000000000E+00  0.21513192149E+03  0.21513192149E+03  0.00000000000E+00 0.  1.
          2   -1    0    0  501    0  0.00000000000E+00 -0.00000000000E+00 -0.21641052144E+04  0.21641052144E+04  0.00000000000E+00 0. -1.
         24    2    1    2    0    0 -0.98415996731E+02 -0.36840119468E+03 -0.66054579147E+03  0.76717399013E+03  0.82644055114E+02 0.  0.
        254    2    1    2    0    0  0.98415996731E+02  0.36840119468E+03 -0.12884275014E+04  0.16120631457E+04  0.89067222410E+03 0.  0.
         23    2    4    4    0    0  0.41143209548E+03  0.31545948057E+03 -0.38995647978E+03  0.65516675063E+03  0.91577081937E+02 0.  0.
         23    2    4    4    0    0 -0.31301609875E+03  0.52941714109E+02 -0.89847102162E+03  0.95689639509E+03  0.87284770008E+02 0.  0.
          2    1    3    3  502    0 -0.10595696837E+03 -0.25111172954E+03 -0.46905528515E+03  0.54249132747E+03  0.00000000000E+00 0. -1.
         -3    1    3    3    0  502  0.75409716372E+01 -0.11728946514E+03 -0.19149050633E+03  0.22468266266E+03  0.00000000000E+00 0.  1.
         13    1    5    5    0    0  0.45143031864E+02  0.69008945205E+02 -0.86129623998E+02  0.11924110019E+03  0.00000000000E+00 0.  1.
        -13    1    5    5    0    0  0.36628906362E+03  0.24645053537E+03 -0.30382685578E+03  0.53592565044E+03  0.00000000000E+00 0. -1.
          1    1    6    6  503    0 -0.30496560497E+03  0.33556496638E+02 -0.85973715694E+03  0.91284064200E+03  0.00000000000E+00 0. -1.
         -1    1    6    6    0  503 -0.80504937843E+01  0.19385217471E+02 -0.38733864688E+02  0.44055753089E+02  0.00000000000E+00 0.  1.
<mgrwt>
<rscale>  0 0.13646510E+04</rscale>
<asrwt>0</asrwt>
<pdfrwt beam="1">  1        2 0.33293928E+00 0.13646510E+04</pdfrwt>
<pdfrwt beam="2">  1       -1 0.33097218E-01 0.13646510E+04</pdfrwt>
<totfact> 0.51636567E+01</totfact>
</mgrwt>
</event>
<event>
12    7  0.1544987E-007  0.1294935E+04  0.7818608E-02  0.9033592E-01
         -1   -1    0    0    0  501 -0.00000000000E+00  0.00000000000E+00  0.33899465955E+03  0.33899465955E+03  0.00000000000E+00 0.  1.
          2   -1    0    0  501    0  0.00000000000E+00 -0.00000000000E+00 -0.12366385607E+04  0.12366385607E+04  0.00000000000E+00 0. -1.
         24    2    1    2    0    0 -0.26616832023E+03  0.16198818512E+03 -0.38364580779E+03  0.50106595850E+03  0.82445388722E+02 0.  0.
        254    2    1    2    0    0  0.26616832023E+03 -0.16198818512E+03 -0.51399809334E+03  0.10745672617E+04  0.89073846510E+03 0.  0.
         23    2    4    4    0    0 -0.13661471346E+03 -0.32623588222E+03  0.36068003677E+02  0.36750731137E+03  0.93098293416E+02 0.  0.
         23    2    4    4    0    0  0.40278303369E+03  0.16424769710E+03 -0.55006609702E+03  0.70705995037E+03  0.90275046876E+02 0.  0.
          2    1    3    3  502    0 -0.14200779969E+03  0.12313178721E+03 -0.18589320043E+03  0.26435569628E+03  0.00000000000E+00 0. -1.
         -1    1    3    3    0  502 -0.12416052055E+03  0.38856397914E+02 -0.19775260736E+03  0.23671026222E+03  0.00000000000E+00 0.  1.
         13    1    5    5    0    0 -0.24105261253E+01 -0.53848825741E+02  0.34221048137E+02  0.63848154284E+02  0.00000000000E+00 0.  1.
        -13    1    5    5    0    0 -0.13420418733E+03 -0.27238705648E+03  0.18469555400E+01  0.30365915708E+03  0.00000000000E+00 0. -1.
          2    1    6    6  503    0  0.38528176096E+03  0.17355888262E+03 -0.53696497051E+03  0.68329795889E+03  0.00000000000E+00 0. -1.
         -2    1    6    6    0  503  0.17501272730E+02 -0.93111855256E+01 -0.13101126507E+02  0.23761991474E+02  0.00000000000E+00 0.  1.
<mgrwt>
<rscale>  0 0.12949345E+04</rscale>
<asrwt>0</asrwt>
<pdfrwt beam="1">  1        2 0.19025208E+00 0.12949345E+04</pdfrwt>
<pdfrwt beam="2">  1       -1 0.52153025E-01 0.12949345E+04</pdfrwt>
<totfact> 0.74535206E+01</totfact>
</mgrwt>
</event>
<event>
12    7  0.1544987E-007  0.1124276E+04  0.7818608E-02  0.9181849E-01
          2   -1    0    0  501    0  0.00000000000E+00  0.00000000000E+00  0.91440514944E+03  0.91440514944E+03  0.00000000000E+00 0. -1.
         -1   -1    0    0    0  501 -0.00000000000E+00 -0.00000000000E+00 -0.34557885646E+03  0.34557885646E+03  0.00000000000E+00 0.  1.
         24    2    1    2    0    0  0.24980718927E+01  0.18611510323E+03  0.60823947060E+02  0.21184552969E+03  0.80832567073E+02 0.  0.
        254    2    1    2    0    0 -0.24980718927E+01 -0.18611510323E+03  0.50800234592E+03  0.10481384762E+04  0.89770975813E+03 0.  0.
         23    2    4    4    0    0  0.31943901249E+03 -0.21738409523E+03  0.58258094562E+03  0.70493926134E+03  0.90783679242E+02 0.  0.
         23    2    4    4    0    0 -0.32193708438E+03  0.31268991998E+02 -0.74578599699E+02  0.34319921488E+03  0.87192301262E+02 0.  0.
          4    1    3    3  502    0 -0.29998503771E+02  0.26755319771E+02  0.14587753191E+02  0.42761663996E+02  0.00000000000E+00 0. -1.
         -3    1    3    3    0  502  0.32496575664E+02  0.15935978346E+03  0.46236193870E+02  0.16908386570E+03  0.00000000000E+00 0.  1.
         13    1    5    5    0    0  0.27182842533E+02 -0.42373318499E+02  0.40059138892E+02  0.64336145809E+02  0.00000000000E+00 0.  1.
        -13    1    5    5    0    0  0.29225616996E+03 -0.17501077673E+03  0.54252180673E+03  0.64060311553E+03  0.00000000000E+00 0. -1.
          3    1    6    6  503    0 -0.21106690264E+03 -0.19315243866E+02 -0.61169215361E+02  0.22059915898E+03  0.00000000000E+00 0. -1.
         -3    1    6    6    0  503 -0.11087018174E+03  0.50584235864E+02 -0.13409384337E+02  0.12260005589E+03  0.00000000000E+00 0.  1.
<mgrwt>
<rscale>  0 0.11242759E+04</rscale>
<asrwt>0</asrwt>
<pdfrwt beam="1">  1        2 0.14067771E+00 0.11242759E+04</pdfrwt>
<pdfrwt beam="2">  1       -1 0.53165978E-01 0.11242759E+04</pdfrwt>
<totfact> 0.11569528E+02</totfact>
</mgrwt>
</event>
<event>
12    7  0.1544987E-007  0.2375016E+04  0.7818608E-02  0.8448917E-01
         -1   -1    0    0    0  501 -0.00000000000E+00  0.00000000000E+00  0.16147029734E+04  0.16147029734E+04  0.00000000000E+00 0.  1.
          2   -1    0    0  501    0  0.00000000000E+00 -0.00000000000E+00 -0.87333435129E+03  0.87333435129E+03  0.00000000000E+00 0. -1.
         24    2    1    2    0    0  0.47092738661E+03  0.46359883091E+03  0.11245534807E+04  0.13066844424E+04  0.78148713848E+02 0.  0.
        254    2    1    2    0    0 -0.47092738661E+03 -0.46359883091E+03 -0.38318485861E+03  0.11813528823E+04  0.90114788864E+03 0.  0.
         23    2    4    4    0    0 -0.67169104257E+02  0.16397196829E+03 -0.37988478767E+03  0.42961317627E+03  0.94109162016E+02 0.  0.
         23    2    4    4    0    0 -0.40375828235E+03 -0.62757079919E+03 -0.33000709382E+01  0.75173970604E+03  0.90751510171E+02 0.  0.
          2    1    3    3  502    0  0.23152549649E+03  0.19827574593E+03  0.58235668053E+03  0.65731014773E+03  0.00000000000E+00 0. -1.
         -1    1    3    3    0  502  0.23940189012E+03  0.26532308497E+03  0.54219680016E+03  0.64937429463E+03  0.00000000000E+00 0.  1.
         13    1    5    5    0    0 -0.82210170721E+02  0.77891393706E+02 -0.21530607569E+03  0.24327409975E+03  0.00000000000E+00 0. -1.
        -13    1    5    5    0    0  0.15041066464E+02  0.86080574582E+02 -0.16457871198E+03  0.18633907652E+03  0.00000000000E+00 0.  1.
          4    1    6    6  503    0 -0.12062071808E+03 -0.21077319123E+03  0.39559369820E+02  0.24604804310E+03  0.00000000000E+00 0. -1.
         -4    1    6    6    0  503 -0.28313756427E+03 -0.41679760796E+03 -0.42859440758E+02  0.50569166294E+03  0.00000000000E+00 0.  1.
<mgrwt>
<rscale>  0 0.23750163E+04</rscale>
<asrwt>0</asrwt>
<pdfrwt beam="1">  1        2 0.13435913E+00 0.23750163E+04</pdfrwt>
<pdfrwt beam="2">  1       -1 0.24841584E+00 0.23750163E+04</pdfrwt>
<totfact> 0.22437071E+00</totfact>
</mgrwt>
</event>
<event>
12    7  0.1544987E-007  0.1489384E+04  0.7818608E-02  0.8891543E-01
          2   -1    0    0  501    0  0.00000000000E+00  0.00000000000E+00  0.23112809975E+04  0.23112809975E+04  0.00000000000E+00 0. -1.
         -1   -1    0    0    0  501 -0.00000000000E+00 -0.00000000000E+00 -0.23993878308E+03  0.23993878308E+03  0.00000000000E+00 0.  1.
         24    2    1    2    0    0 -0.24212184679E+03  0.39585229144E+02 -0.19993464397E+02  0.25906466132E+03  0.80776116944E+02 0.  0.
        254    2    1    2    0    0  0.24212184679E+03 -0.39585229144E+02  0.20913356788E+04  0.22921551193E+04  0.90559383292E+03 0.  0.
         23    2    4    4    0    0  0.10412763313E+03  0.33590112729E+03  0.16526938939E+04  0.16921413195E+04  0.90956072131E+02 0.  0.
         23    2    4    4    0    0  0.13799421366E+03 -0.37548635644E+03  0.43864178492E+03  0.60001379973E+03  0.87049052340E+02 0.  0.
          4    1    3    3  502    0 -0.11069557236E+03  0.25711709983E+02  0.30380348290E+02  0.11763318976E+03  0.00000000000E+00 0. -1.
         -3    1    3    3    0  502 -0.13142627442E+03  0.13873519160E+02 -0.50373812687E+02  0.14143147156E+03  0.00000000000E+00 0.  1.
         13    1    5    5    0    0  0.11569261990E+03  0.31017330822E+03  0.15767565582E+04  0.16111342301E+04  0.00000000000E+00 0.  1.
        -13    1    5    5    0    0 -0.11564986770E+02  0.25727819072E+02  0.75937335699E+02  0.81007089482E+02  0.00000000000E+00 0. -1.
          4    1    6    6  503    0 -0.22321823100E+01 -0.69496772977E+02  0.10612276333E+03  0.12687326349E+03  0.00000000000E+00 0. -1.
         -4    1    6    6    0  503  0.14022639597E+03 -0.30598958346E+03  0.33251902159E+03  0.47314053624E+03  0.00000000000E+00 0.  1.
<mgrwt>
<rscale>  0 0.14893837E+04</rscale>
<asrwt>0</asrwt>
<pdfrwt beam="1">  1        2 0.35558168E+00 0.14893837E+04</pdfrwt>
<pdfrwt beam="2">  1       -1 0.36913660E-01 0.14893837E+04</pdfrwt>
<totfact> 0.34742146E+01</totfact>
</mgrwt>
</event>
<event>
12    7  0.1544987E-007  0.2002633E+04  0.7818608E-02  0.8605390E-01
         -1   -1    0    0    0  501 -0.00000000000E+00  0.00000000000E+00  0.54098552366E+03  0.54098552366E+03  0.00000000000E+00 0.  1.
          2   -1    0    0  501    0  0.00000000000E+00 -0.00000000000E+00 -0.18533492535E+04  0.18533492535E+04  0.00000000000E+00 0. -1.
         24    2    1    2    0    0  0.46307023957E+01 -0.50201032696E+03 -0.12669724539E+04  0.13650556205E+04  0.78242164006E+02 0.  0.
        254    2    1    2    0    0 -0.46307023957E+01  0.50201032696E+03 -0.45391275855E+02  0.10292791566E+04  0.89739590068E+03 0.  0.
         23    2    4    4    0    0  0.33334647989E+03  0.35153806849E+03 -0.29442559881E+03  0.57432574470E+03  0.92004013731E+02 0.  0.
         23    2    4    4    0    0 -0.33797718228E+03  0.15047225848E+03  0.24903432295E+03  0.45495341192E+03  0.89966864440E+02 0.  0.
          4    1    3    3  502    0 -0.30350485940E+02 -0.34661767722E+03 -0.90531151230E+03  0.96987313627E+03  0.00000000000E+00 0. -1.
         -3    1    3    3    0  502  0.34981188336E+02 -0.15539264975E+03 -0.36166094165E+03  0.39518248424E+03  0.00000000000E+00 0.  1.
         13    1    5    5    0    0  0.32365844583E+03  0.34674468781E+03 -0.30090735515E+03  0.56172226631E+03  0.00000000000E+00 0. -1.
        -13    1    5    5    0    0  0.96880340578E+01  0.47933806834E+01  0.64817563476E+01  0.12603478394E+02  0.00000000000E+00 0.  1.
          1    1    6    6  503    0 -0.28188322736E+03  0.99787061099E+02  0.16352794397E+03  0.34081813316E+03  0.00000000000E+00 0. -1.
         -1    1    6    6    0  503 -0.56093954919E+02  0.50685197377E+02  0.85506378981E+02  0.11413527876E+03  0.00000000000E+00 0.  1.
<mgrwt>
<rscale>  0 0.20026334E+04</rscale>
<asrwt>0</asrwt>
<pdfrwt beam="1">  1        2 0.28513065E+00 0.20026334E+04</pdfrwt>
<pdfrwt beam="2">  1       -1 0.83228543E-01 0.20026334E+04</pdfrwt>
<totfact> 0.12215495E+01</totfact>
</mgrwt>
</event>
<event>
12    7  0.1544987E-007  0.1962919E+04  0.7818608E-02  0.8624156E-01
         -1   -1    0    0    0  501 -0.00000000000E+00  0.00000000000E+00  0.10048063568E+04  0.10048063568E+04  0.00000000000E+00 0.  1.
          2   -1    0    0  501    0  0.00000000000E+00 -0.00000000000E+00 -0.95865551984E+03  0.95865551984E+03  0.00000000000E+00 0. -1.
         24    2    1    2    0    0 -0.22058819588E+02 -0.23449444696E+03 -0.71481443835E+03  0.75688123687E+03  0.80220248562E+02 0.  0.
        254    2    1    2    0    0  0.22058819588E+02  0.23449444696E+03  0.76096527533E+03  0.12065806398E+04  0.90625297400E+03 0.  0.
         23    2    4    4    0    0 -0.40634033826E+03 -0.75503765739E+01  0.22705670944E+03  0.47462640868E+03  0.92444577042E+02 0.  0.
         23    2    4    4    0    0  0.42839915785E+03  0.24204482353E+03  0.53390856589E+03  0.73195423112E+03  0.92666631949E+02 0.  0.
          2    1    3    3  502    0 -0.37596384951E+02 -0.14100381519E+03 -0.33469016820E+03  0.36512062767E+03  0.00000000000E+00 0. -1.
         -1    1    3    3    0  502  0.15537565363E+02 -0.93490631763E+02 -0.38012427015E+03  0.39176060920E+03  0.00000000000E+00 0.  1.
         13    1    5    5    0    0 -0.97877414316E+02 -0.12319057403E+02  0.10153948815E+03  0.14156982399E+03  0.00000000000E+00 0. -1.
        -13    1    5    5    0    0 -0.30846292395E+03  0.47686808295E+01  0.12551722129E+03  0.33305658469E+03  0.00000000000E+00 0.  1.
          2    1    6    6  503    0  0.75408924423E+01 -0.25158849202E+01 -0.17828668803E+01  0.81469841090E+01  0.00000000000E+00 0. -1.
         -2    1    6    6    0  503  0.42085826541E+03  0.24456070845E+03  0.53569143277E+03  0.72380724701E+03  0.00000000000E+00 0.  1.
<mgrwt>
<rscale>  0 0.19629194E+04</rscale>
<asrwt>0</asrwt>
<pdfrwt beam="1">  1        2 0.14748546E+00 0.19629194E+04</pdfrwt>
<pdfrwt beam="2">  1       -1 0.15458559E+00 0.19629194E+04</pdfrwt>
<totfact> 0.91582586E+00</totfact>
</mgrwt>
</event>
<event>
12    7  0.1544987E-007  0.1986709E+04  0.7818608E-02  0.8612860E-01
          2   -1    0    0  501    0  0.00000000000E+00  0.00000000000E+00  0.98627609054E+03  0.98627609054E+03  0.00000000000E+00 0. -1.
         -1   -1    0    0    0  501 -0.00000000000E+00 -0.00000000000E+00 -0.10004840359E+04  0.10004840359E+04  0.00000000000E+00 0.  1.
         24    2    1    2    0    0  0.23300721559E+02 -0.75262414558E+03  0.20986725146E+03  0.78524680394E+03  0.74714468008E+02 0.  0.
        254    2    1    2    0    0 -0.23300721559E+02  0.75262414558E+03 -0.22407519682E+03  0.12015133225E+04  0.90908665275E+03 0.  0.
         23    2    4    4    0    0 -0.29744792490E+03  0.76720617780E+03 -0.33401363508E+03  0.89234870155E+03  0.87410007756E+02 0.  0.
         23    2    4    4    0    0  0.27414720334E+03 -0.14582032223E+02  0.10993843826E+03  0.30916462095E+03  0.90149752508E+02 0.  0.
          4    1    3    3  502    0  0.17058752748E+02 -0.74950727770E+03  0.20817944751E+03  0.77806866197E+03  0.00000000000E+00 0. -1.
         -3    1    3    3    0  502  0.62419688111E+01 -0.31168678796E+01  0.16878039492E+01  0.71781419733E+01  0.00000000000E+00 0.  1.
         13    1    5    5    0    0 -0.12749304718E+02  0.51011637674E+02 -0.45089219643E+02  0.69265934462E+02  0.00000000000E+00 0.  1.
        -13    1    5    5    0    0 -0.28469862019E+03  0.71619454013E+03 -0.28892441544E+03  0.82308276709E+03  0.00000000000E+00 0. -1.
          4    1    6    6  503    0  0.10547980431E+03  0.16680841017E+02  0.26252803850E+01  0.10682289863E+03  0.00000000000E+00 0.  1.
         -4    1    6    6    0  503  0.16866739903E+03 -0.31262873240E+02  0.10731315787E+03  0.20234172232E+03  0.00000000000E+00 0. -1.
<mgrwt>
<rscale>  0 0.19867093E+04</rscale>
<asrwt>0</asrwt>
<pdfrwt beam="1">  1        2 0.15173478E+00 0.19867093E+04</pdfrwt>
<pdfrwt beam="2">  1       -1 0.15392062E+00 0.19867093E+04</pdfrwt>
<totfact> 0.88726432E+00</totfact>
</mgrwt>
</event>
<event>
12    7  0.1544987E-007  0.1298323E+04  0.7818608E-02  0.9030896E-01
         -1   -1    0    0    0  501 -0.00000000000E+00  0.00000000000E+00  0.34389503977E+03  0.34389503977E+03  0.00000000000E+00 0.  1.
          2   -1    0    0  501    0  0.00000000000E+00 -0.00000000000E+00 -0.12254049287E+04  0.12254049287E+04  0.00000000000E+00 0. -1.
         24    2    1    2    0    0  0.29541032301E+03 -0.13007529759E+03 -0.20461251732E+03  0.39071598320E+03  0.81276412946E+02 0.  0.
        254    2    1    2    0    0 -0.29541032301E+03  0.13007529759E+03 -0.67689737164E+03  0.11785839853E+04  0.90922126937E+03 0.  0.
         23    2    4    4    0    0 -0.17306428259E+03 -0.28413660768E+03 -0.64962725030E+03  0.73601587010E+03  0.94968094530E+02 0.  0.
         23    2    4    4    0    0 -0.12234604042E+03  0.41421190527E+03 -0.27270121348E+02  0.44256811520E+03  0.92643515659E+02 0.  0.
          2    1    3    3  502    0  0.23957489092E+03 -0.11990010982E+03 -0.19891543541E+03  0.33367576348E+03  0.00000000000E+00 0. -1.
         -1    1    3    3    0  502  0.55835432098E+02 -0.10175187770E+02 -0.56970819133E+01  0.57040219723E+02  0.00000000000E+00 0.  1.
         13    1    5    5    0    0 -0.72558496821E+02 -0.12088408144E+03 -0.17911992105E+03  0.22795096561E+03  0.00000000000E+00 0.  1.
        -13    1    5    5    0    0 -0.10050578577E+03 -0.16325252624E+03 -0.47050732925E+03  0.50806490449E+03  0.00000000000E+00 0. -1.
          1    1    6    6  503    0 -0.70875067620E+02  0.21910519234E+03  0.31438063244E+02  0.23241925984E+03  0.00000000000E+00 0. -1.
         -1    1    6    6    0  503 -0.51470972800E+02  0.19510671293E+03 -0.58708184593E+02  0.21014885536E+03  0.00000000000E+00 0.  1.
<mgrwt>
<rscale>  0 0.12983230E+04</rscale>
<asrwt>0</asrwt>
<pdfrwt beam="1">  1        2 0.18852384E+00 0.12983230E+04</pdfrwt>
<pdfrwt beam="2">  1       -1 0.52906929E-01 0.12983230E+04</pdfrwt>
<totfact> 0.73612058E+01</totfact>
</mgrwt>
</event>
<event>
12    7  0.1544987E-007  0.1897913E+04  0.7818608E-02  0.8655896E-01
          2   -1    0    0  501    0  0.00000000000E+00  0.00000000000E+00  0.20903944074E+04  0.20903944074E+04  0.00000000000E+00 0. -1.
         -1   -1    0    0    0  501 -0.00000000000E+00 -0.00000000000E+00 -0.43078867998E+03  0.43078867998E+03  0.00000000000E+00 0.  1.
         24    2    1    2    0    0 -0.30907341384E+03 -0.35500677005E+03 -0.10055010497E+03  0.48774649963E+03  0.78931250902E+02 0.  0.
        254    2    1    2    0    0  0.30907341384E+03  0.35500677005E+03  0.17601558324E+04  0.20334365877E+04  0.90286190537E+03 0.  0.
         23    2    4    4    0    0 -0.15628130136E+02 -0.23404646638E+03  0.91745391403E+03  0.95147816922E+03  0.92558280298E+02 0.  0.
         23    2    4    4    0    0  0.32470154397E+03  0.58905323643E+03  0.84270191836E+03  0.10819584185E+04  0.89848139704E+02 0.  0.
          2    1    3    3  502    0 -0.13384143788E+03 -0.11856398599E+03 -0.69416189226E+02  0.19180603899E+03  0.00000000000E+00 0. -1.
         -1    1    3    3    0  502 -0.17523197596E+03 -0.23644278406E+03 -0.31133915746E+02  0.29594046064E+03  0.00000000000E+00 0.  1.
         13    1    5    5    0    0 -0.29026779375E+02 -0.42989803667E+02  0.31707911989E+03  0.32129401708E+03  0.00000000000E+00 0. -1.
        -13    1    5    5    0    0  0.13398649239E+02 -0.19105666271E+03  0.60037479414E+03  0.63018415214E+03  0.00000000000E+00 0.  1.
          2    1    6    6  503    0  0.22561741085E+03  0.31932957531E+03  0.47108118591E+03  0.61220264412E+03  0.00000000000E+00 0. -1.
         -2    1    6    6    0  503  0.99084133121E+02  0.26972366112E+03  0.37162073245E+03  0.46975577441E+03  0.00000000000E+00 0.  1.
<mgrwt>
<rscale>  0 0.18979128E+04</rscale>
<asrwt>0</asrwt>
<pdfrwt beam="1">  1        2 0.32159914E+00 0.18979128E+04</pdfrwt>
<pdfrwt beam="2">  1       -1 0.66275182E-01 0.18979128E+04</pdfrwt>
<totfact> 0.14639462E+01</totfact>
</mgrwt>
</event>
<event>
12    7  0.1544987E-007  0.1876399E+04  0.7818608E-02  0.8666694E-01
          2   -1    0    0  501    0  0.00000000000E+00  0.00000000000E+00  0.76601151577E+03  0.76601151577E+03  0.00000000000E+00 0. -1.
         -1   -1    0    0    0  501 -0.00000000000E+00 -0.00000000000E+00 -0.11490932055E+04  0.11490932055E+04  0.00000000000E+00 0.  1.
         24    2    1    2    0    0  0.68225118445E+03 -0.23468722013E+03 -0.13543564104E+03  0.73843756159E+03  0.80015308029E+02 0.  0.
        254    2    1    2    0    0 -0.68225118445E+03  0.23468722013E+03 -0.24764604870E+03  0.11766671597E+04  0.89591978955E+03 0.  0.
         23    2    4    4    0    0 -0.19185708119E+03  0.71517544229E+02  0.32770149671E+03  0.39670725877E+03  0.89802446970E+02 0.  0.
         23    2    4    4    0    0 -0.49039410326E+03  0.16316967590E+03 -0.57534754541E+03  0.77995990093E+03  0.10100460094E+03 0.  0.
          4    1    3    3  502    0  0.11060701647E+03 -0.27819679797E+02  0.62434011147E+01  0.11422270673E+03  0.00000000000E+00 0. -1.
         -1    1    3    3    0  502  0.57164416799E+03 -0.20686754033E+03 -0.14167904216E+03  0.62421485485E+03  0.00000000000E+00 0.  1.
         13    1    5    5    0    0 -0.18303457366E+03  0.56490207150E+02  0.23890099974E+03  0.30621313874E+03  0.00000000000E+00 0.  1.
        -13    1    5    5    0    0 -0.88225075302E+01  0.15027337080E+02  0.88800496969E+02  0.90494120034E+02  0.00000000000E+00 0. -1.
          3    1    6    6  503    0 -0.13134323127E+03  0.40235278509E+01 -0.11289352929E+03  0.17324024398E+03  0.00000000000E+00 0. -1.
         -3    1    6    6    0  503 -0.35905087199E+03  0.15914614805E+03 -0.46245401612E+03  0.60671965696E+03  0.00000000000E+00 0.  1.
<mgrwt>
<rscale>  0 0.18763993E+04</rscale>
<asrwt>0</asrwt>
<pdfrwt beam="1">  1        2 0.11784793E+00 0.18763993E+04</pdfrwt>
<pdfrwt beam="2">  1       -1 0.17678357E+00 0.18763993E+04</pdfrwt>
<totfact> 0.85780045E+00</totfact>
</mgrwt>
</event>
<event>
12    7  0.1640756E-007  0.1868636E+04  0.7818608E-02  0.8670628E-01
          2   -1    0    0  501    0  0.00000000000E+00  0.00000000000E+00  0.16487814088E+04  0.16487814088E+04  0.00000000000E+00 0. -1.
         -1   -1    0    0    0  501 -0.00000000000E+00 -0.00000000000E+00 -0.52945178338E+03  0.52945178338E+03  0.00000000000E+00 0.  1.
         24    2    1    2    0    0  0.43360915514E+03 -0.34250344985E+03 -0.10299008823E+03  0.56720176451E+03  0.76061625013E+02 0.  0.
        254    2    1    2    0    0 -0.43360915514E+03  0.34250344985E+03  0.12223197137E+04  0.16110314277E+04  0.89220584284E+03 0.  0.
         23    2    4    4    0    0 -0.40891000739E+03  0.57672523228E+03  0.57446087278E+03  0.91540045327E+03  0.90184853488E+02 0.  0.
         23    2    4    4    0    0 -0.24699147756E+02 -0.23422178243E+03  0.64785884089E+03  0.69563097443E+03  0.93335328748E+02 0.  0.
          4    1    3    3  502    0  0.34084189489E+02 -0.10159085132E+02 -0.20380261416E+02  0.40991389818E+02  0.00000000000E+00 0. -1.
         -1    1    3    3    0  502  0.39952496565E+03 -0.33234436472E+03 -0.82609826818E+02  0.52621037469E+03  0.00000000000E+00 0.  1.
         13    1    5    5    0    0 -0.25443492237E+02  0.96643446911E+01  0.31769687707E+02  0.41834004261E+02  0.00000000000E+00 0. -1.
        -13    1    5    5    0    0 -0.38346651515E+03  0.56706088759E+03  0.54269118507E+03  0.87356644901E+03  0.00000000000E+00 0.  1.
          2    1    6    6  503    0 -0.30299646905E+01  0.44109024305E+00 -0.24612016851E+01  0.39284552133E+01  0.00000000000E+00 0. -1.
         -2    1    6    6    0  503 -0.21669183065E+02 -0.23466287267E+03  0.65032004258E+03  0.69170251921E+03  0.00000000000E+00 0.  1.
<mgrwt>
<rscale>  0 0.18686361E+04</rscale>
<asrwt>0</asrwt>
<pdfrwt beam="1">  1        2 0.25365868E+00 0.18686361E+04</pdfrwt>
<pdfrwt beam="2">  1       -1 0.81454121E-01 0.18686361E+04</pdfrwt>
<totfact> 0.16812479E+01</totfact>
</mgrwt>
</event>
<event>
12    7  0.1544987E-007  0.1484747E+04  0.7818608E-02  0.8894660E-01
          2   -1    0    0  501    0  0.00000000000E+00  0.00000000000E+00  0.14418999129E+04  0.14418999129E+04  0.00000000000E+00 0. -1.
         -1   -1    0    0    0  501 -0.00000000000E+00 -0.00000000000E+00 -0.38221657929E+03  0.38221657929E+03  0.00000000000E+00 0.  1.
         24    2    1    2    0    0 -0.37825915387E+03  0.22194062357E+03  0.52912094290E+03  0.69251998726E+03  0.85307283754E+02 0.  0.
        254    2    1    2    0    0  0.37825915387E+03 -0.22194062357E+03  0.53056239071E+03  0.11315965049E+04  0.89815175314E+03 0.  0.
         23    2    4    4    0    0 -0.12188317976E+03 -0.39243296615E+03  0.39781827308E+03  0.57924917203E+03  0.91711953842E+02 0.  0.
         23    2    4    4    0    0  0.50014233363E+03  0.17049234257E+03  0.13274411763E+03  0.55234733291E+03  0.90865739644E+02 0.  0.
          2    1    3    3  502    0 -0.31299018567E+03  0.18709234727E+03  0.38353972627E+03  0.52921557456E+03  0.00000000000E+00 0. -1.
         -1    1    3    3    0  502 -0.65268968200E+02  0.34848276308E+02  0.14558121663E+03  0.16330441270E+03  0.00000000000E+00 0.  1.
         13    1    5    5    0    0 -0.10743485447E+03 -0.24055962877E+03  0.29367537126E+03  0.39453315024E+03  0.00000000000E+00 0. -1.
        -13    1    5    5    0    0 -0.14448325287E+02 -0.15187333737E+03  0.10414290182E+03  0.18471602179E+03  0.00000000000E+00 0.  1.
          3    1    6    6  503    0  0.47400011047E+03  0.13982722836E+03  0.11079595498E+03  0.50646174797E+03  0.00000000000E+00 0. -1.
         -3    1    6    6    0  503  0.26142223161E+02  0.30665114209E+02  0.21948162660E+02  0.45885584941E+02  0.00000000000E+00 0.  1.
<mgrwt>
<rscale>  0 0.14847465E+04</rscale>
<asrwt>0</asrwt>
<pdfrwt beam="1">  1        2 0.22183075E+00 0.14847465E+04</pdfrwt>
<pdfrwt beam="2">  1       -1 0.58802551E-01 0.14847465E+04</pdfrwt>
<totfact> 0.44246256E+01</totfact>
</mgrwt>
</event>
<event>
12    7  0.1544987E-007  0.2981147E+04  0.7818608E-02  0.8249135E-01
          2   -1    0    0  501    0  0.00000000000E+00  0.00000000000E+00  0.36189184819E+04  0.36189184819E+04  0.00000000000E+00 0. -1.
         -1   -1    0    0    0  501 -0.00000000000E+00 -0.00000000000E+00 -0.61394284614E+03  0.61394284614E+03  0.00000000000E+00 0.  1.
         24    2    1    2    0    0 -0.43345086270E+03  0.16183656117E+02 -0.45281206576E+03  0.63196727402E+03  0.78754729583E+02 0.  0.
        254    2    1    2    0    0  0.43345086270E+03 -0.16183656117E+02  0.34577877015E+04  0.36008940540E+04  0.90664250858E+03 0.  0.
         23    2    4    4    0    0  0.68150817526E+03  0.93216627420E+02  0.27808260516E+04  0.28660987078E+04  0.91572599809E+02 0.  0.
         23    2    4    4    0    0 -0.24805731256E+03 -0.10940028354E+03  0.67696164997E+03  0.73479534627E+03  0.90256706148E+02 0.  0.
          4    1    3    3  502    0 -0.16174920419E+03  0.24421522276E+02 -0.12354754859E+03  0.20499564037E+03  0.00000000000E+00 0. -1.
         -3    1    3    3    0  502 -0.27170165851E+03 -0.82378661588E+01 -0.32926451717E+03  0.42697163365E+03  0.00000000000E+00 0.  1.
         13    1    5    5    0    0  0.40314931238E+03  0.12594064473E+02  0.16845578722E+04  0.17321729715E+04  0.00000000000E+00 0. -1.
        -13    1    5    5    0    0  0.27835886289E+03  0.80622562947E+02  0.10962681794E+04  0.11339257362E+04  0.00000000000E+00 0.  1.
          1    1    6    6  503    0 -0.23458513448E+03 -0.98127415544E+02  0.54187541266E+03  0.59857174829E+03  0.00000000000E+00 0. -1.
         -1    1    6    6    0  503 -0.13472178082E+02 -0.11272867994E+02  0.13508623731E+03  0.13622359798E+03  0.00000000000E+00 0.  1.
<mgrwt>
<rscale>  0 0.29811468E+04</rscale>
<asrwt>0</asrwt>
<pdfrwt beam="1">  1        2 0.55675668E+00 0.29811468E+04</pdfrwt>
<pdfrwt beam="2">  1       -1 0.94452747E-01 0.29811468E+04</pdfrwt>
<totfact> 0.70637579E-01</totfact>
</mgrwt>
</event>
<event>
12    7  0.1544987E-007  0.1750208E+04  0.7818608E-02  0.8733236E-01
         -1   -1    0    0    0  501 -0.00000000000E+00  0.00000000000E+00  0.69534337327E+03  0.69534337327E+03  0.00000000000E+00 0.  1.
          2   -1    0    0  501    0  0.00000000000E+00 -0.00000000000E+00 -0.11013368527E+04  0.11013368527E+04  0.00000000000E+00 0. -1.
         24    2    1    2    0    0  0.31732136535E+03  0.55730674280E+03 -0.33673769039E+03  0.72858940064E+03  0.78527626406E+02 0.  0.
        254    2    1    2    0    0 -0.31732136535E+03 -0.55730674280E+03 -0.69255789006E+02  0.10680908253E+04  0.85131544819E+03 0.  0.
         23    2    4    4    0    0 -0.25397174646E+03 -0.68880116476E+03  0.18347457637E+03  0.76244651907E+03  0.93343889462E+02 0.  0.
         23    2    4    4    0    0 -0.63349618881E+02  0.13149442195E+03 -0.25273036538E+03  0.30564430624E+03  0.90784619472E+02 0.  0.
          2    1    3    3  502    0  0.19942932342E+03  0.37666717719E+03 -0.18369092763E+03  0.46410405547E+03  0.00000000000E+00 0. -1.
         -1    1    3    3    0  502  0.11789204192E+03  0.18063956562E+03 -0.15304676276E+03  0.26448534516E+03  0.00000000000E+00 0.  1.
         13    1    5    5    0    0 -0.10912941526E+03 -0.17749886822E+03  0.42667694019E+02  0.21268664652E+03  0.00000000000E+00 0. -1.
        -13    1    5    5    0    0 -0.14484233120E+03 -0.51130229654E+03  0.14080688235E+03  0.54975987255E+03  0.00000000000E+00 0.  1.
          3    1    6    6  503    0  0.48394041893E+01 -0.61559707554E+01 -0.53495123518E+02  0.54065183335E+02  0.00000000000E+00 0. -1.
         -3    1    6    6    0  503 -0.68189023071E+02  0.13765039271E+03 -0.19923524186E+03  0.25157912290E+03  0.00000000000E+00 0.  1.
<mgrwt>
<rscale>  0 0.17502083E+04</rscale>
<asrwt>0</asrwt>
<pdfrwt beam="1">  1        2 0.16943644E+00 0.17502083E+04</pdfrwt>
<pdfrwt beam="2">  1       -1 0.10697590E+00 0.17502083E+04</pdfrwt>
<totfact> 0.19161341E+01</totfact>
</mgrwt>
</event>
<event>
12    7  0.1544987E-007  0.2235395E+04  0.7818608E-02  0.8503839E-01
         -1   -1    0    0    0  501 -0.00000000000E+00  0.00000000000E+00  0.34737729334E+03  0.34737729334E+03  0.00000000000E+00 0.  1.
          2   -1    0    0  501    0  0.00000000000E+00 -0.00000000000E+00 -0.35962271789E+04  0.35962271789E+04  0.00000000000E+00 0. -1.
         24    2    1    2    0    0  0.91543487298E+02  0.71052946501E+03 -0.29532053639E+03  0.77893216498E+03  0.79301751025E+02 0.  0.
        254    2    1    2    0    0 -0.91543487298E+02 -0.71052946501E+03 -0.29535293492E+04  0.31646723073E+04  0.88237342729E+03 0.  0.
         23    2    4    4    0    0 -0.23699745736E+03 -0.73705976603E+03 -0.28667457045E+04  0.29709030940E+04  0.92786671064E+02 0.  0.
         23    2    4    4    0    0  0.14545397006E+03  0.26530301019E+02 -0.86783644709E+02  0.19376921327E+03  0.90301676303E+02 0.  0.
          2    1    3    3  502    0  0.20947540804E+02  0.13849751089E+03 -0.92760621250E+02  0.16800265725E+03  0.00000000000E+00 0. -1.
         -1    1    3    3    0  502  0.70595946494E+02  0.57203195412E+03 -0.20255991514E+03  0.61092950773E+03  0.00000000000E+00 0.  1.
         13    1    5    5    0    0  0.41419289258E+01 -0.52277312011E+02 -0.15372391167E+03  0.16242263988E+03  0.00000000000E+00 0.  1.
        -13    1    5    5    0    0 -0.24113938628E+03 -0.68478245402E+03 -0.27130217928E+04  0.28084804541E+04  0.00000000000E+00 0. -1.
          1    1    6    6  503    0  0.15803495247E+03  0.26412820909E+02 -0.83888149719E+02  0.18085879844E+03  0.00000000000E+00 0. -1.
         -1    1    6    6    0  503 -0.12580982405E+02  0.11748010993E+00 -0.28954949901E+01  0.12910414830E+02  0.00000000000E+00 0.  1.
<mgrwt>
<rscale>  0 0.22353950E+04</rscale>
<asrwt>0</asrwt>
<pdfrwt beam="1">  1        2 0.55326571E+00 0.22353950E+04</pdfrwt>
<pdfrwt beam="2">  1       -1 0.53442661E-01 0.22353950E+04</pdfrwt>
<totfact> 0.25542799E+00</totfact>
</mgrwt>
</event>
<event>
12    7  0.1544987E-007  0.2797916E+04  0.7818608E-02  0.8303916E-01
         -1   -1    0    0    0  501 -0.00000000000E+00  0.00000000000E+00  0.14083182166E+04  0.14083182166E+04  0.00000000000E+00 0.  1.
          2   -1    0    0  501    0  0.00000000000E+00 -0.00000000000E+00 -0.13896601607E+04  0.13896601607E+04  0.00000000000E+00 0. -1.
         24    2    1    2    0    0  0.48092738902E+03  0.85887042662E+03 -0.76571017306E+03  0.12498843741E+04  0.83362558794E+02 0.  0.
        254    2    1    2    0    0 -0.48092738902E+03 -0.85887042662E+03  0.78436822893E+03  0.15480940032E+04  0.90133898220E+03 0.  0.
         23    2    4    4    0    0 -0.69202435535E+03 -0.63197560631E+03  0.34529576239E+03  0.10030518571E+04  0.92698377345E+02 0.  0.
         23    2    4    4    0    0  0.21109696632E+03 -0.22689482031E+03  0.43907246655E+03  0.54504214605E+03  0.90791637390E+02 0.  0.
          4    1    3    3  502    0  0.48375675550E+03  0.85208449353E+03 -0.76359430315E+03  0.12422338115E+04  0.00000000000E+00 0. -1.
         -3    1    3    3    0  502 -0.28293664735E+01  0.67859330831E+01 -0.21158699148E+01  0.76505625902E+01  0.00000000000E+00 0.  1.
         13    1    5    5    0    0 -0.19949493696E+03 -0.18318005500E+03  0.14528956478E+03  0.30734706775E+03  0.00000000000E+00 0.  1.
        -13    1    5    5    0    0 -0.49252941838E+03 -0.44879555131E+03  0.20000619761E+03  0.69570478936E+03  0.00000000000E+00 0. -1.
          1    1    6    6  503    0 -0.53890968538E+01 -0.25534219782E+02  0.49780956760E+02  0.56206604600E+02  0.00000000000E+00 0. -1.
         -1    1    6    6    0  503  0.21648606318E+03 -0.20136060052E+03  0.38929150979E+03  0.48883554145E+03  0.00000000000E+00 0.  1.
<mgrwt>
<rscale>  0 0.27979162E+04</rscale>
<asrwt>0</asrwt>
<pdfrwt beam="1">  1        2 0.21379387E+00 0.27979162E+04</pdfrwt>
<pdfrwt beam="2">  1       -1 0.21666434E+00 0.27979162E+04</pdfrwt>
<totfact> 0.16851300E+00</totfact>
</mgrwt>
</event>
<event>
12    7  0.1544987E-007  0.1520090E+04  0.7818608E-02  0.8871202E-01
         -1   -1    0    0    0  501 -0.00000000000E+00  0.00000000000E+00  0.28144189870E+03  0.28144189870E+03  0.00000000000E+00 0.  1.
          2   -1    0    0  501    0  0.00000000000E+00 -0.00000000000E+00 -0.20525306810E+04  0.20525306810E+04  0.00000000000E+00 0. -1.
         24    2    1    2    0    0  0.39518436557E+03 -0.43215025114E+02 -0.10316791048E+04  0.11079842410E+04  0.72312391072E+02 0.  0.
        254    2    1    2    0    0 -0.39518436557E+03  0.43215025114E+02 -0.73940967746E+03  0.12259883386E+04  0.89346657137E+03 0.  0.
         23    2    4    4    0    0 -0.13388804760E+03 -0.37686560320E+03 -0.55511123256E+03  0.69028816961E+03  0.91627421802E+02 0.  0.
         23    2    4    4    0    0 -0.26129631797E+03  0.42008062831E+03 -0.18429844490E+03  0.53570016902E+03  0.90913443602E+02 0.  0.
          2    1    3    3  502    0  0.30949038306E+03 -0.51482746478E+01 -0.76202379564E+03  0.82249077020E+03  0.00000000000E+00 0. -1.
         -1    1    3    3    0  502  0.85693982508E+02 -0.38066750466E+02 -0.26965530917E+03  0.28549347084E+03  0.00000000000E+00 0.  1.
         13    1    5    5    0    0 -0.11012160845E+03 -0.18388119364E+03 -0.26124186286E+03  0.33791474211E+03  0.00000000000E+00 0. -1.
        -13    1    5    5    0    0 -0.23766439144E+02 -0.19298440956E+03 -0.29386936970E+03  0.35237342751E+03  0.00000000000E+00 0.  1.
          4    1    6    6  503    0 -0.13823448390E+03  0.25096397913E+03 -0.15113714217E+03  0.32393537489E+03  0.00000000000E+00 0. -1.
         -4    1    6    6    0  503 -0.12306183407E+03  0.16911664919E+03 -0.33161302727E+02  0.21176479413E+03  0.00000000000E+00 0.  1.
<mgrwt>
<rscale>  0 0.15200896E+04</rscale>
<asrwt>0</asrwt>
<pdfrwt beam="1">  1        2 0.31577394E+00 0.15200896E+04</pdfrwt>
<pdfrwt beam="2">  1       -1 0.43298755E-01 0.15200896E+04</pdfrwt>
<totfact> 0.36133601E+01</totfact>
</mgrwt>
</event>
<event>
12    7  0.1544987E-007  0.2424912E+04  0.7818608E-02  0.8430235E-01
          2   -1    0    0  501    0  0.00000000000E+00  0.00000000000E+00  0.22103247326E+04  0.22103247326E+04  0.00000000000E+00 0. -1.
         -1   -1    0    0    0  501 -0.00000000000E+00 -0.00000000000E+00 -0.66508326895E+03  0.66508326895E+03  0.00000000000E+00 0.  1.
         24    2    1    2    0    0 -0.22835328412E+03 -0.93007515894E+03  0.10815855409E+03  0.96735740168E+03  0.83048456424E+02 0.  0.
        254    2    1    2    0    0  0.22835328412E+03  0.93007515894E+03  0.14370829096E+04  0.19080505999E+04  0.81133518294E+03 0.  0.
         23    2    4    4    0    0  0.39686816055E+03  0.93560205393E+03  0.13642813027E+04  0.17037095677E+04  0.92234906559E+02 0.  0.
         23    2    4    4    0    0 -0.16851487643E+03 -0.55268949896E+01  0.72801606938E+02  0.20434103224E+03  0.89595610031E+02 0.  0.
          2    1    3    3  502    0 -0.57367842893E+02 -0.12457765992E+03  0.28370680708E+02  0.14005555424E+03  0.00000000000E+00 0. -1.
         -1    1    3    3    0  502 -0.17098544122E+03 -0.80549749902E+03  0.79787873379E+02  0.82730184744E+03  0.00000000000E+00 0.  1.
         13    1    5    5    0    0  0.22059888624E+03  0.47664616420E+03  0.77606664242E+03  0.93708850593E+03  0.00000000000E+00 0. -1.
        -13    1    5    5    0    0  0.17626927431E+03  0.45895588973E+03  0.58821466023E+03  0.76662106173E+03  0.00000000000E+00 0.  1.
          2    1    6    6  503    0 -0.86193130466E+02  0.38626638745E+02  0.18363234277E+02  0.96221002559E+02  0.00000000000E+00 0. -1.
         -2    1    6    6    0  503 -0.82321745963E+02 -0.44153533735E+02  0.54438372661E+02  0.10812002968E+03  0.00000000000E+00 0.  1.
<mgrwt>
<rscale>  0 0.24249124E+04</rscale>
<asrwt>0</asrwt>
<pdfrwt beam="1">  1        2 0.34004996E+00 0.24249124E+04</pdfrwt>
<pdfrwt beam="2">  1       -1 0.10232050E+00 0.24249124E+04</pdfrwt>
<totfact> 0.47022405E+00</totfact>
</mgrwt>
</event>
<event>
12    7  0.1544987E-007  0.1398990E+04  0.7818608E-02  0.8954550E-01
         -1   -1    0    0    0  501 -0.00000000000E+00  0.00000000000E+00  0.18643064220E+03  0.18643064220E+03  0.00000000000E+00 0.  1.
          2   -1    0    0  501    0  0.00000000000E+00 -0.00000000000E+00 -0.26245315849E+04  0.26245315849E+04  0.00000000000E+00 0. -1.
         24    2    1    2    0    0 -0.27671069777E+03  0.23599111895E+02 -0.13280823033E+03  0.31828009338E+03  0.80860765859E+02 0.  0.
        254    2    1    2    0    0  0.27671069777E+03 -0.23599111895E+02 -0.23052927124E+04  0.24926821337E+04  0.90662230379E+03 0.  0.
         23    2    4    4    0    0 -0.18446928953E+03  0.27880206406E+03 -0.55104868791E+03  0.65154184756E+03  0.95355193785E+02 0.  0.
         23    2    4    4    0    0  0.46117998729E+03 -0.30240117595E+03 -0.17542440245E+04  0.18411402862E+04  0.91060441764E+02 0.  0.
          2    1    3    3  502    0 -0.21460430064E+02  0.12259612246E+02 -0.38858635207E+02  0.46052596898E+02  0.00000000000E+00 0. -1.
         -1    1    3    3    0  502 -0.25525026770E+03  0.11339499650E+02 -0.93949595124E+02  0.27222749648E+03  0.00000000000E+00 0.  1.
         13    1    5    5    0    0 -0.17202638605E+03  0.24993091314E+03 -0.42862302609E+03  0.52514401581E+03  0.00000000000E+00 0.  1.
        -13    1    5    5    0    0 -0.12442903480E+02  0.28871150912E+02 -0.12242566181E+03  0.12639783175E+03  0.00000000000E+00 0. -1.
          1    1    6    6  503    0  0.13734775957E+02 -0.32505182469E+01 -0.15354554449E+02  0.20855989111E+02  0.00000000000E+00 0. -1.
         -1    1    6    6    0  503  0.44744521134E+03 -0.29915065770E+03 -0.17388894700E+04  0.18202842971E+04  0.00000000000E+00 0.  1.
<mgrwt>
<rscale>  0 0.13989898E+04</rscale>
<asrwt>0</asrwt>
<pdfrwt beam="1">  1        2 0.40377408E+00 0.13989898E+04</pdfrwt>
<pdfrwt beam="2">  1       -1 0.28681638E-01 0.13989898E+04</pdfrwt>
<totfact> 0.36201507E+01</totfact>
</mgrwt>
</event>
<event>
12    7  0.1544987E-007  0.1515682E+04  0.7818608E-02  0.8874091E-01
          4   -1    0    0  501    0  0.00000000000E+00  0.00000000000E+00  0.98809687164E+03  0.98809687164E+03  0.00000000000E+00 0. -1.
         -3   -1    0    0    0  501 -0.00000000000E+00 -0.00000000000E+00 -0.58124187587E+03  0.58124187587E+03  0.00000000000E+00 0.  1.
         24    2    1    2    0    0  0.38915730057E+03  0.10394454627E+03 -0.15748845696E+03  0.43992483889E+03  0.80519416972E+02 0.  0.
        254    2    1    2    0    0 -0.38915730057E+03 -0.10394454627E+03  0.56434345273E+03  0.11294139086E+04  0.89154044835E+03 0.  0.
         23    2    4    4    0    0  0.92564822732E+02  0.67461845937E+02 -0.17310985621E+03  0.22743239962E+03  0.92946904290E+02 0.  0.
         23    2    4    4    0    0 -0.48172212330E+03 -0.17140639221E+03  0.73745330894E+03  0.90198150899E+03  0.91087344521E+02 0.  0.
          4    1    3    3  502    0  0.10105030806E+03 -0.27251145197E+01 -0.18665053474E+02  0.10279579383E+03  0.00000000000E+00 0. -1.
         -3    1    3    3    0  502  0.28810699251E+03  0.10666966079E+03 -0.13882340349E+03  0.33712904506E+03  0.00000000000E+00 0.  1.
         13    1    5    5    0    0  0.95468306912E+02  0.85491590255E+02 -0.15977724503E+03  0.20482133106E+03  0.00000000000E+00 0. -1.
        -13    1    5    5    0    0 -0.29034841799E+01 -0.18029744318E+02 -0.13332611176E+02  0.22611068558E+02  0.00000000000E+00 0.  1.
          3    1    6    6  503    0 -0.34345999330E+03 -0.78188671407E+02  0.51601097202E+03  0.62477640686E+03  0.00000000000E+00 0. -1.
         -3    1    6    6    0  503 -0.13826213000E+03 -0.93217720800E+02  0.22144233693E+03  0.27720510213E+03  0.00000000000E+00 0.  1.
<mgrwt>
<rscale>  0 0.15156824E+04</rscale>
<asrwt>0</asrwt>
<pdfrwt beam="1">  1        4 0.15201490E+00 0.15156824E+04</pdfrwt>
<pdfrwt beam="2">  1       -3 0.89421827E-01 0.15156824E+04</pdfrwt>
<totfact> 0.71743563E-01</totfact>
</mgrwt>
</event>
<event>
12    7  0.1544987E-007  0.1934402E+04  0.7818608E-02  0.8637919E-01
          2   -1    0    0  501    0  0.00000000000E+00  0.00000000000E+00  0.11373437738E+04  0.11373437738E+04  0.00000000000E+00 0. -1.
         -1   -1    0    0    0  501 -0.00000000000E+00 -0.00000000000E+00 -0.82251138098E+03  0.82251138098E+03  0.00000000000E+00 0.  1.
         24    2    1    2    0    0 -0.21196316800E+03  0.99258326027E+02  0.85012478333E+03  0.88552782977E+03  0.81650414431E+02 0.  0.
        254    2    1    2    0    0  0.21196316800E+03 -0.99258326027E+02 -0.53529239052E+03  0.10743273250E+04  0.90158785375E+03 0.  0.
         23    2    4    4    0    0 -0.26889049957E+03 -0.25377590866E+03 -0.81024988925E+02  0.38941163697E+03  0.91498970505E+02 0.  0.
         23    2    4    4    0    0  0.48085366756E+03  0.15451758263E+03 -0.45426740160E+03  0.68491568803E+03  0.87491111591E+02 0.  0.
          2    1    3    3  502    0 -0.13786069575E+03  0.94779204012E+02  0.48825877629E+03  0.51612527701E+03  0.00000000000E+00 0. -1.
         -1    1    3    3    0  502 -0.74102472249E+02  0.44791220154E+01  0.36186600704E+03  0.36940255275E+03  0.00000000000E+00 0.  1.
         13    1    5    5    0    0 -0.17275268512E+03 -0.19922770706E+03 -0.23330026753E+02  0.26472525310E+03  0.00000000000E+00 0. -1.
        -13    1    5    5    0    0 -0.96137814441E+02 -0.54548201599E+02 -0.57694962172E+02  0.12468638387E+03  0.00000000000E+00 0.  1.
          2    1    6    6  503    0  0.10301350735E+03  0.63798899833E+02 -0.14003509313E+03  0.18518074852E+03  0.00000000000E+00 0. -1.
         -2    1    6    6    0  503  0.37784016022E+03  0.90718682800E+02 -0.31423230847E+03  0.49973493951E+03  0.00000000000E+00 0.  1.
<mgrwt>
<rscale>  0 0.19344024E+04</rscale>
<asrwt>0</asrwt>
<pdfrwt beam="1">  1        2 0.17497597E+00 0.19344024E+04</pdfrwt>
<pdfrwt beam="2">  1       -1 0.12654021E+00 0.19344024E+04</pdfrwt>
<totfact> 0.11948038E+01</totfact>
</mgrwt>
</event>
<event>
12    7  0.1544987E-007  0.1632895E+04  0.7818608E-02  0.8800590E-01
          2   -1    0    0  501    0  0.00000000000E+00  0.00000000000E+00  0.86022233746E+03  0.86022233746E+03  0.00000000000E+00 0. -1.
         -1   -1    0    0    0  501 -0.00000000000E+00 -0.00000000000E+00 -0.77490010059E+03  0.77490010059E+03  0.00000000000E+00 0.  1.
         24    2    1    2    0    0  0.51843615781E+03 -0.84487810603E+02 -0.18225318804E+03  0.56222154717E+03  0.83442217601E+02 0.  0.
        254    2    1    2    0    0 -0.51843615781E+03  0.84487810603E+02  0.26757542491E+03  0.10729008909E+04  0.89644044631E+03 0.  0.
         23    2    4    4    0    0  0.81064387576E+02 -0.27635867018E+03 -0.31218783740E+02  0.30677940300E+03  0.10096256797E+03 0.  0.
         23    2    4    4    0    0 -0.59950054539E+03  0.36084648078E+03  0.29879420865E+03  0.76612148789E+03  0.89738890504E+02 0.  0.
          4    1    3    3  502    0  0.13920819685E+03 -0.57559614032E+02 -0.36023319481E+02  0.15488612199E+03  0.00000000000E+00 0. -1.
         -3    1    3    3    0  502  0.37922796096E+03 -0.26928196571E+02 -0.14622986856E+03  0.40733542518E+03  0.00000000000E+00 0.  1.
         13    1    5    5    0    0 -0.17470893047E+02 -0.47565386109E+02 -0.27474894537E+02  0.57641720042E+02  0.00000000000E+00 0.  1.
        -13    1    5    5    0    0  0.98535280623E+02 -0.22879328407E+03 -0.37438892029E+01  0.24913768295E+03  0.00000000000E+00 0. -1.
          4    1    6    6  503    0 -0.23542415782E+03  0.12726691576E+03  0.69296235586E+02  0.27644777119E+03  0.00000000000E+00 0. -1.
         -4    1    6    6    0  503 -0.36407638757E+03  0.23357956502E+03  0.22949797306E+03  0.48967371669E+03  0.00000000000E+00 0.  1.
<mgrwt>
<rscale>  0 0.16328948E+04</rscale>
<asrwt>0</asrwt>
<pdfrwt beam="1">  1        2 0.13234190E+00 0.16328948E+04</pdfrwt>
<pdfrwt beam="2">  1       -1 0.11921540E+00 0.16328948E+04</pdfrwt>
<totfact> 0.21450385E+01</totfact>
</mgrwt>
</event>
<event>
12    7  0.1544987E-007  0.1594439E+04  0.7818608E-02  0.8823972E-01
          2   -1    0    0  501    0  0.00000000000E+00  0.00000000000E+00  0.28312493366E+04  0.28312493366E+04  0.00000000000E+00 0. -1.
         -1   -1    0    0    0  501 -0.00000000000E+00 -0.00000000000E+00 -0.22447990761E+03  0.22447990761E+03  0.00000000000E+00 0.  1.
         24    2    1    2    0    0 -0.13605310863E+02  0.54087042316E+03  0.87765132861E+03  0.10338348174E+04  0.76267003795E+02 0.  0.
        254    2    1    2    0    0  0.13605310863E+02 -0.54087042316E+03  0.17291181004E+04  0.20218944269E+04  0.89748635038E+03 0.  0.
         23    2    4    4    0    0 -0.17972785835E+03 -0.73323414624E+03  0.12392478524E+04  0.14538641128E+04  0.89728493561E+02 0.  0.
         23    2    4    4    0    0  0.19333316921E+03  0.19236372308E+03  0.48987024801E+03  0.56803031406E+03  0.91126623636E+02 0.  0.
          4    1    3    3  502    0 -0.14609704317E+02  0.46304250213E+03  0.79621865808E+03  0.92118725225E+03  0.00000000000E+00 0. -1.
         -3    1    3    3    0  502  0.10043934541E+01  0.77827921025E+02  0.81432670536E+02  0.11264756512E+03  0.00000000000E+00 0.  1.
         13    1    5    5    0    0  0.22156295583E+01 -0.26180567103E+02  0.21160963158E+02  0.33735996650E+02  0.00000000000E+00 0.  1.
        -13    1    5    5    0    0 -0.18194348790E+03 -0.70705357914E+03  0.12180868892E+04  0.14201281161E+04  0.00000000000E+00 0. -1.
          1    1    6    6  503    0  0.18035088550E+03  0.20241340825E+03  0.45998263266E+03  0.53393038131E+03  0.00000000000E+00 0. -1.
         -1    1    6    6    0  503  0.12982283712E+02 -0.10049685168E+02  0.29887615348E+02  0.34099932749E+02  0.00000000000E+00 0.  1.
<mgrwt>
<rscale>  0 0.15944386E+04</rscale>
<asrwt>0</asrwt>
<pdfrwt beam="1">  1        2 0.43557679E+00 0.15944386E+04</pdfrwt>
<pdfrwt beam="2">  1       -1 0.34535373E-01 0.15944386E+04</pdfrwt>
<totfact> 0.19306373E+01</totfact>
</mgrwt>
</event>
<event>
12    7  0.1544987E-007  0.2019543E+04  0.7818608E-02  0.8597538E-01
          2   -1    0    0  501    0  0.00000000000E+00  0.00000000000E+00  0.24244674423E+04  0.24244674423E+04  0.00000000000E+00 0. -1.
         -1   -1    0    0    0  501 -0.00000000000E+00 -0.00000000000E+00 -0.42056187024E+03  0.42056187024E+03  0.00000000000E+00 0.  1.
         24    2    1    2    0    0  0.87487857814E+02 -0.29500402679E+03 -0.24989469209E+03  0.40601387112E+03  0.87854455343E+02 0.  0.
        254    2    1    2    0    0 -0.87487857814E+02  0.29500402679E+03  0.22538002641E+04  0.24390154414E+04  0.88005635714E+03 0.  0.
         23    2    4    4    0    0 -0.16783352541E+03  0.57404374222E+03  0.12297086513E+04  0.13706682973E+04  0.94095185384E+02 0.  0.
         23    2    4    4    0    0  0.80345667595E+02 -0.27903971543E+03  0.10240916128E+04  0.10683471441E+04  0.91013184543E+02 0.  0.
          4    1    3    3  502    0  0.24876269515E+02 -0.18625951083E+03 -0.10857651931E+03  0.21702602310E+03  0.00000000000E+00 0. -1.
         -3    1    3    3    0  502  0.62611588299E+02 -0.10874451596E+03 -0.14131817278E+03  0.18898784802E+03  0.00000000000E+00 0.  1.
         13    1    5    5    0    0 -0.17879807358E+02  0.28967386183E+02  0.34307572143E+02  0.48330181872E+02  0.00000000000E+00 0. -1.
        -13    1    5    5    0    0 -0.14995371805E+03  0.54507635604E+03  0.11954010792E+04  0.13223381155E+04  0.00000000000E+00 0.  1.
          4    1    6    6  503    0  0.57216534026E+02 -0.23869402433E+03  0.71927518351E+03  0.76000352540E+03  0.00000000000E+00 0.  1.
         -4    1    6    6    0  503  0.23129133569E+02 -0.40345691106E+02  0.30481642929E+03  0.30834361867E+03  0.00000000000E+00 0. -1.
<mgrwt>
<rscale>  0 0.20195431E+04</rscale>
<asrwt>0</asrwt>
<pdfrwt beam="1">  1        2 0.37299498E+00 0.20195431E+04</pdfrwt>
<pdfrwt beam="2">  1       -1 0.64701827E-01 0.20195431E+04</pdfrwt>
<totfact> 0.98468103E+00</totfact>
</mgrwt>
</event>
<event>
12    7  0.1544987E-007  0.1670300E+04  0.7818608E-02  0.8778487E-01
          2   -1    0    0  501    0  0.00000000000E+00  0.00000000000E+00  0.27903478652E+04  0.27903478652E+04  0.00000000000E+00 0. -1.
         -1   -1    0    0    0  501 -0.00000000000E+00 -0.00000000000E+00 -0.24996015027E+03  0.24996015027E+03  0.00000000000E+00 0.  1.
         24    2    1    2    0    0  0.20244906781E+03  0.51963052461E+03  0.55752663327E+03  0.79238668668E+03  0.77712336570E+02 0.  0.
        254    2    1    2    0    0 -0.20244906781E+03 -0.51963052461E+03  0.19828610817E+04  0.22479213288E+04  0.90022815117E+03 0.  0.
         23    2    4    4    0    0  0.11834734933E+03 -0.47699847971E+03  0.17932443189E+04  0.18615871820E+04  0.90818522812E+02 0.  0.
         23    2    4    4    0    0 -0.32079641714E+03 -0.42632044903E+02  0.18961676276E+03  0.38633414682E+03  0.92583604289E+02 0.  0.
          2    1    3    3  502    0  0.66515812317E+02  0.88096633361E+02  0.10031982474E+03  0.14916245282E+03  0.00000000000E+00 0. -1.
         -3    1    3    3    0  502  0.13593325549E+03  0.43153389125E+03  0.45720680854E+03  0.64322423386E+03  0.00000000000E+00 0.  1.
         13    1    5    5    0    0  0.12573451283E+03 -0.40068013708E+03  0.15845365606E+04  0.16392406327E+04  0.00000000000E+00 0. -1.
        -13    1    5    5    0    0 -0.73871635017E+01 -0.76318342630E+02  0.20870775830E+03  0.22234654929E+03  0.00000000000E+00 0.  1.
          3    1    6    6  503    0 -0.32681649360E+03 -0.45273369120E+02  0.18709472536E+03  0.37929294048E+03  0.00000000000E+00 0. -1.
         -3    1    6    6    0  503  0.60200764588E+01  0.26413242172E+01  0.25220373955E+01  0.70412063465E+01  0.00000000000E+00 0.  1.
<mgrwt>
<rscale>  0 0.16703003E+04</rscale>
<asrwt>0</asrwt>
<pdfrwt beam="1">  1        2 0.42928426E+00 0.16703003E+04</pdfrwt>
<pdfrwt beam="2">  1       -1 0.38455410E-01 0.16703003E+04</pdfrwt>
<totfact> 0.16718444E+01</totfact>
</mgrwt>
</event>
<event>
12    7  0.1544987E-007  0.1541619E+04  0.7818608E-02  0.8857239E-01
          2   -1    0    0  501    0  0.00000000000E+00  0.00000000000E+00  0.20108576524E+04  0.20108576524E+04  0.00000000000E+00 0. -1.
         -1   -1    0    0    0  501 -0.00000000000E+00 -0.00000000000E+00 -0.29546961628E+03  0.29546961628E+03  0.00000000000E+00 0.  1.
         24    2    1    2    0    0  0.40535977296E+03 -0.28539722835E+03  0.38613958999E+03  0.63371143665E+03  0.81965105326E+02 0.  0.
        254    2    1    2    0    0 -0.40535977296E+03  0.28539722835E+03  0.13292484461E+04  0.16726158320E+04  0.88598767855E+03 0.  0.
         23    2    4    4    0    0 -0.13475937042E+02 -0.21084662749E+03  0.39764859153E+02  0.23353886343E+03  0.91220915925E+02 0.  0.
         23    2    4    4    0    0 -0.39188383592E+03  0.49624385584E+03  0.12894835870E+04  0.14390769686E+04  0.91343829422E+02 0.  0.
          4    1    3    3  502    0  0.36667720920E+03 -0.23980874775E+03  0.30909893441E+03  0.53619265427E+03  0.00000000000E+00 0. -1.
         -3    1    3    3    0  502  0.38682563762E+02 -0.45588480602E+02  0.77040655587E+02  0.97518782376E+02  0.00000000000E+00 0.  1.
         13    1    5    5    0    0 -0.18168782859E+02 -0.19923510620E+03  0.60766199600E+02  0.20908673613E+03  0.00000000000E+00 0. -1.
        -13    1    5    5    0    0  0.46928458176E+01 -0.11611521296E+02 -0.21001340447E+02  0.24452127295E+02  0.00000000000E+00 0.  1.
          2    1    6    6  503    0 -0.23816623167E+03  0.36527536878E+03  0.91578971224E+03  0.10143076683E+04  0.00000000000E+00 0. -1.
         -2    1    6    6    0  503 -0.15371760425E+03  0.13096848706E+03  0.37369387474E+03  0.42476930030E+03  0.00000000000E+00 0.  1.
<mgrwt>
<rscale>  0 0.15416191E+04</rscale>
<asrwt>0</asrwt>
<pdfrwt beam="1">  1        2 0.30936271E+00 0.15416191E+04</pdfrwt>
<pdfrwt beam="2">  1       -1 0.45456865E-01 0.15416191E+04</pdfrwt>
<totfact> 0.34750724E+01</totfact>
</mgrwt>
</event>
<event>
12    7  0.1544987E-007  0.1411846E+04  0.7818608E-02  0.8945288E-01
         -1   -1    0    0    0  501 -0.00000000000E+00  0.00000000000E+00  0.17583202935E+03  0.17583202935E+03  0.00000000000E+00 0.  1.
          2   -1    0    0  501    0  0.00000000000E+00 -0.00000000000E+00 -0.28341093981E+04  0.28341093981E+04  0.00000000000E+00 0. -1.
         24    2    1    2    0    0 -0.33207537684E+03 -0.23964052744E+03 -0.90536146487E+03  0.99690853386E+03  0.80284522193E+02 0.  0.
        254    2    1    2    0    0  0.33207537684E+03  0.23964052744E+03 -0.17529159039E+04  0.20130328936E+04  0.90104696122E+03 0.  0.
         23    2    4    4    0    0  0.36611928510E+03 -0.27061051401E+03 -0.93514584016E+03  0.10441379064E+04  0.91939349703E+02 0.  0.
         23    2    4    4    0    0 -0.34043908266E+02  0.51025104146E+03 -0.81777006373E+03  0.96889498719E+03  0.92165644737E+02 0.  0.
          4    1    3    3  502    0 -0.78668772090E+02 -0.85161171369E+02 -0.32512919509E+03  0.34518139334E+03  0.00000000000E+00 0. -1.
         -3    1    3    3    0  502 -0.25340660475E+03 -0.15447935608E+03 -0.58023226978E+03  0.65172714051E+03  0.00000000000E+00 0.  1.
         13    1    5    5    0    0  0.28309986481E+03 -0.23505607034E+03 -0.81144646659E+03  0.89097825888E+03  0.00000000000E+00 0. -1.
        -13    1    5    5    0    0  0.83019420290E+02 -0.35554443669E+02 -0.12369937357E+03  0.15315964753E+03  0.00000000000E+00 0.  1.
          1    1    6    6  503    0 -0.39513918648E+02  0.21464362508E+03 -0.27778508672E+03  0.35326730666E+03  0.00000000000E+00 0. -1.
         -1    1    6    6    0  503  0.54700103823E+01  0.29560741638E+03 -0.53998497701E+03  0.61562768053E+03  0.00000000000E+00 0.  1.
<mgrwt>
<rscale>  0 0.14118459E+04</rscale>
<asrwt>0</asrwt>
<pdfrwt beam="1">  1        2 0.43601679E+00 0.14118459E+04</pdfrwt>
<pdfrwt beam="2">  1       -1 0.27051084E-01 0.14118459E+04</pdfrwt>
<totfact> 0.30055207E+01</totfact>
</mgrwt>
</event>
<event>
12    7  0.1544987E-007  0.4175605E+04  0.7818608E-02  0.7970029E-01
          2   -1    0    0  501    0  0.00000000000E+00  0.00000000000E+00  0.27692388317E+04  0.27692388317E+04  0.00000000000E+00 0. -1.
         -1   -1    0    0    0  501 -0.00000000000E+00 -0.00000000000E+00 -0.15740494048E+04  0.15740494048E+04  0.00000000000E+00 0.  1.
         24    2    1    2    0    0  0.74278389204E+03 -0.14994551617E+04  0.16892665590E+04  0.23790590086E+04  0.78781767164E+02 0.  0.
        254    2    1    2    0    0 -0.74278389204E+03  0.14994551617E+04 -0.49407713207E+03  0.19642292279E+04  0.90221425120E+03 0.  0.
         23    2    4    4    0    0  0.69394290669E+02 -0.53877064446E+02  0.33121383721E+02  0.13139164520E+03  0.91915356266E+02 0.  0.
         23    2    4    4    0    0 -0.81217818271E+03  0.15533322261E+04 -0.52719851579E+03  0.18328375827E+04  0.94238655835E+02 0.  0.
          4    1    3    3  502    0  0.46932271028E+03 -0.94541524280E+03  0.10110649996E+04  0.14616176727E+04  0.00000000000E+00 0. -1.
         -3    1    3    3    0  502  0.27346118176E+03 -0.55403991886E+03  0.67820155946E+03  0.91744133594E+03  0.00000000000E+00 0.  1.
         13    1    5    5    0    0  0.67410282894E+02 -0.32948695903E+02  0.60843112984E+02  0.96600451341E+02  0.00000000000E+00 0.  1.
        -13    1    5    5    0    0  0.19840077751E+01 -0.20928368543E+02 -0.27721729263E+02  0.34791193858E+02  0.00000000000E+00 0. -1.
          3    1    6    6  503    0 -0.29020459772E+03  0.57828940316E+03 -0.14864013477E+03  0.66387591612E+03  0.00000000000E+00 0. -1.
         -3    1    6    6    0  503 -0.52197358499E+03  0.97504282295E+03 -0.37855838102E+03  0.11689616665E+04  0.00000000000E+00 0.  1.
<mgrwt>
<rscale>  0 0.41756047E+04</rscale>
<asrwt>0</asrwt>
<pdfrwt beam="1">  1        2 0.42603674E+00 0.41756047E+04</pdfrwt>
<pdfrwt beam="2">  1       -1 0.24216145E+00 0.41756047E+04</pdfrwt>
<totfact> 0.16732418E-01</totfact>
</mgrwt>
</event>
<event>
12    7  0.1544987E-007  0.2699995E+04  0.7818608E-02  0.8335007E-01
          2   -1    0    0  501    0  0.00000000000E+00  0.00000000000E+00  0.84477123952E+03  0.84477123952E+03  0.00000000000E+00 0. -1.
         -1   -1    0    0    0  501 -0.00000000000E+00 -0.00000000000E+00 -0.21573808395E+04  0.21573808395E+04  0.00000000000E+00 0.  1.
         24    2    1    2    0    0 -0.57403646746E+03 -0.58778967163E+03  0.38612051330E+03  0.91137861268E+03  0.80668214339E+02 0.  0.
        254    2    1    2    0    0  0.57403646746E+03  0.58778967163E+03 -0.16987301133E+04  0.20907734663E+04  0.90035277852E+03 0.  0.
         23    2    4    4    0    0  0.40376546874E+03  0.10729079209E+01 -0.18236967572E+03  0.45339030469E+03  0.96313887289E+02 0.  0.
         23    2    4    4    0    0  0.17027099872E+03  0.58671676371E+03 -0.15163604376E+04  0.16373831617E+04  0.91901401973E+02 0.  0.
          4    1    3    3  502    0 -0.32219988881E+03 -0.35293514839E+03  0.26435813520E+03  0.54613296088E+03  0.00000000000E+00 0. -1.
         -1    1    3    3    0  502 -0.25183657865E+03 -0.23485452323E+03  0.12176237810E+03  0.36524565179E+03  0.00000000000E+00 0.  1.
         13    1    5    5    0    0  0.11500479797E+03 -0.16782808608E+01 -0.10177468827E+03  0.15358062168E+03  0.00000000000E+00 0. -1.
        -13    1    5    5    0    0  0.28876067077E+03  0.27511887817E+01 -0.80594987452E+02  0.29980968301E+03  0.00000000000E+00 0.  1.
          3    1    6    6  503    0  0.45032742636E+02  0.31542318005E+03 -0.75413291725E+03  0.81867953883E+03  0.00000000000E+00 0. -1.
         -3    1    6    6    0  503  0.12523825608E+03  0.27129358365E+03 -0.76222752030E+03  0.81870362282E+03  0.00000000000E+00 0.  1.
<mgrwt>
<rscale>  0 0.26999950E+04</rscale>
<asrwt>0</asrwt>
<pdfrwt beam="1">  1        2 0.12996481E+00 0.26999950E+04</pdfrwt>
<pdfrwt beam="2">  1       -1 0.33190474E+00 0.26999950E+04</pdfrwt>
<totfact> 0.65487991E-01</totfact>
</mgrwt>
</event>
<event>
12    7  0.1544987E-007  0.1413966E+04  0.7818608E-02  0.8943771E-01
         -3   -1    0    0    0  501 -0.00000000000E+00  0.00000000000E+00  0.17900094291E+03  0.17900094291E+03  0.00000000000E+00 0.  1.
          2   -1    0    0  501    0  0.00000000000E+00 -0.00000000000E+00 -0.27923038342E+04  0.27923038342E+04  0.00000000000E+00 0. -1.
         24    2    1    2    0    0  0.16683565808E+03  0.11654479165E+02 -0.15831956321E+04  0.15939453314E+04  0.78634257075E+02 0.  0.
        254    2    1    2    0    0 -0.16683565808E+03 -0.11654479165E+02 -0.10301072593E+04  0.13773594458E+04  0.89890384000E+03 0.  0.
         23    2    4    4    0    0  0.26591403314E+03 -0.10526180120E+03 -0.59278178026E+02  0.30632820367E+03  0.92372864846E+02 0.  0.
         23    2    4    4    0    0 -0.43274969122E+03  0.93607322034E+02 -0.97082908126E+03  0.10710312421E+04  0.92542912066E+02 0.  0.
          4    1    3    3  502    0  0.88785122525E+02  0.25780852723E+01 -0.49420464611E+03  0.50212316890E+03  0.00000000000E+00 0. -1.
         -1    1    3    3    0  502  0.78050535550E+02  0.90763938931E+01 -0.10889909859E+04  0.10918221625E+04  0.00000000000E+00 0.  1.
         13    1    5    5    0    0  0.22051017265E+03 -0.75816843755E+02 -0.10408736665E+02  0.23341223583E+03  0.00000000000E+00 0.  1.
        -13    1    5    5    0    0  0.45403860498E+02 -0.29444957445E+02 -0.48869441361E+02  0.72915967840E+02  0.00000000000E+00 0. -1.
          1    1    6    6  503    0 -0.30105168421E+03  0.10701382656E+03 -0.66450143299E+03  0.73732369424E+03  0.00000000000E+00 0. -1.
         -1    1    6    6    0  503 -0.13169800701E+03 -0.13406504524E+02 -0.30632764826E+03  0.33370754787E+03  0.00000000000E+00 0.  1.
<mgrwt>
<rscale>  0 0.14139661E+04</rscale>
<asrwt>0</asrwt>
<pdfrwt beam="1">  1        2 0.42958521E+00 0.14139661E+04</pdfrwt>
<pdfrwt beam="2">  1       -3 0.27538606E-01 0.14139661E+04</pdfrwt>
<totfact> 0.18951672E+01</totfact>
</mgrwt>
</event>
<event>
12    7  0.1544987E-007  0.2211540E+04  0.7818608E-02  0.8513640E-01
          2   -1    0    0  501    0  0.00000000000E+00  0.00000000000E+00  0.10211177626E+04  0.10211177626E+04  0.00000000000E+00 0. -1.
         -3   -1    0    0    0  501 -0.00000000000E+00 -0.00000000000E+00 -0.11974401139E+04  0.11974401139E+04  0.00000000000E+00 0.  1.
         24    2    1    2    0    0  0.43521702649E+02 -0.91662911315E+03  0.13814742749E+02  0.92056392023E+03  0.71721784908E+02 0.  0.
        254    2    1    2    0    0 -0.43521702649E+02  0.91662911315E+03 -0.19013709402E+03  0.12979939563E+04  0.89807189372E+03 0.  0.
         23    2    4    4    0    0  0.43748235784E+02  0.98025210622E+03 -0.38422868959E+03  0.10578977278E+04  0.93315682936E+02 0.  0.
         23    2    4    4    0    0 -0.87269938433E+02 -0.63622993066E+02  0.19409159557E+03  0.24009622847E+03  0.91163172687E+02 0.  0.
          4    1    3    3  502    0  0.52011569935E+02 -0.66281277243E+03  0.34647953498E+02  0.66575254817E+03  0.00000000000E+00 0. -1.
         -3    1    3    3    0  502 -0.84898672862E+01 -0.25381634072E+03 -0.20833210750E+02  0.25481137206E+03  0.00000000000E+00 0.  1.
         13    1    5    5    0    0 -0.19178935323E+02  0.11762593261E+03 -0.66427862094E+02  0.13644175477E+03  0.00000000000E+00 0.  1.
        -13    1    5    5    0    0  0.62927171107E+02  0.86262617361E+03 -0.31780082750E+03  0.92145597302E+03  0.00000000000E+00 0. -1.
          1    1    6    6  503    0 -0.81105319016E+02 -0.83561041297E+02  0.13988994994E+03  0.18201570946E+03  0.00000000000E+00 0. -1.
         -1    1    6    6    0  503 -0.61646194169E+01  0.19938048232E+02  0.54201645628E+02  0.58080519011E+02  0.00000000000E+00 0.  1.
<mgrwt>
<rscale>  0 0.22115401E+04</rscale>
<asrwt>0</asrwt>
<pdfrwt beam="1">  1        2 0.15709504E+00 0.22115401E+04</pdfrwt>
<pdfrwt beam="2">  1       -3 0.18422156E+00 0.22115401E+04</pdfrwt>
<totfact> 0.26028286E+00</totfact>
</mgrwt>
</event>
<event>
12    7  0.1544987E-007  0.2143922E+04  0.7818608E-02  0.8542138E-01
         -1   -1    0    0    0  501 -0.00000000000E+00  0.00000000000E+00  0.98229594977E+03  0.98229594977E+03  0.00000000000E+00 0.  1.
          2   -1    0    0  501    0  0.00000000000E+00 -0.00000000000E+00 -0.11698107073E+04  0.11698107073E+04  0.00000000000E+00 0. -1.
         24    2    1    2    0    0  0.67499361781E+03 -0.22538923245E+03 -0.59841729651E+03  0.93324886500E+03  0.80209058611E+02 0.  0.
        254    2    1    2    0    0 -0.67499361781E+03  0.22538923245E+03  0.41090253893E+03  0.12188577921E+04  0.90019816192E+03 0.  0.
         23    2    4    4    0    0 -0.46344765076E+02  0.44480935022E+03  0.27707467120E+03  0.53401646433E+03  0.91651598259E+02 0.  0.
         23    2    4    4    0    0 -0.62864885273E+03 -0.21942011777E+03  0.13382786773E+03  0.68484132778E+03  0.88052131887E+02 0.  0.
          2    1    3    3  502    0  0.61237471186E+03 -0.20419957479E+03 -0.57048401477E+03  0.86148259715E+03  0.00000000000E+00 0. -1.
         -1    1    3    3    0  502  0.62618905947E+02 -0.21189657662E+02 -0.27933281733E+02  0.71766267857E+02  0.00000000000E+00 0.  1.
         13    1    5    5    0    0 -0.48380800884E+02  0.20733713506E+03  0.17470525192E+03  0.27541117355E+03  0.00000000000E+00 0.  1.
        -13    1    5    5    0    0  0.20360358077E+01  0.23747221517E+03  0.10236941928E+03  0.25860529078E+03  0.00000000000E+00 0. -1.
          3    1    6    6  503    0 -0.18342441887E+03 -0.57081112256E+02  0.79270458472E+02  0.20781380224E+03  0.00000000000E+00 0. -1.
         -3    1    6    6    0  503 -0.44522443386E+03 -0.16233900552E+03  0.54557409257E+02  0.47702752554E+03  0.00000000000E+00 0.  1.
<mgrwt>
<rscale>  0 0.21439219E+04</rscale>
<asrwt>0</asrwt>
<pdfrwt beam="1">  1        2 0.17997088E+00 0.21439219E+04</pdfrwt>
<pdfrwt beam="2">  1       -1 0.15112245E+00 0.21439219E+04</pdfrwt>
<totfact> 0.70701828E+00</totfact>
</mgrwt>
</event>
<event>
12    7  0.1544987E-007  0.1103115E+04  0.7818608E-02  0.9202161E-01
          2   -1    0    0  501    0  0.00000000000E+00  0.00000000000E+00  0.33493773315E+04  0.33493773315E+04  0.00000000000E+00 0. -1.
         -1   -1    0    0    0  501 -0.00000000000E+00 -0.00000000000E+00 -0.90827486171E+02  0.90827486171E+02  0.00000000000E+00 0.  1.
         24    2    1    2    0    0 -0.97495095442E+00  0.41110314710E+02  0.49041437687E+02  0.10571285757E+03  0.84137608354E+02 0.  0.
        254    2    1    2    0    0  0.97495095442E+00 -0.41110314710E+02  0.32095084076E+04  0.33344919601E+04  0.90343865578E+03 0.  0.
         23    2    4    4    0    0  0.21826495305E+03 -0.29480460848E+03  0.65267806713E+03  0.75433386865E+03  0.92095489464E+02 0.  0.
         23    2    4    4    0    0 -0.21729000210E+03  0.25369429377E+03  0.25568303405E+04  0.25801580914E+04  0.90877098319E+02 0.  0.
          2    1    3    3  502    0 -0.64400713943E+01 -0.18997041631E+02  0.39914532480E+02  0.44671378011E+02  0.00000000000E+00 0. -1.
         -1    1    3    3    0  502  0.54651204399E+01  0.60107356341E+02  0.91269052068E+01  0.61041479556E+02  0.00000000000E+00 0.  1.
         13    1    5    5    0    0  0.15981621179E+03 -0.20458398280E+03  0.53674738420E+03  0.59623282534E+03  0.00000000000E+00 0. -1.
        -13    1    5    5    0    0  0.58448741257E+02 -0.90220625675E+02  0.11593068292E+03  0.15810104331E+03  0.00000000000E+00 0.  1.
          1    1    6    6  503    0 -0.17474080614E+03  0.24749555091E+03  0.22084739116E+04  0.22291580059E+04  0.00000000000E+00 0. -1.
         -1    1    6    6    0  503 -0.42549195959E+02  0.61987428506E+01  0.34835642893E+03  0.35100008556E+03  0.00000000000E+00 0.  1.
<mgrwt>
<rscale>  0 0.11031147E+04</rscale>
<asrwt>0</asrwt>
<pdfrwt beam="1">  1        2 0.51528872E+00 0.11031147E+04</pdfrwt>
<pdfrwt beam="2">  1       -1 0.13973462E-01 0.11031147E+04</pdfrwt>
<totfact> 0.44277332E+01</totfact>
</mgrwt>
</event>
<event>
12    7  0.1544987E-007  0.1522624E+04  0.7818608E-02  0.8869546E-01
          2   -1    0    0  501    0  0.00000000000E+00  0.00000000000E+00  0.24108268431E+04  0.24108268431E+04  0.00000000000E+00 0. -1.
         -1   -1    0    0    0  501 -0.00000000000E+00 -0.00000000000E+00 -0.24041385513E+03  0.24041385513E+03  0.00000000000E+00 0.  1.
         24    2    1    2    0    0 -0.42597233448E+03 -0.16384629631E+03  0.37853859236E+03  0.59757819029E+03  0.74230647609E+02 0.  0.
        254    2    1    2    0    0  0.42597233448E+03  0.16384629631E+03  0.17918743956E+04  0.20536625079E+04  0.89354228124E+03 0.  0.
         23    2    4    4    0    0  0.47066757326E+03  0.19033623061E+03  0.18589463553E+04  0.19291727749E+04  0.90940629614E+02 0.  0.
         23    2    4    4    0    0 -0.44695238784E+02 -0.26489934294E+02 -0.67071959777E+02  0.12448973303E+03  0.91102496406E+02 0.  0.
          4    1    3    3  502    0 -0.15602531510E+02 -0.16354048937E+02  0.44535356218E+01  0.23037532110E+02  0.00000000000E+00 0. -1.
         -3    1    3    3    0  502 -0.41036980297E+03 -0.14749224738E+03  0.37408505674E+03  0.57454065818E+03  0.00000000000E+00 0.  1.
         13    1    5    5    0    0  0.29433427469E+03  0.10436176524E+03  0.97805303180E+03  0.10266994576E+04  0.00000000000E+00 0.  1.
        -13    1    5    5    0    0  0.17633329857E+03  0.85974465374E+02  0.88089332353E+03  0.90247331724E+03  0.00000000000E+00 0. -1.
          3    1    6    6  503    0  0.15797735929E+02 -0.37146106892E+02 -0.41683843436E+02  0.58025378252E+02  0.00000000000E+00 0. -1.
         -3    1    6    6    0  503 -0.60492974713E+02  0.10656172597E+02 -0.25388116341E+02  0.66464354773E+02  0.00000000000E+00 0.  1.
<mgrwt>
<rscale>  0 0.15226243E+04</rscale>
<asrwt>0</asrwt>
<pdfrwt beam="1">  1        2 0.37089642E+00 0.15226243E+04</pdfrwt>
<pdfrwt beam="2">  1       -1 0.36986749E-01 0.15226243E+04</pdfrwt>
<totfact> 0.30304187E+01</totfact>
</mgrwt>
</event>
<event>
12    7  0.1544987E-007  0.2279556E+04  0.7818608E-02  0.8486026E-01
         -3   -1    0    0    0  501 -0.00000000000E+00  0.00000000000E+00  0.61593510792E+03  0.61593510792E+03  0.00000000000E+00 0.  1.
          2   -1    0    0  501    0  0.00000000000E+00 -0.00000000000E+00 -0.21091408450E+04  0.21091408450E+04  0.00000000000E+00 0. -1.
         24    2    1    2    0    0  0.21802814419E+03 -0.75881511181E+03 -0.12932321685E+04  0.15172006052E+04  0.78176653432E+02 0.  0.
        254    2    1    2    0    0 -0.21802814419E+03  0.75881511181E+03 -0.19997356860E+03  0.12078753478E+04  0.89198474315E+03 0.  0.
         23    2    4    4    0    0  0.24968504678E+03  0.65069978203E+03 -0.11667320103E+03  0.71212521789E+03  0.88073044690E+02 0.  0.
         23    2    4    4    0    0 -0.46771319097E+03  0.10811532979E+03 -0.83300367575E+02  0.49575012987E+03  0.91567933724E+02 0.  0.
          2    1    3    3  502    0  0.21822130103E+03 -0.74316653164E+03 -0.12428418026E+04  0.14644359926E+04  0.00000000000E+00 0. -1.
         -1    1    3    3    0  502 -0.19315683980E+00 -0.15648580170E+02 -0.50390365892E+02  0.52764612626E+02  0.00000000000E+00 0.  1.
         13    1    5    5    0    0  0.14591364430E+03  0.42995554836E+03 -0.37094542183E+02  0.45555303776E+03  0.00000000000E+00 0. -1.
        -13    1    5    5    0    0  0.10377140248E+03  0.22074423367E+03 -0.79578658844E+02  0.25657218012E+03  0.00000000000E+00 0.  1.
          4    1    6    6  503    0 -0.34059613755E+03  0.47384292741E+02 -0.87405904534E+02  0.35481092467E+03  0.00000000000E+00 0. -1.
         -4    1    6    6    0  503 -0.12711705342E+03  0.60731037046E+02  0.41055369592E+01  0.14093920520E+03  0.00000000000E+00 0.  1.
<mgrwt>
<rscale>  0 0.22795560E+04</rscale>
<asrwt>0</asrwt>
<pdfrwt beam="1">  1        2 0.32448321E+00 0.22795560E+04</pdfrwt>
<pdfrwt beam="2">  1       -3 0.94759246E-01 0.22795560E+04</pdfrwt>
<totfact> 0.33342802E+00</totfact>
</mgrwt>
</event>
<event>
12    7  0.1544987E-007  0.1374841E+04  0.7818608E-02  0.8972234E-01
         -1   -1    0    0    0  501 -0.00000000000E+00  0.00000000000E+00  0.23437198681E+03  0.23437198681E+03  0.00000000000E+00 0.  1.
          2   -1    0    0  501    0  0.00000000000E+00 -0.00000000000E+00 -0.20162254488E+04  0.20162254488E+04  0.00000000000E+00 0. -1.
         24    2    1    2    0    0  0.35280784594E+03 -0.15421565102E+03 -0.39713390966E+03  0.55918463356E+03  0.81952846458E+02 0.  0.
        254    2    1    2    0    0 -0.35280784594E+03  0.15421565102E+03 -0.13847195524E+04  0.16914128021E+04  0.89172483711E+03 0.  0.
         23    2    4    4    0    0 -0.29793384289E+03 -0.25222192228E+03 -0.22927683732E+03  0.46207277631E+03  0.92535991160E+02 0.  0.
         23    2    4    4    0    0 -0.54874003046E+02  0.40643757330E+03 -0.11554427150E+04  0.12293400257E+04  0.89590032847E+02 0.  0.
          2    1    3    3  502    0  0.49291794929E+02 -0.13840357308E+02 -0.19541500049E+02  0.54800609138E+02  0.00000000000E+00 0. -1.
         -1    1    3    3    0  502  0.30351605101E+03 -0.14037529371E+03 -0.37759240961E+03  0.50438402443E+03  0.00000000000E+00 0.  1.
         13    1    5    5    0    0 -0.18809271004E+03 -0.98898124582E+02 -0.11745799316E+03  0.24280874525E+03  0.00000000000E+00 0. -1.
        -13    1    5    5    0    0 -0.10984113285E+03 -0.15332379769E+03 -0.11181884416E+03  0.21926403106E+03  0.00000000000E+00 0.  1.
          1    1    6    6  503    0 -0.12100031699E+02  0.17510044974E+02 -0.13102768792E+03  0.13274512210E+03  0.00000000000E+00 0. -1.
         -1    1    6    6    0  503 -0.42773971347E+02  0.38892752832E+03 -0.10244150271E+04  0.10965949036E+04  0.00000000000E+00 0.  1.
<mgrwt>
<rscale>  0 0.13748407E+04</rscale>
<asrwt>0</asrwt>
<pdfrwt beam="1">  1        2 0.31018851E+00 0.13748407E+04</pdfrwt>
<pdfrwt beam="2">  1       -1 0.36057231E-01 0.13748407E+04</pdfrwt>
<totfact> 0.53498277E+01</totfact>
</mgrwt>
</event>
<event>
12    7  0.1544987E-007  0.1630098E+04  0.7818608E-02  0.8802268E-01
          2   -1    0    0  501    0  0.00000000000E+00  0.00000000000E+00  0.25786310173E+04  0.25786310173E+04  0.00000000000E+00 0. -1.
         -1   -1    0    0    0  501 -0.00000000000E+00 -0.00000000000E+00 -0.25761935341E+03  0.25761935341E+03  0.00000000000E+00 0.  1.
         24    2    1    2    0    0 -0.49561497510E+03 -0.17704802590E+03  0.46055692695E+03  0.70373998921E+03  0.78467078641E+02 0.  0.
        254    2    1    2    0    0  0.49561497510E+03  0.17704802590E+03  0.18604547369E+04  0.21325103815E+04  0.89962686262E+03 0.  0.
         23    2    4    4    0    0 -0.50860015719E+02 -0.24667567090E+03  0.94118265662E+03  0.97861256467E+03  0.91772167831E+02 0.  0.
         23    2    4    4    0    0  0.54647499082E+03  0.42372369680E+03  0.91927208032E+03  0.11538978168E+04  0.90787263445E+02 0.  0.
          4    1    3    3  502    0 -0.14997848424E+03 -0.17849205759E+02  0.11686500029E+03  0.19097007141E+03  0.00000000000E+00 0. -1.
         -3    1    3    3    0  502 -0.34563649086E+03 -0.15919882014E+03  0.34369192666E+03  0.51276991780E+03  0.00000000000E+00 0.  1.
         13    1    5    5    0    0  0.12405102555E+02 -0.69653778954E+02  0.15688150850E+03  0.17209690061E+03  0.00000000000E+00 0. -1.
        -13    1    5    5    0    0 -0.63265118273E+02 -0.17702189194E+03  0.78430114813E+03  0.80651566406E+03  0.00000000000E+00 0.  1.
          4    1    6    6  503    0  0.48811751441E+02  0.90274227778E+01  0.65735082188E+02  0.82372219049E+02  0.00000000000E+00 0. -1.
         -4    1    6    6    0  503  0.49766323938E+03  0.41469627402E+03  0.85353699813E+03  0.10715255978E+04  0.00000000000E+00 0.  1.
<mgrwt>
<rscale>  0 0.16300985E+04</rscale>
<asrwt>0</asrwt>
<pdfrwt beam="1">  1        2 0.39671245E+00 0.16300985E+04</pdfrwt>
<pdfrwt beam="2">  1       -1 0.39633749E-01 0.16300985E+04</pdfrwt>
<totfact> 0.21190881E+01</totfact>
</mgrwt>
</event>
<event>
12    7  0.1544987E-007  0.1428188E+04  0.7818608E-02  0.8933664E-01
          2   -1    0    0  501    0  0.00000000000E+00  0.00000000000E+00  0.50320057179E+03  0.50320057179E+03  0.00000000000E+00 0. -1.
         -1   -1    0    0    0  501 -0.00000000000E+00 -0.00000000000E+00 -0.10133732582E+04  0.10133732582E+04  0.00000000000E+00 0.  1.
         24    2    1    2    0    0  0.39375082289E+03  0.11846887069E+03 -0.22533913103E+03  0.47584405569E+03  0.81087961611E+02 0.  0.
        254    2    1    2    0    0 -0.39375082289E+03 -0.11846887069E+03 -0.28483355533E+03  0.10407297743E+04  0.91264107125E+03 0.  0.
         23    2    4    4    0    0  0.16510435942E+03 -0.32385059257E+03 -0.22034110859E+03  0.43501410209E+03  0.92457606913E+02 0.  0.
         23    2    4    4    0    0 -0.55885518230E+03  0.20538172189E+03 -0.64492446741E+02  0.60571567216E+03  0.90727246966E+02 0.  0.
          2    1    3    3  502    0  0.20274036661E+03  0.54537147459E+02 -0.16040212352E+03  0.26420976124E+03  0.00000000000E+00 0. -1.
         -1    1    3    3    0  502  0.19101045628E+03  0.63931723230E+02 -0.64937007505E+02  0.21163429445E+03  0.00000000000E+00 0.  1.
         13    1    5    5    0    0  0.27930043091E+02 -0.15416304123E+03 -0.99311639666E+02  0.18549698747E+03  0.00000000000E+00 0. -1.
        -13    1    5    5    0    0  0.13717431633E+03 -0.16968755135E+03 -0.12102946892E+03  0.24951711463E+03  0.00000000000E+00 0.  1.
          2    1    6    6  503    0 -0.42538598399E+03  0.12862041080E+03 -0.17558055292E+02  0.44475243760E+03  0.00000000000E+00 0.  1.
         -2    1    6    6    0  503 -0.13346919832E+03  0.76761311089E+02 -0.46934391449E+02  0.16096323456E+03  0.00000000000E+00 0. -1.
<mgrwt>
<rscale>  0 0.14281877E+04</rscale>
<asrwt>0</asrwt>
<pdfrwt beam="1">  1        2 0.77415474E-01 0.14281877E+04</pdfrwt>
<pdfrwt beam="2">  1       -1 0.15590358E+00 0.14281877E+04</pdfrwt>
<totfact> 0.21319549E+01</totfact>
</mgrwt>
</event>
<event>
12    7  0.1544987E-007  0.1627841E+04  0.7818608E-02  0.8803625E-01
          2   -1    0    0  501    0  0.00000000000E+00  0.00000000000E+00  0.10119314215E+04  0.10119314215E+04  0.00000000000E+00 0. -1.
         -1   -1    0    0    0  501 -0.00000000000E+00 -0.00000000000E+00 -0.65465547500E+03  0.65465547500E+03  0.00000000000E+00 0.  1.
         24    2    1    2    0    0 -0.65272826341E+02  0.46639860690E+03 -0.18004160025E+03  0.51040305395E+03  0.79423531071E+02 0.  0.
        254    2    1    2    0    0  0.65272826341E+02 -0.46639860690E+03  0.53731754679E+03  0.11561838426E+04  0.90898995011E+03 0.  0.
         23    2    4    4    0    0  0.10389702964E+03 -0.16072981457E+03  0.74431031478E+03  0.77379109264E+03  0.90145129109E+02 0.  0.
         23    2    4    4    0    0 -0.38624203301E+02 -0.30566879233E+03 -0.20699276800E+03  0.38239274994E+03  0.91940032198E+02 0.  0.
          4    1    3    3  502    0 -0.18655205233E+02  0.16404680574E+02 -0.13842566364E+02  0.28438475180E+02  0.00000000000E+00 0. -1.
         -3    1    3    3    0  502 -0.46617621109E+02  0.44999392633E+03 -0.16619903388E+03  0.48196457877E+03  0.00000000000E+00 0.  1.
         13    1    5    5    0    0  0.53626630235E+02 -0.15113149446E+03  0.56083634496E+03  0.58331290910E+03  0.00000000000E+00 0.  1.
        -13    1    5    5    0    0  0.50270399408E+02 -0.95983201098E+01  0.18347396982E+03  0.19047818354E+03  0.00000000000E+00 0. -1.
          3    1    6    6  503    0  0.21114666112E+02 -0.21239567768E+02 -0.11274252418E+02  0.32000892669E+02  0.00000000000E+00 0. -1.
         -3    1    6    6    0  503 -0.59738869413E+02 -0.28442922456E+03 -0.19571851558E+03  0.35039185727E+03  0.00000000000E+00 0.  1.
<mgrwt>
<rscale>  0 0.16278408E+04</rscale>
<asrwt>0</asrwt>
<pdfrwt beam="1">  1        2 0.15568176E+00 0.16278408E+04</pdfrwt>
<pdfrwt beam="2">  1       -1 0.10071623E+00 0.16278408E+04</pdfrwt>
<totfact> 0.25337569E+01</totfact>
</mgrwt>
</event>
<event>
12    7  0.1544987E-007  0.1760243E+04  0.7818608E-02  0.8727732E-01
         -1   -1    0    0    0  501 -0.00000000000E+00  0.00000000000E+00  0.29697197072E+03  0.29697197072E+03  0.00000000000E+00 0.  1.
          2   -1    0    0  501    0  0.00000000000E+00 -0.00000000000E+00 -0.26083742357E+04  0.26083742357E+04  0.00000000000E+00 0. -1.
         24    2    1    2    0    0  0.33748619152E+03 -0.50994893365E+03 -0.50834633124E+03  0.79911504673E+03  0.78892464956E+02 0.  0.
        254    2    1    2    0    0 -0.33748619152E+03  0.50994893365E+03 -0.18030559338E+04  0.21062311597E+04  0.90069648242E+03 0.  0.
         23    2    4    4    0    0 -0.41617611445E+03 -0.11125255900E+03 -0.56593233826E+03  0.71664373654E+03  0.87858656454E+02 0.  0.
         23    2    4    4    0    0  0.78689922932E+02  0.62120149265E+03 -0.12371235955E+04  0.13895874232E+04  0.91624328687E+02 0.  0.
          2    1    3    3  502    0  0.11222569023E+03 -0.13815078396E+03 -0.18967241357E+03  0.26010741844E+03  0.00000000000E+00 0. -1.
         -3    1    3    3    0  502  0.22526050129E+03 -0.37179814969E+03 -0.31867391767E+03  0.53900762830E+03  0.00000000000E+00 0.  1.
         13    1    5    5    0    0 -0.60991863201E+02 -0.13309279412E+02 -0.14113917230E+03  0.15432890284E+03  0.00000000000E+00 0. -1.
        -13    1    5    5    0    0 -0.35518425125E+03 -0.97943279592E+02 -0.42479316596E+03  0.56231483370E+03  0.00000000000E+00 0.  1.
          4    1    6    6  503    0  0.77910326917E+02  0.57220877090E+03 -0.11839425303E+04  0.13172747669E+04  0.00000000000E+00 0.  1.
         -4    1    6    6    0  503  0.77959601523E+00  0.48992721755E+02 -0.53181065197E+02  0.72312656225E+02  0.00000000000E+00 0. -1.
<mgrwt>
<rscale>  0 0.17602432E+04</rscale>
<asrwt>0</asrwt>
<pdfrwt beam="1">  1        2 0.40128835E+00 0.17602432E+04</pdfrwt>
<pdfrwt beam="2">  1       -1 0.45687995E-01 0.17602432E+04</pdfrwt>
<totfact> 0.15473491E+01</totfact>
</mgrwt>
</event>
<event>
12    7  0.1544987E-007  0.1322089E+04  0.7818608E-02  0.9012229E-01
          2   -1    0    0  501    0  0.00000000000E+00  0.00000000000E+00  0.37526823801E+04  0.37526823801E+04  0.00000000000E+00 0. -1.
         -1   -1    0    0    0  501 -0.00000000000E+00 -0.00000000000E+00 -0.11644472142E+03  0.11644472142E+03  0.00000000000E+00 0.  1.
         24    2    1    2    0    0  0.64305444546E+02 -0.30370303784E+03  0.13979256584E+04  0.14341654610E+04  0.79143526622E+02 0.  0.
        254    2    1    2    0    0 -0.64305444546E+02  0.30370303784E+03  0.22383120003E+04  0.24349616405E+04  0.90698779192E+03 0.  0.
         23    2    4    4    0    0  0.11566762164E+03  0.23898093359E+03  0.22006922951E+04  0.22185508533E+04  0.91817349039E+02 0.  0.
         23    2    4    4    0    0 -0.17997306618E+03  0.64722104250E+02  0.37619705140E+02  0.21641078717E+03  0.94016654160E+02 0.  0.
          2    1    3    3  502    0  0.68130843066E+02 -0.25228281285E+03  0.12623790958E+04  0.12891428978E+04  0.00000000000E+00 0. -1.
         -1    1    3    3    0  502 -0.38253985195E+01 -0.51420224995E+02  0.13554656253E+03  0.14502256316E+03  0.00000000000E+00 0.  1.
         13    1    5    5    0    0  0.73469824065E+02  0.66192589305E+02  0.97840348928E+03  0.98338835755E+03  0.00000000000E+00 0.  1.
        -13    1    5    5    0    0  0.42197797573E+02  0.17278834429E+03  0.12222888059E+04  0.12351624958E+04  0.00000000000E+00 0. -1.
          1    1    6    6  503    0 -0.12224911818E+03  0.11086778084E+02 -0.11931780934E+02  0.12332935960E+03  0.00000000000E+00 0. -1.
         -1    1    6    6    0  503 -0.57723948006E+02  0.53635326166E+02  0.49551486074E+02  0.93081427570E+02  0.00000000000E+00 0.  1.
<mgrwt>
<rscale>  0 0.13220893E+04</rscale>
<asrwt>0</asrwt>
<pdfrwt beam="1">  1        2 0.57733566E+00 0.13220893E+04</pdfrwt>
<pdfrwt beam="2">  1       -1 0.17914575E-01 0.13220893E+04</pdfrwt>
<totfact> 0.14989400E+01</totfact>
</mgrwt>
</event>
<event>
12    7  0.1544987E-007  0.2268196E+04  0.7818608E-02  0.8490568E-01
          2   -1    0    0  501    0  0.00000000000E+00  0.00000000000E+00  0.13080719995E+04  0.13080719995E+04  0.00000000000E+00 0. -1.
         -1   -1    0    0    0  501 -0.00000000000E+00 -0.00000000000E+00 -0.98326247225E+03  0.98326247225E+03  0.00000000000E+00 0.  1.
         24    2    1    2    0    0 -0.23131085641E+03 -0.24910270888E+02  0.10721709376E+04  0.11000326109E+04  0.79974943682E+02 0.  0.
        254    2    1    2    0    0  0.23131085641E+03  0.24910270888E+02 -0.74736141037E+03  0.11913018609E+04  0.89806782157E+03 0.  0.
         23    2    4    4    0    0 -0.32433046242E+03 -0.36261294273E+02 -0.15785347715E+03  0.37389904840E+03  0.91529491590E+02 0.  0.
         23    2    4    4    0    0  0.55564131882E+03  0.61171565161E+02 -0.58950793322E+03  0.81740281248E+03  0.90269147301E+02 0.  0.
          4    1    3    3  502    0 -0.23757825979E+03 -0.25294026653E+02  0.10268625796E+04  0.10542912191E+04  0.00000000000E+00 0. -1.
         -3    1    3    3    0  502  0.62674033885E+01  0.38375576437E+00  0.45308358037E+02  0.45741391777E+02  0.00000000000E+00 0.  1.
         13    1    5    5    0    0 -0.23620077402E+03  0.13034853160E+02 -0.94790884872E+02  0.25484509981E+03  0.00000000000E+00 0.  1.
        -13    1    5    5    0    0 -0.88129688404E+02 -0.49296147433E+02 -0.63062592283E+02  0.11905394859E+03  0.00000000000E+00 0. -1.
          1    1    6    6  503    0  0.14595227363E+03 -0.18761300375E+02 -0.12689954142E+03  0.19431301084E+03  0.00000000000E+00 0. -1.
         -1    1    6    6    0  503  0.40968904520E+03  0.79932865536E+02 -0.46260839180E+03  0.62308980164E+03  0.00000000000E+00 0.  1.
<mgrwt>
<rscale>  0 0.22681959E+04</rscale>
<asrwt>0</asrwt>
<pdfrwt beam="1">  1        2 0.20124185E+00 0.22681959E+04</pdfrwt>
<pdfrwt beam="2">  1       -1 0.15127115E+00 0.22681959E+04</pdfrwt>
<totfact> 0.57774285E+00</totfact>
</mgrwt>
</event>
<event>
12    7  0.1544987E-007  0.1265396E+04  0.7818608E-02  0.9057466E-01
          2   -1    0    0  501    0  0.00000000000E+00  0.00000000000E+00  0.12579324936E+04  0.12579324936E+04  0.00000000000E+00 0. -1.
         -1   -1    0    0    0  501 -0.00000000000E+00 -0.00000000000E+00 -0.31822577539E+03  0.31822577539E+03  0.00000000000E+00 0.  1.
         24    2    1    2    0    0 -0.17157134093E+03  0.21710088351E+03  0.79027187087E+02  0.29863237226E+03  0.79790217537E+02 0.  0.
        254    2    1    2    0    0  0.17157134093E+03 -0.21710088351E+03  0.86067953112E+03  0.12775258967E+04  0.90262597063E+03 0.  0.
         23    2    4    4    0    0  0.17347712301E+03 -0.34167150769E+03  0.99632871941E+03  0.10713376864E+04  0.90883385438E+02 0.  0.
         23    2    4    4    0    0 -0.19057820790E+01  0.12457062419E+03 -0.13564918829E+03  0.20618821035E+03  0.92689823538E+02 0.  0.
          4    1    3    3  502    0 -0.93956307064E+02  0.68446258374E+02  0.57090124827E+02  0.12950660321E+03  0.00000000000E+00 0. -1.
         -3    1    3    3    0  502 -0.77615033862E+02  0.14865462513E+03  0.21937062259E+02  0.16912576905E+03  0.00000000000E+00 0.  1.
         13    1    5    5    0    0  0.68715968375E+02 -0.15701641024E+03  0.56776193479E+03  0.59306799947E+03  0.00000000000E+00 0.  1.
        -13    1    5    5    0    0  0.10476115463E+03 -0.18465509746E+03  0.42856678462E+03  0.47826968691E+03  0.00000000000E+00 0. -1.
          1    1    6    6  503    0  0.83024807234E+01  0.10798691639E+03 -0.51704673682E+02  0.12001449320E+03  0.00000000000E+00 0. -1.
         -1    1    6    6    0  503 -0.10208262802E+02  0.16583707791E+02 -0.83944514608E+02  0.86173717144E+02  0.00000000000E+00 0.  1.
<mgrwt>
<rscale>  0 0.12653957E+04</rscale>
<asrwt>0</asrwt>
<pdfrwt beam="1">  1        2 0.19352807E+00 0.12653957E+04</pdfrwt>
<pdfrwt beam="2">  1       -1 0.48957812E-01 0.12653957E+04</pdfrwt>
<totfact> 0.81853377E+01</totfact>
</mgrwt>
</event>
<event>
12    7  0.1544987E-007  0.1723634E+04  0.7818608E-02  0.8747999E-01
         -1   -1    0    0    0  501 -0.00000000000E+00  0.00000000000E+00  0.71582666506E+03  0.71582666506E+03  0.00000000000E+00 0.  1.
          2   -1    0    0  501    0  0.00000000000E+00 -0.00000000000E+00 -0.10375811747E+04  0.10375811747E+04  0.00000000000E+00 0. -1.
         24    2    1    2    0    0 -0.80789664398E+02 -0.57508754777E+03 -0.37504836274E+03  0.69586915609E+03  0.79498116531E+02 0.  0.
        254    2    1    2    0    0  0.80789664398E+02  0.57508754777E+03  0.53293853048E+02  0.10575386837E+04  0.88221039175E+03 0.  0.
         23    2    4    4    0    0  0.12776679381E+03  0.79227128156E+03  0.98078539121E+02  0.81348499803E+03  0.90112734966E+02 0.  0.
         23    2    4    4    0    0 -0.46977129414E+02 -0.21718373379E+03 -0.44784686073E+02  0.24405368568E+03  0.90448374647E+02 0.  0.
          4    1    3    3  502    0 -0.57751972551E+02 -0.54234669634E+03 -0.34037724124E+03  0.64290893268E+03  0.00000000000E+00 0. -1.
         -3    1    3    3    0  502 -0.23037691846E+02 -0.32740851433E+02 -0.34671121494E+02  0.52960223411E+02  0.00000000000E+00 0.  1.
         13    1    5    5    0    0  0.11790824673E+03  0.53757856141E+03  0.95543400410E+02  0.55858894161E+03  0.00000000000E+00 0.  1.
        -13    1    5    5    0    0  0.98585470778E+01  0.25469272015E+03  0.25351387116E+01  0.25489605642E+03  0.00000000000E+00 0. -1.
          2    1    6    6  503    0  0.19915132978E+02 -0.80858123865E+02 -0.39350413535E+02  0.92103766274E+02  0.00000000000E+00 0. -1.
         -2    1    6    6    0  503 -0.66892262392E+02 -0.13632560993E+03 -0.54342725382E+01  0.15194991941E+03  0.00000000000E+00 0.  1.
<mgrwt>
<rscale>  0 0.17236337E+04</rscale>
<asrwt>0</asrwt>
<pdfrwt beam="1">  1        2 0.15962787E+00 0.17236337E+04</pdfrwt>
<pdfrwt beam="2">  1       -1 0.11012718E+00 0.17236337E+04</pdfrwt>
<totfact> 0.19658635E+01</totfact>
</mgrwt>
</event>
<event>
12    7  0.1544987E-007  0.2988871E+04  0.7818608E-02  0.8246916E-01
         -1   -1    0    0    0  501 -0.00000000000E+00  0.00000000000E+00  0.13583327810E+04  0.13583327810E+04  0.00000000000E+00 0.  1.
          2   -1    0    0  501    0  0.00000000000E+00 -0.00000000000E+00 -0.16441759666E+04  0.16441759666E+04  0.00000000000E+00 0. -1.
         24    2    1    2    0    0  0.77881967745E+03  0.49469486716E+03 -0.11333841396E+04  0.14636211373E+04  0.79650010707E+02 0.  0.
        254    2    1    2    0    0 -0.77881967745E+03 -0.49469486716E+03  0.84754095402E+03  0.15388876103E+04  0.89362537278E+03 0.  0.
         23    2    4    4    0    0 -0.19345104519E+03 -0.36045822847E+03  0.83142297538E+03  0.93107207279E+03  0.90981313347E+02 0.  0.
         23    2    4    4    0    0 -0.58536863226E+03 -0.13423663870E+03  0.16117978632E+02  0.60781553753E+03  0.92217284820E+02 0.  0.
          2    1    3    3  502    0  0.56667092228E+03  0.34307457757E+03 -0.75966851837E+03  0.10079247778E+04  0.00000000000E+00 0. -1.
         -1    1    3    3    0  502  0.21214875517E+03  0.15162028960E+03 -0.37371562123E+03  0.45569635953E+03  0.00000000000E+00 0.  1.
         13    1    5    5    0    0 -0.13391977791E+03 -0.31377476281E+03  0.64019381527E+03  0.72542210458E+03  0.00000000000E+00 0. -1.
        -13    1    5    5    0    0 -0.59531267280E+02 -0.46683465652E+02  0.19122916011E+03  0.20564996821E+03  0.00000000000E+00 0.  1.
          2    1    6    6  503    0 -0.25264324471E+03 -0.23086904058E+02  0.37073618497E+02  0.25639045892E+03  0.00000000000E+00 0. -1.
         -2    1    6    6    0  503 -0.33272538755E+03 -0.11114973464E+03 -0.20955639865E+02  0.35142507861E+03  0.00000000000E+00 0.  1.
<mgrwt>
<rscale>  0 0.29888714E+04</rscale>
<asrwt>0</asrwt>
<pdfrwt beam="1">  1        2 0.25295015E+00 0.29888714E+04</pdfrwt>
<pdfrwt beam="2">  1       -1 0.20897427E+00 0.29888714E+04</pdfrwt>
<totfact> 0.13424220E+00</totfact>
</mgrwt>
</event>
<event>
12    7  0.1544987E-007  0.2656932E+04  0.7818608E-02  0.8349116E-01
         -1   -1    0    0    0  501 -0.00000000000E+00  0.00000000000E+00  0.87135119845E+03  0.87135119845E+03  0.00000000000E+00 0.  1.
          2   -1    0    0  501    0  0.00000000000E+00 -0.00000000000E+00 -0.20253847704E+04  0.20253847704E+04  0.00000000000E+00 0. -1.
         24    2    1    2    0    0  0.97426173043E+03 -0.29755013852E+03 -0.11493964491E+04  0.15381077962E+04  0.83315012603E+02 0.  0.
        254    2    1    2    0    0 -0.97426173043E+03  0.29755013852E+03 -0.46371228625E+01  0.13586281726E+04  0.89895884458E+03 0.  0.
         23    2    4    4    0    0  0.92087367973E+02  0.25005056014E+03 -0.55587943053E+02  0.28613326742E+03  0.88186514523E+02 0.  0.
         23    2    4    4    0    0 -0.10663490984E+04  0.47499578378E+02  0.50950820191E+02  0.10724949052E+04  0.91064405839E+02 0.  0.
          2    1    3    3  502    0  0.60942700931E+03 -0.21288754868E+03 -0.68020518846E+03  0.93776408892E+03  0.00000000000E+00 0. -1.
         -1    1    3    3    0  502  0.36483472112E+03 -0.84662589843E+02 -0.46919126066E+03  0.60034370733E+03  0.00000000000E+00 0.  1.
         13    1    5    5    0    0 -0.12596318343E+02  0.80016466059E+02 -0.15312733822E+02  0.82436532517E+02  0.00000000000E+00 0. -1.
        -13    1    5    5    0    0  0.10468368632E+03  0.17003409409E+03 -0.40275209231E+02  0.20369673491E+03  0.00000000000E+00 0.  1.
          3    1    6    6  503    0 -0.49776339090E+02 -0.11900379505E+02 -0.10842546543E+02  0.52315043545E+02  0.00000000000E+00 0. -1.
         -3    1    6    6    0  503 -0.10165727593E+04  0.59399957882E+02  0.61793366734E+02  0.10201798617E+04  0.00000000000E+00 0.  1.
<mgrwt>
<rscale>  0 0.26569316E+04</rscale>
<asrwt>0</asrwt>
<pdfrwt beam="1">  1        2 0.31159765E+00 0.26569316E+04</pdfrwt>
<pdfrwt beam="2">  1       -1 0.13405403E+00 0.26569316E+04</pdfrwt>
<totfact> 0.30380870E+00</totfact>
</mgrwt>
</event>
<event>
12    7  0.1544987E-007  0.1673610E+04  0.7818608E-02  0.8776560E-01
          2   -1    0    0  501    0  0.00000000000E+00  0.00000000000E+00  0.44438501149E+03  0.44438501149E+03  0.00000000000E+00 0. -1.
         -1   -1    0    0    0  501 -0.00000000000E+00 -0.00000000000E+00 -0.15757564742E+04  0.15757564742E+04  0.00000000000E+00 0.  1.
         24    2    1    2    0    0  0.12985362678E+03  0.31544167590E+03 -0.96899690606E+03  0.10303800468E+04  0.79766042602E+02 0.  0.
        254    2    1    2    0    0 -0.12985362678E+03 -0.31544167590E+03 -0.16237455662E+03  0.98976143890E+03  0.91482063488E+03 0.  0.
         23    2    4    4    0    0  0.57621178822E+01  0.18240223117E+02  0.34690952087E+03  0.35937966965E+03  0.91878308367E+02 0.  0.
         23    2    4    4    0    0 -0.13561574467E+03 -0.33368189901E+03 -0.50928407749E+03  0.63038176924E+03  0.90970673698E+02 0.  0.
          4    1    3    3  502    0  0.12952035835E+01 -0.42781116850E+01 -0.26236491236E+02  0.26614531074E+02  0.00000000000E+00 0. -1.
         -3    1    3    3    0  502  0.12855842320E+03  0.31971978758E+03 -0.94276041483E+03  0.10037655157E+04  0.00000000000E+00 0.  1.
         13    1    5    5    0    0 -0.43186080323E+01 -0.23655310061E+02  0.25330758314E+02  0.34926657244E+02  0.00000000000E+00 0.  1.
        -13    1    5    5    0    0  0.10080725914E+02  0.41895533178E+02  0.32157876256E+03  0.32445301241E+03  0.00000000000E+00 0. -1.
          3    1    6    6  503    0 -0.76967143446E+02 -0.13522727487E+03 -0.28845243586E+03  0.32774252821E+03  0.00000000000E+00 0. -1.
         -3    1    6    6    0  503 -0.58648601221E+02 -0.19845462415E+03 -0.22083164163E+03  0.30263924104E+03  0.00000000000E+00 0.  1.
<mgrwt>
<rscale>  0 0.16736099E+04</rscale>
<asrwt>0</asrwt>
<pdfrwt beam="1">  1        2 0.68366924E-01 0.16736099E+04</pdfrwt>
<pdfrwt beam="2">  1       -1 0.24242408E+00 0.16736099E+04</pdfrwt>
<totfact> 0.60124933E+00</totfact>
</mgrwt>
</event>
<event>
12    7  0.1544987E-007  0.1423692E+04  0.7818608E-02  0.8936845E-01
          2   -1    0    0  501    0  0.00000000000E+00  0.00000000000E+00  0.82478372413E+03  0.82478372413E+03  0.00000000000E+00 0. -1.
         -1   -1    0    0    0  501 -0.00000000000E+00 -0.00000000000E+00 -0.61437289887E+03  0.61437289887E+03  0.00000000000E+00 0.  1.
         24    2    1    2    0    0  0.39058054901E+03  0.10780860379E+03  0.20011996263E+03  0.45930262317E+03  0.82067288830E+02 0.  0.
        254    2    1    2    0    0 -0.39058054901E+03 -0.10780860379E+03  0.10290862626E+02  0.97985399983E+03  0.89209422082E+03 0.  0.
         23    2    4    4    0    0  0.13667131130E+03 -0.32475729091E+03 -0.13116654848E+03  0.38568345316E+03  0.86027421597E+02 0.  0.
         23    2    4    4    0    0 -0.52725186031E+03  0.21694868712E+03  0.14145741110E+03  0.59417054667E+03  0.89259074208E+02 0.  0.
          2    1    3    3  502    0  0.32128328983E+03  0.99985459004E+02  0.13090781702E+03  0.36104972081E+03  0.00000000000E+00 0. -1.
         -1    1    3    3    0  502  0.69297259174E+02  0.78231447914E+01  0.69212145608E+02  0.98252902365E+02  0.00000000000E+00 0.  1.
         13    1    5    5    0    0  0.41952363217E+02 -0.26564469134E+02 -0.14021438003E+02  0.51597214300E+02  0.00000000000E+00 0.  1.
        -13    1    5    5    0    0  0.94718948088E+02 -0.29819282178E+03 -0.11714511047E+03  0.33408623886E+03  0.00000000000E+00 0. -1.
          1    1    6    6  503    0 -0.29738679239E+03  0.14202083281E+03  0.12275945339E+03  0.35167983257E+03  0.00000000000E+00 0. -1.
         -1    1    6    6    0  503 -0.22986506792E+03  0.74927854306E+02  0.18697957716E+02  0.24249071410E+03  0.00000000000E+00 0.  1.
<mgrwt>
<rscale>  0 0.14236921E+04</rscale>
<asrwt>0</asrwt>
<pdfrwt beam="1">  1        2 0.12688980E+00 0.14236921E+04</pdfrwt>
<pdfrwt beam="2">  1       -1 0.94518907E-01 0.14236921E+04</pdfrwt>
<totfact> 0.39737903E+01</totfact>
</mgrwt>
</event>
<event>
12    7  0.1544987E-007  0.2489249E+04  0.7818608E-02  0.8406826E-01
         -1   -1    0    0    0  501 -0.00000000000E+00  0.00000000000E+00  0.57131699011E+03  0.57131699011E+03  0.00000000000E+00 0.  1.
          2   -1    0    0  501    0  0.00000000000E+00 -0.00000000000E+00 -0.27114369878E+04  0.27114369878E+04  0.00000000000E+00 0. -1.
         24    2    1    2    0    0  0.10298994109E+04 -0.18957144773E+03 -0.11761137851E+04  0.15768041117E+04  0.80233664536E+02 0.  0.
        254    2    1    2    0    0 -0.10298994109E+04  0.18957144773E+03 -0.96400621259E+03  0.17059498662E+04  0.94038653632E+03 0.  0.
         23    2    4    4    0    0 -0.52025639223E+03 -0.32126700053E+03 -0.19695766768E+03  0.64885648221E+03  0.91341186567E+02 0.  0.
         23    2    4    4    0    0 -0.50964301864E+03  0.51083844827E+03 -0.76704854491E+03  0.10570933840E+04  0.91602540938E+02 0.  0.
          2    1    3    3  502    0  0.27001651626E+03 -0.63417150516E+02 -0.36192501529E+03  0.45598286231E+03  0.00000000000E+00 0. -1.
         -1    1    3    3    0  502  0.75988289462E+03 -0.12615429722E+03 -0.81418876979E+03  0.11208212494E+04  0.00000000000E+00 0.  1.
         13    1    5    5    0    0 -0.20976486893E+02  0.42622765179E+00  0.49082795194E+01  0.21547294035E+02  0.00000000000E+00 0. -1.
        -13    1    5    5    0    0 -0.49927990534E+03 -0.32169322818E+03 -0.20186594720E+03  0.62730918818E+03  0.00000000000E+00 0.  1.
          4    1    6    6  503    0 -0.39793896171E+03  0.37149915239E+03 -0.62539933805E+03  0.82915099319E+03  0.00000000000E+00 0. -1.
         -4    1    6    6    0  503 -0.11170405693E+03  0.13933929588E+03 -0.14164920686E+03  0.22794239078E+03  0.00000000000E+00 0.  1.
<mgrwt>
<rscale>  0 0.24892489E+04</rscale>
<asrwt>0</asrwt>
<pdfrwt beam="1">  1        2 0.41714416E+00 0.24892489E+04</pdfrwt>
<pdfrwt beam="2">  1       -1 0.87894921E-01 0.24892489E+04</pdfrwt>
<totfact> 0.33770193E+00</totfact>
</mgrwt>
</event>
<event>
12    7  0.1544987E-007  0.2570057E+04  0.7818608E-02  0.8378444E-01
         -1   -1    0    0    0  501 -0.00000000000E+00  0.00000000000E+00  0.54246661433E+03  0.54246661433E+03  0.00000000000E+00 0.  1.
          2   -1    0    0  501    0  0.00000000000E+00 -0.00000000000E+00 -0.30440550683E+04  0.30440550683E+04  0.00000000000E+00 0. -1.
         24    2    1    2    0    0 -0.76100303019E+03 -0.58951550111E+03 -0.27874244717E+03  0.10053880477E+04  0.80334529299E+02 0.  0.
        254    2    1    2    0    0  0.76100303019E+03  0.58951550111E+03 -0.22228460068E+04  0.25811336349E+04  0.89137665070E+03 0.  0.
         23    2    4    4    0    0  0.33268760677E+03  0.76537868663E+03 -0.14476615078E+04  0.16734262455E+04  0.90255084552E+02 0.  0.
         23    2    4    4    0    0  0.42831542342E+03 -0.17586318553E+03 -0.77518449896E+03  0.90770738940E+03  0.92950176895E+02 0.  0.
          2    1    3    3  502    0 -0.21091798400E+03 -0.18400430850E+03 -0.11529590299E+03  0.30271624794E+03  0.00000000000E+00 0. -1.
         -1    1    3    3    0  502 -0.55008504619E+03 -0.40551119261E+03 -0.16344654418E+03  0.70267179976E+03  0.00000000000E+00 0.  1.
         13    1    5    5    0    0  0.12949350512E+03  0.37589456309E+03 -0.75301775988E+03  0.85152864728E+03  0.00000000000E+00 0.  1.
        -13    1    5    5    0    0  0.20319410165E+03  0.38948412354E+03 -0.69464374792E+03  0.82189759822E+03  0.00000000000E+00 0. -1.
          1    1    6    6  503    0  0.14005596438E+03 -0.64842306214E+02 -0.34654976200E+03  0.37936385618E+03  0.00000000000E+00 0. -1.
         -1    1    6    6    0  503  0.28825945904E+03 -0.11102087931E+03 -0.42863473697E+03  0.52834353323E+03  0.00000000000E+00 0.  1.
<mgrwt>
<rscale>  0 0.25700570E+04</rscale>
<asrwt>0</asrwt>
<pdfrwt beam="1">  1        2 0.46831617E+00 0.25700570E+04</pdfrwt>
<pdfrwt beam="2">  1       -1 0.83456401E-01 0.25700570E+04</pdfrwt>
<totfact> 0.23461442E+00</totfact>
</mgrwt>
</event>
<event>
12    7  0.1544987E-007  0.2261785E+04  0.7818608E-02  0.8493143E-01
          2   -1    0    0  501    0  0.00000000000E+00  0.00000000000E+00  0.13826545721E+04  0.13826545721E+04  0.00000000000E+00 0. -1.
         -1   -1    0    0    0  501 -0.00000000000E+00 -0.00000000000E+00 -0.92497288358E+03  0.92497288358E+03  0.00000000000E+00 0.  1.
         24    2    1    2    0    0  0.18637085189E+03  0.46276792205E+03 -0.62980983125E+03  0.80730504136E+03  0.78694104894E+02 0.  0.
        254    2    1    2    0    0 -0.18637085189E+03 -0.46276792205E+03  0.10874915197E+04  0.15003224143E+04  0.90522996924E+03 0.  0.
         23    2    4    4    0    0 -0.30197580434E+03  0.18589762637E+03  0.33838166849E+03  0.49857728635E+03  0.91267973563E+02 0.  0.
         23    2    4    4    0    0  0.11560495245E+03 -0.64866554842E+03  0.74910985123E+03  0.10017451279E+04  0.90533051339E+02 0.  0.
          4    1    3    3  502    0  0.35332903173E+02  0.14128106055E+03 -0.13793057472E+03  0.20058313877E+03  0.00000000000E+00 0. -1.
         -3    1    3    3    0  502  0.15103794872E+03  0.32148686150E+03 -0.49187925654E+03  0.60672190259E+03  0.00000000000E+00 0.  1.
         13    1    5    5    0    0 -0.14988749365E+03  0.80871708235E+02  0.22334970761E+03  0.28087646010E+03  0.00000000000E+00 0. -1.
        -13    1    5    5    0    0 -0.15208831069E+03  0.10502591813E+03  0.11503196087E+03  0.21770082625E+03  0.00000000000E+00 0.  1.
          3    1    6    6  503    0  0.11038854724E+03 -0.61805243856E+03  0.67742476827E+03  0.92362263119E+03  0.00000000000E+00 0. -1.
         -3    1    6    6    0  503  0.52164052142E+01 -0.30613109855E+02  0.71685082959E+02  0.78122496742E+02  0.00000000000E+00 0.  1.
<mgrwt>
<rscale>  0 0.22617851E+04</rscale>
<asrwt>0</asrwt>
<pdfrwt beam="1">  1        2 0.21271609E+00 0.22617851E+04</pdfrwt>
<pdfrwt beam="2">  1       -1 0.14230352E+00 0.22617851E+04</pdfrwt>
<totfact> 0.61615861E+00</totfact>
</mgrwt>
</event>
<event>
12    7  0.1544987E-007  0.2826789E+04  0.7818608E-02  0.8294999E-01
         -1   -1    0    0    0  501 -0.00000000000E+00  0.00000000000E+00  0.10515970981E+04  0.10515970981E+04  0.00000000000E+00 0.  1.
          2   -1    0    0  501    0  0.00000000000E+00 -0.00000000000E+00 -0.18996667112E+04  0.18996667112E+04  0.00000000000E+00 0. -1.
         24    2    1    2    0    0  0.64133505603E+01 -0.13645349924E+03  0.93522250961E+03  0.95041366607E+03  0.99921497477E+02 0.  0.
        254    2    1    2    0    0 -0.64133505603E+01  0.13645349924E+03 -0.17832921227E+04  0.20008501432E+04  0.89700045266E+03 0.  0.
         23    2    4    4    0    0  0.38839454515E+03  0.72955102237E+02 -0.13271808803E+04  0.13876640785E+04  0.89608795089E+02 0.  0.
         23    2    4    4    0    0 -0.39480789571E+03  0.63498396998E+02 -0.45611124244E+03  0.61318606469E+03  0.89746105844E+02 0.  0.
          2    1    3    3  502    0  0.35608134333E+02 -0.67321680735E+02  0.25685273289E+03  0.26790571908E+03  0.00000000000E+00 0. -1.
         -1    1    3    3    0  502 -0.29194783773E+02 -0.69131818501E+02  0.67836977672E+03  0.68250794698E+03  0.00000000000E+00 0.  1.
         13    1    5    5    0    0  0.29395879527E+03  0.32230626251E+02 -0.86411816219E+03  0.91331855604E+03  0.00000000000E+00 0. -1.
        -13    1    5    5    0    0  0.94435749887E+02  0.40724475986E+02 -0.46306271806E+03  0.47434552244E+03  0.00000000000E+00 0.  1.
          4    1    6    6  503    0 -0.24804145835E+03  0.66894310596E+02 -0.33925106275E+03  0.42554752664E+03  0.00000000000E+00 0. -1.
         -4    1    6    6    0  503 -0.14676643737E+03 -0.33959135978E+01 -0.11686017968E+03  0.18763853805E+03  0.00000000000E+00 0.  1.
<mgrwt>
<rscale>  0 0.28267890E+04</rscale>
<asrwt>0</asrwt>
<pdfrwt beam="1">  1        2 0.29225642E+00 0.28267890E+04</pdfrwt>
<pdfrwt beam="2">  1       -1 0.16178417E+00 0.28267890E+04</pdfrwt>
<totfact> 0.21261906E+00</totfact>
</mgrwt>
</event>
<event>
12    7  0.1544987E-007  0.1204996E+04  0.7818608E-02  0.9108495E-01
         -1   -1    0    0    0  501 -0.00000000000E+00  0.00000000000E+00  0.13738425226E+03  0.13738425226E+03  0.00000000000E+00 0.  1.
          2   -1    0    0  501    0  0.00000000000E+00 -0.00000000000E+00 -0.26422507860E+04  0.26422507860E+04  0.00000000000E+00 0. -1.
         24    2    1    2    0    0  0.96704939289E+02 -0.81704202519E+02 -0.42919537550E+02  0.15579451452E+03  0.80015136428E+02 0.  0.
        254    2    1    2    0    0 -0.96704939289E+02  0.81704202519E+02 -0.24619469962E+04  0.26238405238E+04  0.89851469659E+03 0.  0.
         23    2    4    4    0    0  0.11023364138E+03  0.36250297147E+03 -0.20058487470E+04  0.20433796014E+04  0.91712264712E+02 0.  0.
         23    2    4    4    0    0 -0.20693858067E+03 -0.28079876895E+03 -0.45609824920E+03  0.58046092236E+03  0.85074935529E+02 0.  0.
          4    1    3    3  502    0  0.48696348163E+02 -0.48358507473E+02 -0.63820245405E+02  0.93717145139E+02  0.00000000000E+00 0. -1.
         -1    1    3    3    0  502  0.48008591125E+02 -0.33345695046E+02  0.20900707855E+02  0.62077369377E+02  0.00000000000E+00 0.  1.
         13    1    5    5    0    0  0.85601180927E+02  0.33417746188E+03 -0.19002245650E+04  0.19312833908E+04  0.00000000000E+00 0. -1.
        -13    1    5    5    0    0  0.24632460452E+02  0.28325509593E+02 -0.10562418204E+03  0.11209621061E+03  0.00000000000E+00 0.  1.
          4    1    6    6  503    0 -0.14575577072E+03 -0.25248182469E+03 -0.36534984964E+03  0.46741023644E+03  0.00000000000E+00 0. -1.
         -4    1    6    6    0  503 -0.61182809948E+02 -0.28316944264E+02 -0.90748399556E+02  0.11305068592E+03  0.00000000000E+00 0.  1.
<mgrwt>
<rscale>  0 0.12049957E+04</rscale>
<asrwt>0</asrwt>
<pdfrwt beam="1">  1        2 0.40650010E+00 0.12049957E+04</pdfrwt>
<pdfrwt beam="2">  1       -1 0.21136040E-01 0.12049957E+04</pdfrwt>
<totfact> 0.60683525E+01</totfact>
</mgrwt>
</event>
<event>
12    7  0.1544987E-007  0.2776378E+04  0.7818608E-02  0.8310640E-01
         -1   -1    0    0    0  501 -0.00000000000E+00  0.00000000000E+00  0.11078346767E+04  0.11078346767E+04  0.00000000000E+00 0.  1.
          2   -1    0    0  501    0  0.00000000000E+00 -0.00000000000E+00 -0.17394915032E+04  0.17394915032E+04  0.00000000000E+00 0. -1.
         24    2    1    2    0    0 -0.80692518765E+03 -0.83760152845E+03 -0.73929777066E+03  0.13805885748E+04  0.82213381707E+02 0.  0.
        254    2    1    2    0    0  0.80692518765E+03  0.83760152845E+03  0.10764094410E+03  0.14667376052E+04  0.88714601429E+03 0.  0.
         23    2    4    4    0    0  0.94167339587E+03  0.46167345974E+03  0.73217020370E+02  0.10553592671E+04  0.92364943119E+02 0.  0.
         23    2    4    4    0    0 -0.13474820821E+03  0.37592806871E+03  0.34423923729E+02  0.41137833806E+03  0.92564237372E+02 0.  0.
          2    1    3    3  502    0 -0.32470081076E+03 -0.29456396458E+03 -0.31022122401E+03  0.53706215056E+03  0.00000000000E+00 0. -1.
         -1    1    3    3    0  502 -0.48222437689E+03 -0.54303756387E+03 -0.42907654665E+03  0.84352642420E+03  0.00000000000E+00 0.  1.
         13    1    5    5    0    0  0.26924944178E+03  0.11602555532E+03 -0.18440201624E+02  0.29376390592E+03  0.00000000000E+00 0. -1.
        -13    1    5    5    0    0  0.67242395409E+03  0.34564790442E+03  0.91657221994E+02  0.76159536120E+03  0.00000000000E+00 0.  1.
          4    1    6    6  503    0 -0.14449903462E+03  0.33914330494E+03  0.15728989938E+02  0.36897906907E+03  0.00000000000E+00 0.  1.
         -4    1    6    6    0  503  0.97508264029E+01  0.36784763773E+02  0.18694933791E+02  0.42399268989E+02  0.00000000000E+00 0. -1.
<mgrwt>
<rscale>  0 0.27763782E+04</rscale>
<asrwt>0</asrwt>
<pdfrwt beam="1">  1        2 0.26761408E+00 0.27763782E+04</pdfrwt>
<pdfrwt beam="2">  1       -1 0.17043610E+00 0.27763782E+04</pdfrwt>
<totfact> 0.22598849E+00</totfact>
</mgrwt>
</event>
<event>
12    7  0.1544987E-007  0.1259233E+04  0.7818608E-02  0.9062534E-01
          2   -1    0    0  501    0  0.00000000000E+00  0.00000000000E+00  0.84947184179E+03  0.84947184179E+03  0.00000000000E+00 0. -1.
         -1   -1    0    0    0  501 -0.00000000000E+00 -0.00000000000E+00 -0.46666267510E+03  0.46666267510E+03  0.00000000000E+00 0.  1.
         24    2    1    2    0    0  0.37348474464E+02 -0.67599514367E+02 -0.20435629948E+03  0.23222675866E+03  0.78760189281E+02 0.  0.
        254    2    1    2    0    0 -0.37348474464E+02  0.67599514367E+02  0.58716546617E+03  0.10839077582E+04  0.90781503667E+03 0.  0.
         23    2    4    4    0    0 -0.33955225207E+03 -0.24806084133E+03  0.14200492882E+03  0.45335873791E+03  0.92405803616E+02 0.  0.
         23    2    4    4    0    0  0.30220377761E+03  0.31566035569E+03  0.44516053735E+03  0.63054902032E+03  0.91954225891E+02 0.  0.
          4    1    3    3  502    0  0.40650743599E+02 -0.65636832153E+00 -0.10279421354E+03  0.11054213727E+03  0.00000000000E+00 0. -1.
         -3    1    3    3    0  502 -0.33022691357E+01 -0.66943146046E+02 -0.10156208594E+03  0.12168462139E+03  0.00000000000E+00 0.  1.
         13    1    5    5    0    0 -0.14519724849E+03 -0.15518923049E+03  0.95487682132E+02  0.23298891748E+03  0.00000000000E+00 0.  1.
        -13    1    5    5    0    0 -0.19435500358E+03 -0.92871610834E+02  0.46517246689E+02  0.22036982043E+03  0.00000000000E+00 0. -1.
          1    1    6    6  503    0  0.28258223430E+03  0.25900145096E+03  0.35622248097E+03  0.52328665824E+03  0.00000000000E+00 0. -1.
         -1    1    6    6    0  503  0.19621543308E+02  0.56658904730E+02  0.88938056379E+02  0.10726236208E+03  0.00000000000E+00 0.  1.
<mgrwt>
<rscale>  0 0.12592328E+04</rscale>
<asrwt>0</asrwt>
<pdfrwt beam="1">  1        2 0.13068798E+00 0.12592328E+04</pdfrwt>
<pdfrwt beam="2">  1       -1 0.71794258E-01 0.12592328E+04</pdfrwt>
<totfact> 0.69807704E+01</totfact>
</mgrwt>
</event>
<event>
12    7  0.1544987E-007  0.2049116E+04  0.7818608E-02  0.8583996E-01
         -1   -1    0    0    0  501 -0.00000000000E+00  0.00000000000E+00  0.50425188053E+03  0.50425188053E+03  0.00000000000E+00 0.  1.
          2   -1    0    0  501    0  0.00000000000E+00 -0.00000000000E+00 -0.20817350622E+04  0.20817350622E+04  0.00000000000E+00 0. -1.
         24    2    1    2    0    0  0.35162979889E+03 -0.65321476958E+03 -0.10926513653E+04  0.13230795807E+04  0.79495408881E+02 0.  0.
        254    2    1    2    0    0 -0.35162979889E+03  0.65321476958E+03 -0.48483181632E+03  0.12629073620E+04  0.89974444386E+03 0.  0.
         23    2    4    4    0    0  0.25878971837E+03  0.91361453798E+02 -0.28205329790E+03  0.40394373540E+03  0.91090312017E+02 0.  0.
         23    2    4    4    0    0 -0.61041951725E+03  0.56185331579E+03 -0.20277851842E+03  0.85896362661E+03  0.91696503809E+02 0.  0.
          4    1    3    3  502    0  0.29484173052E+03 -0.55701258247E+03 -0.97397307041E+03  0.11600940501E+04  0.00000000000E+00 0. -1.
         -3    1    3    3    0  502  0.56788068369E+02 -0.96202187109E+02 -0.11867829492E+03  0.16298553064E+03  0.00000000000E+00 0.  1.
         13    1    5    5    0    0  0.98304118402E+02  0.41110437464E+02 -0.50893787929E+02  0.11808448422E+03  0.00000000000E+00 0. -1.
        -13    1    5    5    0    0  0.16048559996E+03  0.50251016334E+02 -0.23115950997E+03  0.28585925118E+03  0.00000000000E+00 0.  1.
          3    1    6    6  503    0 -0.32162755035E+03  0.25055911086E+03 -0.13157987824E+03  0.42841266734E+03  0.00000000000E+00 0. -1.
         -3    1    6    6    0  503 -0.28879196690E+03  0.31129420493E+03 -0.71198640173E+02  0.43055095928E+03  0.00000000000E+00 0.  1.
<mgrwt>
<rscale>  0 0.20491157E+04</rscale>
<asrwt>0</asrwt>
<pdfrwt beam="1">  1        2 0.32026693E+00 0.20491157E+04</pdfrwt>
<pdfrwt beam="2">  1       -1 0.77577213E-01 0.20491157E+04</pdfrwt>
<totfact> 0.10552161E+01</totfact>
</mgrwt>
</event>
<event>
12    7  0.1544987E-007  0.1959115E+04  0.7818608E-02  0.8625978E-01
         -1   -1    0    0    0  501 -0.00000000000E+00  0.00000000000E+00  0.92214979982E+03  0.92214979982E+03  0.00000000000E+00 0.  1.
          2   -1    0    0  501    0  0.00000000000E+00 -0.00000000000E+00 -0.10405388453E+04  0.10405388453E+04  0.00000000000E+00 0. -1.
         24    2    1    2    0    0  0.23802848684E+03  0.59540563466E+03 -0.45714204505E+03  0.79259994583E+03  0.89835374114E+02 0.  0.
        254    2    1    2    0    0 -0.23802848684E+03 -0.59540563466E+03  0.33875299956E+03  0.11700886993E+04  0.91825298213E+03 0.  0.
         23    2    4    4    0    0 -0.41933892388E+03 -0.68853528321E+03  0.59050871639E+02  0.81332390821E+03  0.89904421007E+02 0.  0.
         23    2    4    4    0    0  0.18131043705E+03  0.93129648545E+02  0.27970212792E+03  0.35676479109E+03  0.86609640222E+02 0.  0.
          2    1    3    3  502    0  0.23067088633E+03  0.49314044047E+03 -0.39617235879E+03  0.67331202996E+03  0.00000000000E+00 0. -1.
         -1    1    3    3    0  502  0.73576005079E+01  0.10226519420E+03 -0.60969686262E+02  0.11928791587E+03  0.00000000000E+00 0.  1.
         13    1    5    5    0    0 -0.25391909670E+03 -0.48254350612E+03  0.14949764947E+02  0.54547835745E+03  0.00000000000E+00 0. -1.
        -13    1    5    5    0    0 -0.16541982718E+03 -0.20599177708E+03  0.44101106693E+02  0.26784555076E+03  0.00000000000E+00 0.  1.
          1    1    6    6  503    0  0.41887635092E+02  0.39437006392E+02  0.14346825674E+03  0.15457358163E+03  0.00000000000E+00 0. -1.
         -1    1    6    6    0  503  0.13942280195E+03  0.53692642153E+02  0.13623387119E+03  0.20219120946E+03  0.00000000000E+00 0.  1.
<mgrwt>
<rscale>  0 0.19591148E+04</rscale>
<asrwt>0</asrwt>
<pdfrwt beam="1">  1        2 0.16008290E+00 0.19591148E+04</pdfrwt>
<pdfrwt beam="2">  1       -1 0.14186920E+00 0.19591148E+04</pdfrwt>
<totfact> 0.10215174E+01</totfact>
</mgrwt>
</event>
<event>
12    7  0.1544987E-007  0.1217696E+04  0.7818608E-02  0.9097507E-01
         -1   -1    0    0    0  501 -0.00000000000E+00  0.00000000000E+00  0.30004605185E+03  0.30004605185E+03  0.00000000000E+00 0.  1.
          2   -1    0    0  501    0  0.00000000000E+00 -0.00000000000E+00 -0.12354628803E+04  0.12354628803E+04  0.00000000000E+00 0. -1.
         24    2    1    2    0    0 -0.16390186154E+03  0.12839592828E+03 -0.44113689242E+03  0.49445832751E+03  0.80857561034E+02 0.  0.
        254    2    1    2    0    0  0.16390186154E+03 -0.12839592828E+03 -0.49427993600E+03  0.10410506046E+04  0.89225801853E+03 0.  0.
         23    2    4    4    0    0 -0.28806544388E+03  0.17418215152E+03 -0.99951576461E+02  0.36317881322E+03  0.92668284055E+02 0.  0.
         23    2    4    4    0    0  0.45196730542E+03 -0.30257807980E+03 -0.39432835954E+03  0.67787179140E+03  0.90484091898E+02 0.  0.
          2    1    3    3  502    0 -0.12025097522E+03  0.12686176247E+03 -0.38882945950E+03  0.42631274012E+03  0.00000000000E+00 0. -1.
         -1    1    3    3    0  502 -0.43650886328E+02  0.15341658131E+01 -0.52307432922E+02  0.68145587391E+02  0.00000000000E+00 0.  1.
         13    1    5    5    0    0 -0.14124336164E+02  0.21305849905E+02  0.14323743937E+02  0.29301975234E+02  0.00000000000E+00 0.  1.
        -13    1    5    5    0    0 -0.27394110772E+03  0.15287630162E+03 -0.11427532040E+03  0.33387683799E+03  0.00000000000E+00 0. -1.
          2    1    6    6  503    0  0.34489783032E+03 -0.19264267509E+03 -0.25208558711E+03  0.46862869828E+03  0.00000000000E+00 0. -1.
         -2    1    6    6    0  503  0.10706947511E+03 -0.10993540471E+03 -0.14224277243E+03  0.20924309312E+03  0.00000000000E+00 0.  1.
<mgrwt>
<rscale>  0 0.12176958E+04</rscale>
<asrwt>0</asrwt>
<pdfrwt beam="1">  1        2 0.19007121E+00 0.12176958E+04</pdfrwt>
<pdfrwt beam="2">  1       -1 0.46160931E-01 0.12176958E+04</pdfrwt>
<totfact> 0.94604311E+01</totfact>
</mgrwt>
</event>
<event>
12    7  0.1544987E-007  0.1668291E+04  0.7818608E-02  0.8779659E-01
         -1   -1    0    0    0  501 -0.00000000000E+00  0.00000000000E+00  0.25516833641E+03  0.25516833641E+03  0.00000000000E+00 0.  1.
          2   -1    0    0  501    0  0.00000000000E+00 -0.00000000000E+00 -0.27268232167E+04  0.27268232167E+04  0.00000000000E+00 0. -1.
         24    2    1    2    0    0  0.54540763772E+02 -0.53411268871E+03 -0.11132191182E+04  0.12384563846E+04  0.79160294697E+02 0.  0.
        254    2    1    2    0    0 -0.54540763772E+02  0.53411268871E+03 -0.13584357620E+04  0.17435351685E+04  0.95200635762E+03 0.  0.
         23    2    4    4    0    0 -0.10670993091E+03  0.52041837225E+03 -0.19192963452E+03  0.57214867301E+03  0.91075945692E+02 0.  0.
         23    2    4    4    0    0  0.52169167135E+02  0.13694316453E+02 -0.11665061275E+04  0.11713864955E+04  0.92198806423E+02 0.  0.
          4    1    3    3  502    0  0.23097925020E+01  0.24651199436E+01 -0.10042344040E+02  0.10595311772E+02  0.00000000000E+00 0. -1.
         -3    1    3    3    0  502  0.52230971270E+02 -0.53657780865E+03 -0.11031767742E+04  0.12278610728E+04  0.00000000000E+00 0.  1.
         13    1    5    5    0    0  0.15803470009E+02  0.45806063381E+02 -0.23456642323E+02  0.53834553735E+02  0.00000000000E+00 0.  1.
        -13    1    5    5    0    0 -0.12251340092E+03  0.47461230887E+03 -0.16847299220E+03  0.51831411927E+03  0.00000000000E+00 0. -1.
          1    1    6    6  503    0  0.39926263263E+02 -0.37056921739E+02 -0.62518967716E+03  0.62755832747E+03  0.00000000000E+00 0. -1.
         -1    1    6    6    0  503  0.12242903872E+02  0.50751238191E+02 -0.54131645036E+03  0.54382816799E+03  0.00000000000E+00 0.  1.
<mgrwt>
<rscale>  0 0.16682913E+04</rscale>
<asrwt>0</asrwt>
<pdfrwt beam="1">  1        2 0.41951125E+00 0.16682913E+04</pdfrwt>
<pdfrwt beam="2">  1       -1 0.39256668E-01 0.16682913E+04</pdfrwt>
<totfact> 0.17578142E+01</totfact>
</mgrwt>
</event>
<event>
12    7  0.1544987E-007  0.1682573E+04  0.7818608E-02  0.8771367E-01
         -1   -1    0    0    0  501 -0.00000000000E+00  0.00000000000E+00  0.61687929847E+03  0.61687929847E+03  0.00000000000E+00 0.  1.
          2   -1    0    0  501    0  0.00000000000E+00 -0.00000000000E+00 -0.11473280705E+04  0.11473280705E+04  0.00000000000E+00 0. -1.
         24    2    1    2    0    0 -0.49029782711E+02 -0.20619553416E+02  0.43975885447E+03  0.45026343816E+03  0.80747929302E+02 0.  0.
        254    2    1    2    0    0  0.49029782711E+02  0.20619553416E+02 -0.97020762651E+03  0.13139439308E+04  0.88448670383E+03 0.  0.
         23    2    4    4    0    0 -0.11894451209E+03  0.36162787062E+03 -0.79424935567E+03  0.88530939700E+03  0.89544266491E+02 0.  0.
         23    2    4    4    0    0  0.16797429480E+03 -0.34100831720E+03 -0.17595827084E+03  0.42863453383E+03  0.90907724641E+02 0.  0.
          2    1    3    3  502    0 -0.58693939532E+01 -0.14695191547E+02  0.10940495374E+02  0.19237798185E+02  0.00000000000E+00 0. -1.
         -1    1    3    3    0  502 -0.43160388758E+02 -0.59243618692E+01  0.42881835909E+03  0.43102563998E+03  0.00000000000E+00 0.  1.
         13    1    5    5    0    0 -0.65119040483E+02  0.29699655500E+03 -0.57419616386E+03  0.64972969588E+03  0.00000000000E+00 0. -1.
        -13    1    5    5    0    0 -0.53825471611E+02  0.64631315620E+02 -0.22005319181E+03  0.23557970112E+03  0.00000000000E+00 0.  1.
          2    1    6    6  503    0  0.53118704716E+02 -0.20162899515E+03 -0.74089395642E+02  0.22128056178E+03  0.00000000000E+00 0. -1.
         -2    1    6    6    0  503  0.11485559009E+03 -0.13937932205E+03 -0.10186887519E+03  0.20735397205E+03  0.00000000000E+00 0.  1.
<mgrwt>
<rscale>  0 0.16825730E+04</rscale>
<asrwt>0</asrwt>
<pdfrwt beam="1">  1        2 0.17651201E+00 0.16825730E+04</pdfrwt>
<pdfrwt beam="2">  1       -1 0.94904508E-01 0.16825730E+04</pdfrwt>
<totfact> 0.23768507E+01</totfact>
</mgrwt>
</event>
<event>
12    7  0.1544987E-007  0.1981627E+04  0.7818608E-02  0.8615259E-01
         -1   -1    0    0    0  501 -0.00000000000E+00  0.00000000000E+00  0.80977248831E+03  0.80977248831E+03  0.00000000000E+00 0.  1.
          2   -1    0    0  501    0  0.00000000000E+00 -0.00000000000E+00 -0.12123301741E+04  0.12123301741E+04  0.00000000000E+00 0. -1.
         24    2    1    2    0    0  0.69491114295E+03  0.30750718161E+03  0.41296076608E+02  0.76457472186E+03  0.73532142805E+02 0.  0.
        254    2    1    2    0    0 -0.69491114295E+03 -0.30750718161E+03 -0.44385376242E+03  0.12575279406E+04  0.89828068862E+03 0.  0.
         23    2    4    4    0    0 -0.84136443298E+03 -0.12206894161E+03 -0.51312191283E+03  0.99718663441E+03  0.91061247669E+02 0.  0.
         23    2    4    4    0    0  0.14645329003E+03 -0.18543823999E+03  0.69268150411E+02  0.26034130616E+03  0.84519891242E+02 0.  0.
          2    1    3    3  502    0  0.30317673933E+03  0.15680196279E+03 -0.11654694591E+02  0.34152426372E+03  0.00000000000E+00 0. -1.
         -1    1    3    3    0  502  0.39173440362E+03  0.15070521882E+03  0.52950771198E+02  0.42305045814E+03  0.00000000000E+00 0.  1.
         13    1    5    5    0    0 -0.50293113554E+02 -0.93455223325E+01 -0.77880417317E+01  0.51743498651E+02  0.00000000000E+00 0.  1.
        -13    1    5    5    0    0 -0.79107131943E+03 -0.11272341928E+03 -0.50533387110E+03  0.94544313576E+03  0.00000000000E+00 0. -1.
          3    1    6    6  503    0  0.11360422431E+03 -0.18335757023E+03  0.47462800045E+02  0.22085885929E+03  0.00000000000E+00 0. -1.
         -3    1    6    6    0  503  0.32849065725E+02 -0.20806697678E+01  0.21805350365E+02  0.39482446862E+02  0.00000000000E+00 0.  1.
<mgrwt>
<rscale>  0 0.19816272E+04</rscale>
<asrwt>0</asrwt>
<pdfrwt beam="1">  1        2 0.18651233E+00 0.19816272E+04</pdfrwt>
<pdfrwt beam="2">  1       -1 0.12458038E+00 0.19816272E+04</pdfrwt>
<totfact> 0.11149421E+01</totfact>
</mgrwt>
</event>
<event>
12    7  0.1544987E-007  0.2320128E+04  0.7818608E-02  0.8470027E-01
         -1   -1    0    0    0  501 -0.00000000000E+00  0.00000000000E+00  0.63902563459E+03  0.63902563459E+03  0.00000000000E+00 0.  1.
          2   -1    0    0  501    0  0.00000000000E+00 -0.00000000000E+00 -0.21059390509E+04  0.21059390509E+04  0.00000000000E+00 0. -1.
         24    2    1    2    0    0  0.55429694084E+03  0.49300986573E+03  0.14111178594E+03  0.75929036789E+03  0.79407180523E+02 0.  0.
        254    2    1    2    0    0 -0.55429694084E+03 -0.49300986573E+03 -0.16080252023E+04  0.19856743176E+04  0.89825030932E+03 0.  0.
         23    2    4    4    0    0 -0.60994355289E+03 -0.68756522168E+03 -0.11355002051E+04  0.14640251099E+04  0.96081917910E+02 0.  0.
         23    2    4    4    0    0  0.55646612053E+02  0.19455535595E+03 -0.47252499715E+03  0.52164920767E+03  0.88823932452E+02 0.  0.
          2    1    3    3  502    0  0.27561253681E+03  0.23770176889E+03  0.10924238420E+03  0.37999776299E+03  0.00000000000E+00 0. -1.
         -1    1    3    3    0  502  0.27868440403E+03  0.25530809684E+03  0.31869401740E+02  0.37929260490E+03  0.00000000000E+00 0.  1.
         13    1    5    5    0    0 -0.50539807810E+03 -0.51013996845E+03 -0.89081778753E+03  0.11442142873E+04  0.00000000000E+00 0.  1.
        -13    1    5    5    0    0 -0.10454547479E+03 -0.17742525323E+03 -0.24468241759E+03  0.31981082261E+03  0.00000000000E+00 0. -1.
          3    1    6    6  503    0  0.30688762902E+02  0.14705255256E+03 -0.24097937974E+03  0.28396710169E+03  0.00000000000E+00 0. -1.
         -3    1    6    6    0  503  0.24957849152E+02  0.47502803391E+02 -0.23154561741E+03  0.23768210598E+03  0.00000000000E+00 0.  1.
<mgrwt>
<rscale>  0 0.23201285E+04</rscale>
<asrwt>0</asrwt>
<pdfrwt beam="1">  1        2 0.32399063E+00 0.23201285E+04</pdfrwt>
<pdfrwt beam="2">  1       -1 0.98311634E-01 0.23201285E+04</pdfrwt>
<totfact> 0.59507381E+00</totfact>
</mgrwt>
</event>
<event>
12    7  0.1544987E-007  0.1507524E+04  0.7818608E-02  0.8879465E-01
          2   -1    0    0  501    0  0.00000000000E+00  0.00000000000E+00  0.51349718387E+03  0.51349718387E+03  0.00000000000E+00 0. -1.
         -1   -1    0    0    0  501 -0.00000000000E+00 -0.00000000000E+00 -0.11064464877E+04  0.11064464877E+04  0.00000000000E+00 0.  1.
         24    2    1    2    0    0 -0.42138675333E+03  0.21038266890E+03 -0.30252163938E+03  0.56526768690E+03  0.78616488789E+02 0.  0.
        254    2    1    2    0    0  0.42138675333E+03 -0.21038266890E+03 -0.29042766443E+03  0.10546759847E+04  0.89786721797E+03 0.  0.
         23    2    4    4    0    0  0.58383999896E+03 -0.40081725616E+03 -0.32882521583E+03  0.78623900953E+03  0.92315439219E+02 0.  0.
         23    2    4    4    0    0 -0.16245324564E+03  0.19043458727E+03  0.38397551394E+02  0.26843697513E+03  0.89037343950E+02 0.  0.
          4    1    3    3  502    0 -0.18764920502E+03  0.65223131332E+02 -0.16186588908E+03  0.25625543322E+03  0.00000000000E+00 0. -1.
         -3    1    3    3    0  502 -0.23373754830E+03  0.14515953756E+03 -0.14065575030E+03  0.30901225368E+03  0.00000000000E+00 0.  1.
         13    1    5    5    0    0  0.12913987566E+03 -0.87463279836E+02 -0.31693904249E+02  0.15915852592E+03  0.00000000000E+00 0. -1.
        -13    1    5    5    0    0  0.45470012330E+03 -0.31335397632E+03 -0.29713131158E+03  0.62708048361E+03  0.00000000000E+00 0.  1.
          2    1    6    6  503    0 -0.25662419145E+02 -0.30161996546E+01 -0.79165582177E+01  0.27024601954E+02  0.00000000000E+00 0. -1.
         -2    1    6    6    0  503 -0.13679082649E+03  0.19345078692E+03  0.46314109611E+02  0.24141237317E+03  0.00000000000E+00 0.  1.
<mgrwt>
<rscale>  0 0.15075240E+04</rscale>
<asrwt>0</asrwt>
<pdfrwt beam="1">  1        2 0.78999568E-01 0.15075240E+04</pdfrwt>
<pdfrwt beam="2">  1       -1 0.17022253E+00 0.15075240E+04</pdfrwt>
<totfact> 0.16152264E+01</totfact>
</mgrwt>
</event>
<event>
12    7  0.1544987E-007  0.4263748E+04  0.7818608E-02  0.7953356E-01
          2   -1    0    0  501    0  0.00000000000E+00  0.00000000000E+00  0.13741367633E+04  0.13741367633E+04  0.00000000000E+00 0. -1.
         -1   -1    0    0    0  501 -0.00000000000E+00 -0.00000000000E+00 -0.33074487969E+04  0.33074487969E+04  0.00000000000E+00 0.  1.
         24    2    1    2    0    0  0.14314448381E+04  0.14086698250E+04 -0.54990343032E+03  0.20847263294E+04  0.10151396677E+03 0.  0.
        254    2    1    2    0    0 -0.14314448381E+04 -0.14086698250E+04 -0.13834086032E+04  0.25968592308E+04  0.89245364077E+03 0.  0.
         23    2    4    4    0    0 -0.14548903637E+04 -0.13717429104E+04 -0.14523173375E+04  0.24728027797E+04  0.84518375949E+02 0.  0.
         23    2    4    4    0    0  0.23445525678E+02 -0.36926914574E+02  0.68908734254E+02  0.12405645109E+03  0.93425369714E+02 0.  0.
          4    1    3    3  502    0  0.45219408436E+03  0.45055564576E+03 -0.12619557759E+03  0.65069593795E+03  0.00000000000E+00 0. -1.
         -3    1    3    3    0  502  0.97925075370E+03  0.95811417925E+03 -0.42370785274E+03  0.14340303914E+04  0.00000000000E+00 0.  1.
         13    1    5    5    0    0 -0.10927353967E+04 -0.10478816624E+04 -0.11408135559E+04  0.18956746015E+04  0.00000000000E+00 0. -1.
        -13    1    5    5    0    0 -0.36215496701E+03 -0.32386124802E+03 -0.31150378162E+03  0.57712817819E+03  0.00000000000E+00 0.  1.
          1    1    6    6  503    0  0.49228291531E+02 -0.20887938401E+02  0.75948601877E+02  0.92886601750E+02  0.00000000000E+00 0. -1.
         -1    1    6    6    0  503 -0.25782765852E+02 -0.16038976173E+02 -0.70398676230E+01  0.31169849339E+02  0.00000000000E+00 0.  1.
<mgrwt>
<rscale>  0 0.42637481E+04</rscale>
<asrwt>0</asrwt>
<pdfrwt beam="1">  1        2 0.21140566E+00 0.42637481E+04</pdfrwt>
<pdfrwt beam="2">  1       -1 0.50883828E+00 0.42637481E+04</pdfrwt>
<totfact> 0.17287050E-02</totfact>
</mgrwt>
</event>
<event>
12    7  0.1544987E-007  0.2005615E+04  0.7818608E-02  0.8604000E-01
         -3   -1    0    0    0  501 -0.00000000000E+00  0.00000000000E+00  0.54643772034E+03  0.54643772034E+03  0.00000000000E+00 0.  1.
          4   -1    0    0  501    0  0.00000000000E+00 -0.00000000000E+00 -0.18403244677E+04  0.18403244677E+04  0.00000000000E+00 0. -1.
         24    2    1    2    0    0  0.93506978258E+02 -0.51030419905E+03  0.20598784202E+03  0.56383225227E+03  0.79510295498E+02 0.  0.
        254    2    1    2    0    0 -0.93506978258E+02  0.51030419905E+03 -0.14998745894E+04  0.18229299358E+04  0.89682542131E+03 0.  0.
         23    2    4    4    0    0 -0.12337664340E+03  0.62727332094E+03 -0.51376954328E+03  0.82524830908E+03  0.91553332810E+02 0.  0.
         23    2    4    4    0    0  0.29869665142E+02 -0.11696912188E+03 -0.98610504609E+03  0.99768162668E+03  0.91605097642E+02 0.  0.
          4    1    3    3  502    0  0.98639455613E+01 -0.24708169488E+01  0.34348657970E+01  0.10733157107E+02  0.00000000000E+00 0. -1.
         -3    1    3    3    0  502  0.83643032696E+02 -0.50783338210E+03  0.20255297622E+03  0.55309909517E+03  0.00000000000E+00 0.  1.
         13    1    5    5    0    0 -0.13618090449E+03  0.54340298596E+03 -0.43215839277E+03  0.70752591496E+03  0.00000000000E+00 0. -1.
        -13    1    5    5    0    0  0.12804261088E+02  0.83870334982E+02 -0.81611150504E+02  0.11772239413E+03  0.00000000000E+00 0.  1.
          1    1    6    6  503    0  0.45201580596E+02 -0.11295397372E+03 -0.95551811592E+03  0.96323239818E+03  0.00000000000E+00 0. -1.
         -1    1    6    6    0  503 -0.15331915455E+02 -0.40151481684E+01 -0.30586930176E+02  0.34449228495E+02  0.00000000000E+00 0.  1.
<mgrwt>
<rscale>  0 0.20056148E+04</rscale>
<asrwt>0</asrwt>
<pdfrwt beam="1">  1        4 0.28312684E+00 0.20056148E+04</pdfrwt>
<pdfrwt beam="2">  1       -3 0.84067342E-01 0.20056148E+04</pdfrwt>
<totfact> 0.10855403E-01</totfact>
</mgrwt>
</event>
<event>
12    7  0.1544987E-007  0.1181656E+04  0.7818608E-02  0.9129066E-01
         -1   -1    0    0    0  501 -0.00000000000E+00  0.00000000000E+00  0.14919969816E+03  0.14919969816E+03  0.00000000000E+00 0.  1.
          2   -1    0    0  501    0  0.00000000000E+00 -0.00000000000E+00 -0.23396675900E+04  0.23396675900E+04  0.00000000000E+00 0. -1.
         24    2    1    2    0    0  0.15091952015E+03  0.23279646046E+02 -0.82117493624E+03  0.83912703714E+03  0.80543560040E+02 0.  0.
        254    2    1    2    0    0 -0.15091952015E+03 -0.23279646046E+02 -0.13692929556E+04  0.16497402510E+04  0.90739244769E+03 0.  0.
         23    2    4    4    0    0 -0.49811611137E+03  0.28612528704E+02 -0.52470457987E+03  0.73032166968E+03  0.95480405613E+02 0.  0.
         23    2    4    4    0    0  0.34719659122E+03 -0.51892174749E+02 -0.84458837573E+03  0.91941858135E+03  0.93609468381E+02 0.  0.
          4    1    3    3  502    0  0.10901796323E+03 -0.25834085015E+01 -0.69812589882E+03  0.70659136771E+03  0.00000000000E+00 0. -1.
         -3    1    3    3    0  502  0.41901556922E+02  0.25863054547E+02 -0.12304903742E+03  0.13253566943E+03  0.00000000000E+00 0.  1.
         13    1    5    5    0    0 -0.37065771744E+03 -0.19988397917E+02 -0.37091620896E+03  0.52475281192E+03  0.00000000000E+00 0.  1.
        -13    1    5    5    0    0 -0.12745839393E+03  0.48600926620E+02 -0.15378837092E+03  0.20556885776E+03  0.00000000000E+00 0. -1.
          1    1    6    6  503    0  0.19125655381E+03 -0.75422453998E+02 -0.48309932045E+03  0.52502625588E+03  0.00000000000E+00 0. -1.
         -1    1    6    6    0  503  0.15594003740E+03  0.23530279249E+02 -0.36148905527E+03  0.39439232547E+03  0.00000000000E+00 0.  1.
<mgrwt>
<rscale>  0 0.11816560E+04</rscale>
<asrwt>0</asrwt>
<pdfrwt beam="1">  1        2 0.35994884E+00 0.11816560E+04</pdfrwt>
<pdfrwt beam="2">  1       -1 0.22953801E-01 0.11816560E+04</pdfrwt>
<totfact> 0.78876801E+01</totfact>
</mgrwt>
</event>
<event>
12    7  0.1544987E-007  0.2092531E+04  0.7818608E-02  0.8564541E-01
          2   -1    0    0  501    0  0.00000000000E+00  0.00000000000E+00  0.89089104288E+03  0.89089104288E+03  0.00000000000E+00 0. -1.
         -1   -1    0    0    0  501 -0.00000000000E+00 -0.00000000000E+00 -0.12287377992E+04  0.12287377992E+04  0.00000000000E+00 0.  1.
         24    2    1    2    0    0  0.32464331845E+03 -0.75010306576E+02  0.65668132554E+03  0.74000509993E+03  0.73193949893E+02 0.  0.
        254    2    1    2    0    0 -0.32464331845E+03  0.75010306576E+02 -0.99452808188E+03  0.13796237422E+04  0.89624535370E+03 0.  0.
         23    2    4    4    0    0 -0.23410043089E+03 -0.71154655430E+02 -0.11197039173E+04  0.11501991974E+04  0.96722978795E+02 0.  0.
         23    2    4    4    0    0 -0.90542887556E+02  0.14616496201E+03  0.12517583541E+03  0.22942454475E+03  0.86048947451E+02 0.  0.
          4    1    3    3  502    0  0.12374146300E+03 -0.22725260326E+02  0.32747597400E+03  0.35081177384E+03  0.00000000000E+00 0. -1.
         -3    1    3    3    0  502  0.20090185545E+03 -0.52285046250E+02  0.32920535154E+03  0.38919332609E+03  0.00000000000E+00 0.  1.
         13    1    5    5    0    0 -0.12653426680E+02 -0.14922647183E+01 -0.24133038340E+03  0.24166648508E+03  0.00000000000E+00 0. -1.
        -13    1    5    5    0    0 -0.22144700421E+03 -0.69662390712E+02 -0.87837353390E+03  0.90853271235E+03  0.00000000000E+00 0.  1.
          4    1    6    6  503    0  0.15665509193E+02  0.30092262733E+02  0.31632933213E+02  0.46385287736E+02  0.00000000000E+00 0. -1.
         -4    1    6    6    0  503 -0.10620839675E+03  0.11607269927E+03  0.93542902199E+02  0.18303925701E+03  0.00000000000E+00 0.  1.
<mgrwt>
<rscale>  0 0.20925310E+04</rscale>
<asrwt>0</asrwt>
<pdfrwt beam="1">  1        2 0.13706016E+00 0.20925310E+04</pdfrwt>
<pdfrwt beam="2">  1       -1 0.18903658E+00 0.20925310E+04</pdfrwt>
<totfact> 0.56154874E+00</totfact>
</mgrwt>
</event>
<event>
12    7  0.1544987E-007  0.2044150E+04  0.7818608E-02  0.8586253E-01
         -1   -1    0    0    0  501 -0.00000000000E+00  0.00000000000E+00  0.10503637167E+04  0.10503637167E+04  0.00000000000E+00 0.  1.
          2   -1    0    0  501    0  0.00000000000E+00 -0.00000000000E+00 -0.99454810869E+03  0.99454810869E+03  0.00000000000E+00 0. -1.
         24    2    1    2    0    0  0.41040149446E+03  0.20868299116E+03  0.69587783839E+03  0.83818989059E+03  0.79613750516E+02 0.  0.
        254    2    1    2    0    0 -0.41040149446E+03 -0.20868299116E+03 -0.64006223039E+03  0.12067219348E+04  0.91352076697E+03 0.  0.
         23    2    4    4    0    0 -0.31942978746E+03  0.22879111288E+03 -0.63210052007E+03  0.75003775792E+03  0.92869846504E+02 0.  0.
         23    2    4    4    0    0 -0.90971706998E+02 -0.43747410404E+03 -0.79617103242E+01  0.45668417687E+03  0.94008538954E+02 0.  0.
          2    1    3    3  502    0  0.21193838631E+03  0.98661819365E+02  0.42287643192E+03  0.48319407163E+03  0.00000000000E+00 0. -1.
         -1    1    3    3    0  502  0.19846310815E+03  0.11002117179E+03  0.27300140648E+03  0.35499581896E+03  0.00000000000E+00 0.  1.
         13    1    5    5    0    0 -0.27486382211E+02 -0.69269491057E+01 -0.39080530360E+02  0.48278066284E+02  0.00000000000E+00 0. -1.
        -13    1    5    5    0    0 -0.29194340525E+03  0.23571806198E+03 -0.59301998971E+03  0.70175969164E+03  0.00000000000E+00 0.  1.
          1    1    6    6  503    0 -0.43514333682E+02 -0.12524288474E+03 -0.41896763066E+02  0.13904897040E+03  0.00000000000E+00 0. -1.
         -1    1    6    6    0  503 -0.47457373316E+02 -0.31223121930E+03  0.33935052742E+02  0.31763520647E+03  0.00000000000E+00 0.  1.
<mgrwt>
<rscale>  0 0.20441499E+04</rscale>
<asrwt>0</asrwt>
<pdfrwt beam="1">  1        2 0.15300740E+00 0.20441499E+04</pdfrwt>
<pdfrwt beam="2">  1       -1 0.16159442E+00 0.20441499E+04</pdfrwt>
<totfact> 0.76217787E+00</totfact>
</mgrwt>
</event>
<event>
12    7  0.1544987E-007  0.2309801E+04  0.7818608E-02  0.8474067E-01
          2   -1    0    0  501    0  0.00000000000E+00  0.00000000000E+00  0.19934342385E+04  0.19934342385E+04  0.00000000000E+00 0. -1.
         -1   -1    0    0    0  501 -0.00000000000E+00 -0.00000000000E+00 -0.66909408249E+03  0.66909408249E+03  0.00000000000E+00 0.  1.
         24    2    1    2    0    0  0.90853103697E+03  0.13198866438E+03  0.95683483278E+03  0.13282018734E+04  0.75747386122E+02 0.  0.
        254    2    1    2    0    0 -0.90853103697E+03 -0.13198866438E+03  0.36750532325E+03  0.13343264476E+04  0.89583327333E+03 0.  0.
         23    2    4    4    0    0 -0.79333611377E+03  0.27803313732E+03  0.20498250742E+03  0.86984343106E+03  0.89023319157E+02 0.  0.
         23    2    4    4    0    0 -0.11519492320E+03 -0.41002180170E+03  0.16252281584E+03  0.46448301659E+03  0.89123839831E+02 0.  0.
          4    1    3    3  502    0  0.27541866538E+03  0.60320596103E+02  0.33556363545E+03  0.43828868225E+03  0.00000000000E+00 0. -1.
         -3    1    3    3    0  502  0.63311237159E+03  0.71668068281E+02  0.62127119734E+03  0.88991319111E+03  0.00000000000E+00 0.  1.
         13    1    5    5    0    0 -0.90022840333E+02  0.61229162468E+02  0.36563173421E+02  0.11484767202E+03  0.00000000000E+00 0. -1.
        -13    1    5    5    0    0 -0.70331327344E+03  0.21680397485E+03  0.16841933399E+03  0.75499575904E+03  0.00000000000E+00 0.  1.
          3    1    6    6  503    0 -0.81056044737E+01  0.25741312430E+01  0.59094213699E+01  0.10356072444E+02  0.00000000000E+00 0. -1.
         -3    1    6    6    0  503 -0.10708931873E+03 -0.41259593295E+03  0.15661339447E+03  0.45412694414E+03  0.00000000000E+00 0.  1.
<mgrwt>
<rscale>  0 0.23098009E+04</rscale>
<asrwt>0</asrwt>
<pdfrwt beam="1">  1        2 0.30668219E+00 0.23098009E+04</pdfrwt>
<pdfrwt beam="2">  1       -1 0.10293755E+00 0.23098009E+04</pdfrwt>
<totfact> 0.61927914E+00</totfact>
</mgrwt>
</event>
<event>
12    7  0.1544987E-007  0.1222404E+04  0.7818608E-02  0.9093469E-01
         -1   -1    0    0    0  501 -0.00000000000E+00  0.00000000000E+00  0.24986482071E+03  0.24986482071E+03  0.00000000000E+00 0.  1.
          2   -1    0    0  501    0  0.00000000000E+00 -0.00000000000E+00 -0.14950801625E+04  0.14950801625E+04  0.00000000000E+00 0. -1.
         24    2    1    2    0    0  0.11211677238E+03  0.29488480248E+02 -0.64471610326E+03  0.66030472146E+03  0.83088689125E+02 0.  0.
        254    2    1    2    0    0 -0.11211677238E+03 -0.29488480248E+02 -0.60049923852E+03  0.10846402617E+04  0.89577085285E+03 0.  0.
         23    2    4    4    0    0 -0.11059233191E+03  0.18089017601E+03 -0.76378456082E+03  0.79891255304E+03  0.99712047399E+02 0.  0.
         23    2    4    4    0    0 -0.15244404721E+01 -0.21037865626E+03  0.16328532230E+03  0.28572770871E+03  0.10352161184E+03 0.  0.
          4    1    3    3  502    0  0.65649272975E+02  0.31213284615E+02 -0.55007605643E+03  0.55485832789E+03  0.00000000000E+00 0. -1.
         -3    1    3    3    0  502  0.46467499407E+02 -0.17248043666E+01 -0.94640046832E+02  0.10544639356E+03  0.00000000000E+00 0.  1.
         13    1    5    5    0    0 -0.89355903831E+02  0.60223109522E+02 -0.28472032503E+03  0.30442891445E+03  0.00000000000E+00 0. -1.
        -13    1    5    5    0    0 -0.21236428079E+02  0.12066706649E+03 -0.47906423580E+03  0.49448363859E+03  0.00000000000E+00 0.  1.
          2    1    6    6  503    0 -0.33002458939E+02 -0.19734035978E+03  0.14465246480E+03  0.24689413818E+03  0.00000000000E+00 0.  1.
         -2    1    6    6    0  503  0.31478018467E+02 -0.13038296476E+02  0.18632857500E+02  0.38833570531E+02  0.00000000000E+00 0. -1.
<mgrwt>
<rscale>  0 0.12224041E+04</rscale>
<asrwt>0</asrwt>
<pdfrwt beam="1">  1        2 0.23001234E+00 0.12224041E+04</pdfrwt>
<pdfrwt beam="2">  1       -1 0.38440741E-01 0.12224041E+04</pdfrwt>
<totfact> 0.93901149E+01</totfact>
</mgrwt>
</event>
<event>
12    7  0.1544987E-007  0.1398769E+04  0.7818608E-02  0.8954710E-01
          2   -1    0    0  501    0  0.00000000000E+00  0.00000000000E+00  0.36504451191E+03  0.36504451191E+03  0.00000000000E+00 0. -1.
         -1   -1    0    0    0  501 -0.00000000000E+00 -0.00000000000E+00 -0.13399430241E+04  0.13399430241E+04  0.00000000000E+00 0.  1.
         24    2    1    2    0    0 -0.24428123189E+03  0.19869434350E+03 -0.61166488797E+03  0.69268784318E+03  0.80806871789E+02 0.  0.
        254    2    1    2    0    0  0.24428123189E+03 -0.19869434350E+03 -0.36323362424E+03  0.10122996929E+04  0.89087554685E+03 0.  0.
         23    2    4    4    0    0 -0.15577163454E+03  0.15249988954E+03 -0.40884283803E+03  0.47212464619E+03  0.90709409100E+02 0.  0.
         23    2    4    4    0    0  0.40005286643E+03 -0.35119423304E+03  0.45609213790E+02  0.54017504666E+03  0.79556240436E+02 0.  0.
          4    1    3    3  502    0 -0.90288749017E+02  0.27670607294E+02 -0.16060641432E+03  0.18631194548E+03  0.00000000000E+00 0. -1.
         -3    1    3    3    0  502 -0.15399248287E+03  0.17102373620E+03 -0.45105847364E+03  0.50637589770E+03  0.00000000000E+00 0.  1.
         13    1    5    5    0    0 -0.68887967302E+02  0.18022010008E+02 -0.17290798091E+03  0.18699602869E+03  0.00000000000E+00 0. -1.
        -13    1    5    5    0    0 -0.86883667240E+02  0.13447787953E+03 -0.23593485712E+03  0.28512861750E+03  0.00000000000E+00 0.  1.
          2    1    6    6  503    0  0.96934673954E+01 -0.20675007203E+02 -0.11389806300E+02  0.25517580617E+02  0.00000000000E+00 0. -1.
         -2    1    6    6    0  503  0.39035939904E+03 -0.33051922583E+03  0.56999020091E+02  0.51465746604E+03  0.00000000000E+00 0.  1.
<mgrwt>
<rscale>  0 0.13987692E+04</rscale>
<asrwt>0</asrwt>
<pdfrwt beam="1">  1        2 0.56160694E-01 0.13987692E+04</pdfrwt>
<pdfrwt beam="2">  1       -1 0.20614508E+00 0.13987692E+04</pdfrwt>
<totfact> 0.13411824E+01</totfact>
</mgrwt>
</event>
<event>
12    7  0.1544987E-007  0.2397991E+04  0.7818608E-02  0.8440256E-01
         -1   -1    0    0    0  501 -0.00000000000E+00  0.00000000000E+00  0.19785130260E+04  0.19785130260E+04  0.00000000000E+00 0.  1.
          2   -1    0    0  501    0  0.00000000000E+00 -0.00000000000E+00 -0.72660159915E+03  0.72660159915E+03  0.00000000000E+00 0. -1.
         24    2    1    2    0    0  0.68248588541E+02 -0.44585315203E+03  0.15809843251E+04  0.16459226651E+04  0.78147810076E+02 0.  0.
        254    2    1    2    0    0 -0.68248588541E+02  0.44585315203E+03 -0.32907289828E+03  0.10591919600E+04  0.90008651407E+03 0.  0.
         23    2    4    4    0    0  0.38633459032E+03  0.25075165665E+03 -0.29572980672E+03  0.55486764285E+03  0.91055881204E+02 0.  0.
         23    2    4    4    0    0 -0.45458317886E+03  0.19510149539E+03 -0.33343091552E+02  0.50432431719E+03  0.92308153240E+02 0.  0.
          2    1    3    3  502    0  0.18320100683E+01 -0.22339635888E+03  0.69482569504E+03  0.72985754494E+03  0.00000000000E+00 0. -1.
         -1    1    3    3    0  502  0.66416578473E+02 -0.22245679316E+03  0.88615863006E+03  0.91606512015E+03  0.00000000000E+00 0.  1.
         13    1    5    5    0    0  0.11068396160E+03  0.34181301585E+02 -0.46872171465E+02  0.12496519992E+03  0.00000000000E+00 0. -1.
        -13    1    5    5    0    0  0.27565062872E+03  0.21657035506E+03 -0.24885763526E+03  0.42990244293E+03  0.00000000000E+00 0.  1.
          3    1    6    6  503    0 -0.14541908883E+03  0.99723842750E+02 -0.39608279259E+02  0.18072180830E+03  0.00000000000E+00 0. -1.
         -3    1    6    6    0  503 -0.30916409003E+03  0.95377652636E+02  0.62651877076E+01  0.32360250889E+03  0.00000000000E+00 0.  1.
<mgrwt>
<rscale>  0 0.23979914E+04</rscale>
<asrwt>0</asrwt>
<pdfrwt beam="1">  1        2 0.11178486E+00 0.23979914E+04</pdfrwt>
<pdfrwt beam="2">  1       -1 0.30438662E+00 0.23979914E+04</pdfrwt>
<totfact> 0.12401070E+00</totfact>
</mgrwt>
</event>
<event>
12    7  0.1544987E-007  0.2035625E+04  0.7818608E-02  0.8590144E-01
         -1   -1    0    0    0  501 -0.00000000000E+00  0.00000000000E+00  0.66116549081E+03  0.66116549081E+03  0.00000000000E+00 0.  1.
          2   -1    0    0  501    0  0.00000000000E+00 -0.00000000000E+00 -0.15668423270E+04  0.15668423270E+04  0.00000000000E+00 0. -1.
         24    2    1    2    0    0 -0.76602981998E+03 -0.48509627061E+02 -0.73190591911E+03  0.10636682857E+04  0.80926377655E+02 0.  0.
        254    2    1    2    0    0  0.76602981998E+03  0.48509627061E+02 -0.17377091707E+03  0.11643395321E+04  0.85809984577E+03 0.  0.
         23    2    4    4    0    0  0.88440574571E+03 -0.15307174963E+03 -0.14801296505E+03  0.91408517898E+03  0.89662662379E+02 0.  0.
         23    2    4    4    0    0 -0.11837592572E+03  0.20158137670E+03 -0.25757952020E+02  0.25025435310E+03  0.85532788637E+02 0.  0.
          4    1    3    3  502    0 -0.10258733105E+03  0.66122907767E+01 -0.66622859743E+02  0.12250097274E+03  0.00000000000E+00 0. -1.
         -3    1    3    3    0  502 -0.66344248893E+03 -0.55121917838E+02 -0.66528305936E+03  0.94116731298E+03  0.00000000000E+00 0.  1.
         13    1    5    5    0    0  0.58764129316E+03 -0.90577139849E+02 -0.13932979053E+03  0.61068756186E+03  0.00000000000E+00 0.  1.
        -13    1    5    5    0    0  0.29676445255E+03 -0.62494609785E+02 -0.86831745215E+01  0.30339761711E+03  0.00000000000E+00 0. -1.
          2    1    6    6  503    0 -0.99800261022E+01  0.48881834977E+02  0.25604280373E+02  0.56076856948E+02  0.00000000000E+00 0.  1.
         -2    1    6    6    0  503 -0.10839589962E+03  0.15269954172E+03 -0.51362232393E+02  0.19417749615E+03  0.00000000000E+00 0. -1.
<mgrwt>
<rscale>  0 0.20356248E+04</rscale>
<asrwt>0</asrwt>
<pdfrwt beam="1">  1        2 0.24105267E+00 0.20356248E+04</pdfrwt>
<pdfrwt beam="2">  1       -1 0.10171777E+00 0.20356248E+04</pdfrwt>
<totfact> 0.11257832E+01</totfact>
</mgrwt>
</event>
<event>
12    7  0.1544987E-007  0.1313985E+04  0.7818608E-02  0.9018548E-01
          2   -1    0    0  501    0  0.00000000000E+00  0.00000000000E+00  0.14152851308E+04  0.14152851308E+04  0.00000000000E+00 0. -1.
         -1   -1    0    0    0  501 -0.00000000000E+00 -0.00000000000E+00 -0.30498379009E+03  0.30498379009E+03  0.00000000000E+00 0.  1.
         24    2    1    2    0    0 -0.29647371454E+03 -0.22229785873E+03  0.29065155796E+03  0.47698262541E+03  0.75637922956E+02 0.  0.
        254    2    1    2    0    0  0.29647371454E+03  0.22229785873E+03  0.81964978273E+03  0.12432862955E+04  0.85826688434E+03 0.  0.
         23    2    4    4    0    0  0.61167435482E+01 -0.27749473951E+03  0.49311692670E+03  0.57312517874E+03  0.90925365530E+02 0.  0.
         23    2    4    4    0    0  0.29035697099E+03  0.49979259824E+03  0.32653285603E+03  0.67016111673E+03  0.91610067399E+02 0.  0.
          4    1    3    3  502    0 -0.15342533597E+03 -0.10812906159E+03  0.99906401819E+02  0.21263235126E+03  0.00000000000E+00 0. -1.
         -3    1    3    3    0  502 -0.14304837857E+03 -0.11416879714E+03  0.19074515614E+03  0.26435027414E+03  0.00000000000E+00 0.  1.
         13    1    5    5    0    0  0.23139093975E+02 -0.20850530183E+03  0.28990298047E+03  0.35784580010E+03  0.00000000000E+00 0. -1.
        -13    1    5    5    0    0 -0.17022350427E+02 -0.68989437681E+02  0.20321394623E+03  0.21527937864E+03  0.00000000000E+00 0.  1.
          1    1    6    6  503    0  0.13336149784E+03  0.29100485469E+03  0.21797139732E+03  0.38727334611E+03  0.00000000000E+00 0. -1.
         -1    1    6    6    0  503  0.15699547315E+03  0.20878774355E+03  0.10856145871E+03  0.28288777061E+03  0.00000000000E+00 0.  1.
<mgrwt>
<rscale>  0 0.13139848E+04</rscale>
<asrwt>0</asrwt>
<pdfrwt beam="1">  1        2 0.21773617E+00 0.13139848E+04</pdfrwt>
<pdfrwt beam="2">  1       -1 0.46920584E-01 0.13139848E+04</pdfrwt>
<totfact> 0.71640773E+01</totfact>
</mgrwt>
</event>
<event>
12    7  0.1544987E-007  0.1354654E+04  0.7818608E-02  0.8987312E-01
          2   -1    0    0  501    0  0.00000000000E+00  0.00000000000E+00  0.48810234934E+03  0.48810234934E+03  0.00000000000E+00 0. -1.
         -3   -1    0    0    0  501 -0.00000000000E+00 -0.00000000000E+00 -0.93990944423E+03  0.93990944423E+03  0.00000000000E+00 0.  1.
         24    2    1    2    0    0 -0.22408719774E+03 -0.28697486964E+03 -0.39511810486E+02  0.37591749747E+03  0.84753370085E+02 0.  0.
        254    2    1    2    0    0  0.22408719774E+03  0.28697486964E+03 -0.41229528441E+03  0.10520942961E+04  0.89685303052E+03 0.  0.
         23    2    4    4    0    0  0.28769097109E+03  0.54703923511E+03 -0.10268404051E+03  0.63314095057E+03  0.91134140266E+02 0.  0.
         23    2    4    4    0    0 -0.63603773346E+02 -0.26006436547E+03 -0.30961124390E+03  0.41895334553E+03  0.89352499745E+02 0.  0.
          4    1    3    3  502    0 -0.79413184686E+02 -0.12050359922E+03  0.24233451303E+02  0.14633807259E+03  0.00000000000E+00 0. -1.
         -3    1    3    3    0  502 -0.14467401306E+03 -0.16647127042E+03 -0.63745261789E+02  0.22957942488E+03  0.00000000000E+00 0.  1.
         13    1    5    5    0    0  0.85359531994E+02  0.24554302106E+03 -0.65952467369E+02  0.26819275316E+03  0.00000000000E+00 0.  1.
        -13    1    5    5    0    0  0.20233143909E+03  0.30149621405E+03 -0.36731573140E+02  0.36494819741E+03  0.00000000000E+00 0. -1.
          1    1    6    6  503    0 -0.74892158946E+02 -0.19684382250E+03 -0.27377294857E+03  0.34540983381E+03  0.00000000000E+00 0. -1.
         -1    1    6    6    0  503  0.11288385600E+02 -0.63220542977E+02 -0.35838295330E+02  0.73543511719E+02  0.00000000000E+00 0.  1.
<mgrwt>
<rscale>  0 0.13546542E+04</rscale>
<asrwt>0</asrwt>
<pdfrwt beam="1">  1        2 0.75092669E-01 0.13546542E+04</pdfrwt>
<pdfrwt beam="2">  1       -3 0.14460145E+00 0.13546542E+04</pdfrwt>
<totfact> 0.13756120E+01</totfact>
</mgrwt>
</event>
<event>
12    7  0.1544987E-007  0.1850806E+04  0.7818608E-02  0.8679739E-01
         -1   -1    0    0    0  501 -0.00000000000E+00  0.00000000000E+00  0.45102054431E+03  0.45102054431E+03  0.00000000000E+00 0.  1.
          2   -1    0    0  501    0  0.00000000000E+00 -0.00000000000E+00 -0.18987394103E+04  0.18987394103E+04  0.00000000000E+00 0. -1.
         24    2    1    2    0    0  0.43794735499E+03 -0.50145573889E+03 -0.80950574028E+03  0.10509023086E+04  0.76422345287E+02 0.  0.
        254    2    1    2    0    0 -0.43794735499E+03  0.50145573889E+03 -0.63821312571E+03  0.12988576460E+04  0.91458156934E+03 0.  0.
         23    2    4    4    0    0 -0.38246497583E+03  0.74227182117E+01  0.98260327646E+02  0.40551070138E+03  0.91919978572E+02 0.  0.
         23    2    4    4    0    0 -0.55482379157E+02  0.49403302068E+03 -0.73647345335E+03  0.89334694464E+03  0.92350939786E+02 0.  0.
          4    1    3    3  502    0  0.44057824810E+03 -0.49589517086E+03 -0.80583393532E+03  0.10437382548E+04  0.00000000000E+00 0. -1.
         -3    1    3    3    0  502 -0.26308931111E+01 -0.55605680283E+01 -0.36718049535E+01  0.71640538089E+01  0.00000000000E+00 0.  1.
         13    1    5    5    0    0 -0.22022627962E+02 -0.60422373141E+01  0.31154223110E+02  0.38627585891E+02  0.00000000000E+00 0. -1.
        -13    1    5    5    0    0 -0.36044234787E+03  0.13464955526E+02  0.67106104536E+02  0.36688311549E+03  0.00000000000E+00 0.  1.
          1    1    6    6  503    0 -0.19019576716E+02  0.12257916796E+03 -0.11938370864E+03  0.17216232632E+03  0.00000000000E+00 0. -1.
         -1    1    6    6    0  503 -0.36462802441E+02  0.37145385272E+03 -0.61708974471E+03  0.72118461831E+03  0.00000000000E+00 0.  1.
<mgrwt>
<rscale>  0 0.18508058E+04</rscale>
<asrwt>0</asrwt>
<pdfrwt beam="1">  1        2 0.29211376E+00 0.18508058E+04</pdfrwt>
<pdfrwt beam="2">  1       -1 0.69387775E-01 0.18508058E+04</pdfrwt>
<totfact> 0.17108312E+01</totfact>
</mgrwt>
</event>
<event>
12    7  0.1544987E-007  0.1494261E+04  0.7818608E-02  0.8888279E-01
          2   -1    0    0  501    0  0.00000000000E+00  0.00000000000E+00  0.33573806513E+04  0.33573806513E+04  0.00000000000E+00 0. -1.
         -1   -1    0    0    0  501 -0.00000000000E+00 -0.00000000000E+00 -0.16626164608E+03  0.16626164608E+03  0.00000000000E+00 0.  1.
         24    2    1    2    0    0 -0.18097087210E+03 -0.32445769719E+03  0.34377002046E+03  0.51229940929E+03  0.79054436843E+02 0.  0.
        254    2    1    2    0    0  0.18097087210E+03  0.32445769719E+03  0.28473489847E+04  0.30113428881E+04  0.90706476878E+03 0.  0.
         23    2    4    4    0    0  0.51546120353E+03  0.97397493609E+02  0.19688274822E+04  0.20396133197E+04  0.92489540509E+02 0.  0.
         23    2    4    4    0    0 -0.33449033144E+03  0.22706020358E+03  0.87852150252E+03  0.97172956834E+03  0.94964233961E+02 0.  0.
          4    1    3    3  502    0 -0.90322530826E+02 -0.91580994400E+02  0.13731659800E+03  0.18815176373E+03  0.00000000000E+00 0. -1.
         -3    1    3    3    0  502 -0.90648341271E+02 -0.23287670279E+03  0.20645342246E+03  0.32414764556E+03  0.00000000000E+00 0.  1.
         13    1    5    5    0    0  0.36054895796E+02 -0.96818480728E+01  0.85820583474E+02  0.93588814721E+02  0.00000000000E+00 0. -1.
        -13    1    5    5    0    0  0.47940630774E+03  0.10707934168E+03  0.18830068987E+04  0.19460245050E+04  0.00000000000E+00 0.  1.
          2    1    6    6  503    0 -0.42747630117E+02  0.73680352307E+02  0.16189149743E+03  0.18293444492E+03  0.00000000000E+00 0. -1.
         -2    1    6    6    0  503 -0.29174270132E+03  0.15337985127E+03  0.71663000508E+03  0.78879512342E+03  0.00000000000E+00 0.  1.
<mgrwt>
<rscale>  0 0.14942605E+04</rscale>
<asrwt>0</asrwt>
<pdfrwt beam="1">  1        2 0.51652005E+00 0.14942605E+04</pdfrwt>
<pdfrwt beam="2">  1       -1 0.25578717E-01 0.14942605E+04</pdfrwt>
<totfact> 0.15291749E+01</totfact>
</mgrwt>
</event>
<event>
12    7  0.1544987E-007  0.3218315E+04  0.7818608E-02  0.8183997E-01
          2   -1    0    0  501    0  0.00000000000E+00  0.00000000000E+00  0.14300532351E+04  0.14300532351E+04  0.00000000000E+00 0. -1.
         -1   -1    0    0    0  501 -0.00000000000E+00 -0.00000000000E+00 -0.18106929682E+04  0.18106929682E+04  0.00000000000E+00 0.  1.
         24    2    1    2    0    0 -0.91982011114E+03 -0.16073786554E+03  0.97560124108E+03  0.13528269184E+04  0.80232109260E+02 0.  0.
        254    2    1    2    0    0  0.91982011114E+03  0.16073786554E+03 -0.13562409741E+04  0.18879192849E+04  0.92354964567E+03 0.  0.
         23    2    4    4    0    0  0.68818942790E+03 -0.64434848771E+02 -0.26453132182E+03  0.74579096325E+03  0.92036961269E+02 0.  0.
         23    2    4    4    0    0  0.23163068324E+03  0.22517271431E+03 -0.10917096523E+04  0.11421283216E+04  0.90948410698E+02 0.  0.
          4    1    3    3  502    0 -0.35153758986E+03 -0.66769392241E+02  0.31885005881E+03  0.47927256215E+03  0.00000000000E+00 0. -1.
         -3    1    3    3    0  502 -0.56828252127E+03 -0.93968473296E+02  0.65675118226E+03  0.87355435627E+03  0.00000000000E+00 0.  1.
         13    1    5    5    0    0  0.41396939323E+03 -0.11513468759E+02 -0.11910779012E+03  0.43091749113E+03  0.00000000000E+00 0. -1.
        -13    1    5    5    0    0  0.27422003467E+03 -0.52921380012E+02 -0.14542353169E+03  0.31487347212E+03  0.00000000000E+00 0.  1.
          1    1    6    6  503    0  0.14822519222E+03  0.19851855067E+03 -0.78538859646E+03  0.82353844477E+03  0.00000000000E+00 0. -1.
         -1    1    6    6    0  503  0.83405491016E+02  0.26654163636E+02 -0.30632105584E+03  0.31858987683E+03  0.00000000000E+00 0.  1.
<mgrwt>
<rscale>  0 0.32183147E+04</rscale>
<asrwt>0</asrwt>
<pdfrwt beam="1">  1        2 0.22000819E+00 0.32183147E+04</pdfrwt>
<pdfrwt beam="2">  1       -1 0.27856815E+00 0.32183147E+04</pdfrwt>
<totfact> 0.60543328E-01</totfact>
</mgrwt>
</event>
<event>
12    7  0.1544987E-007  0.2039271E+04  0.7818608E-02  0.8588477E-01
         -1   -1    0    0    0  501 -0.00000000000E+00  0.00000000000E+00  0.50190638521E+03  0.50190638521E+03  0.00000000000E+00 0.  1.
          2   -1    0    0  501    0  0.00000000000E+00 -0.00000000000E+00 -0.20714148286E+04  0.20714148286E+04  0.00000000000E+00 0. -1.
         24    2    1    2    0    0 -0.37635364878E+03 -0.34262536506E+03 -0.14211808642E+04  0.15116730313E+04  0.79787813696E+02 0.  0.
        254    2    1    2    0    0  0.37635364878E+03  0.34262536506E+03 -0.14832757918E+03  0.10616481824E+04  0.91981605923E+03 0.  0.
         23    2    4    4    0    0  0.68681781862E+02  0.16466844004E+03 -0.50866133607E+03  0.54696336857E+03  0.92734510536E+02 0.  0.
         23    2    4    4    0    0  0.30767186692E+03  0.17795692502E+03  0.36033375689E+03  0.51468481388E+03  0.93431239009E+02 0.  0.
          2    1    3    3  502    0 -0.19250335794E+03 -0.15189822671E+03 -0.57825956899E+03  0.62810408630E+03  0.00000000000E+00 0. -1.
         -1    1    3    3    0  502 -0.18385029085E+03 -0.19072713835E+03 -0.84292129520E+03  0.88356894505E+03  0.00000000000E+00 0.  1.
         13    1    5    5    0    0  0.13457662081E+02 -0.27893709731E+01 -0.11245217954E+03  0.11328893124E+03  0.00000000000E+00 0.  1.
        -13    1    5    5    0    0  0.55224119781E+02  0.16745781102E+03 -0.39620915652E+03  0.43367443733E+03  0.00000000000E+00 0. -1.
          4    1    6    6  503    0  0.65005849473E+02  0.85986170926E+02  0.98059996488E+02  0.14572283612E+03  0.00000000000E+00 0.  1.
         -4    1    6    6    0  503  0.24266601745E+03  0.91970754094E+02  0.26227376040E+03  0.36896197775E+03  0.00000000000E+00 0. -1.
<mgrwt>
<rscale>  0 0.20392708E+04</rscale>
<asrwt>0</asrwt>
<pdfrwt beam="1">  1        2 0.31867921E+00 0.20392708E+04</pdfrwt>
<pdfrwt beam="2">  1       -1 0.77216365E-01 0.20392708E+04</pdfrwt>
<totfact> 0.10807886E+01</totfact>
</mgrwt>
</event>
<event>
12    7  0.1544987E-007  0.1621500E+04  0.7818608E-02  0.8807448E-01
          2   -1    0    0  501    0  0.00000000000E+00  0.00000000000E+00  0.26667181013E+04  0.26667181013E+04  0.00000000000E+00 0. -1.
         -1   -1    0    0    0  501 -0.00000000000E+00 -0.00000000000E+00 -0.24648851467E+03  0.24648851467E+03  0.00000000000E+00 0.  1.
         24    2    1    2    0    0 -0.97362727751E+02  0.38668737457E+03  0.15506329251E+04  0.16031055943E+04  0.80488828534E+02 0.  0.
        254    2    1    2    0    0  0.97362727751E+02 -0.38668737457E+03  0.86959666154E+03  0.13101010217E+04  0.89507525213E+03 0.  0.
         23    2    4    4    0    0  0.69857039932E+02  0.19290184892E+03  0.64274800942E+03  0.68036902132E+03  0.87669106352E+02 0.  0.
         23    2    4    4    0    0  0.27505687819E+02 -0.57958922349E+03  0.22684865212E+03  0.62973200041E+03  0.91770640916E+02 0.  0.
          2    1    3    3  502    0 -0.83558542170E+02  0.37529057219E+03  0.15174656209E+04  0.15654159045E+04  0.00000000000E+00 0. -1.
         -1    1    3    3    0  502 -0.13804185581E+02  0.11396802379E+02  0.33167304267E+02  0.37689689789E+02  0.00000000000E+00 0.  1.
         13    1    5    5    0    0  0.89001596762E+02  0.14306919131E+03  0.51683204707E+03  0.54360412306E+03  0.00000000000E+00 0. -1.
        -13    1    5    5    0    0 -0.19144556831E+02  0.49832657610E+02  0.12591596235E+03  0.13676489826E+03  0.00000000000E+00 0.  1.
          1    1    6    6  503    0  0.61330083975E+02 -0.37954831978E+03  0.14289836481E+03  0.41016856159E+03  0.00000000000E+00 0. -1.
         -1    1    6    6    0  503 -0.33824396156E+02 -0.20004090370E+03  0.83950287306E+02  0.21956343883E+03  0.00000000000E+00 0.  1.
<mgrwt>
<rscale>  0 0.16214998E+04</rscale>
<asrwt>0</asrwt>
<pdfrwt beam="1">  1        2 0.41026430E+00 0.16214998E+04</pdfrwt>
<pdfrwt beam="2">  1       -1 0.37921312E-01 0.16214998E+04</pdfrwt>
<totfact> 0.20404982E+01</totfact>
</mgrwt>
</event>
<event>
12    7  0.1544987E-007  0.1081392E+04  0.7818608E-02  0.9223521E-01
          2   -1    0    0  501    0  0.00000000000E+00  0.00000000000E+00  0.76757904714E+03  0.76757904714E+03  0.00000000000E+00 0. -1.
         -1   -1    0    0    0  501 -0.00000000000E+00 -0.00000000000E+00 -0.38087535602E+03  0.38087535602E+03  0.00000000000E+00 0.  1.
         24    2    1    2    0    0  0.76179764881E+02 -0.12386039133E+03  0.78150575825E+02  0.18342531195E+03  0.79953608080E+02 0.  0.
        254    2    1    2    0    0 -0.76179764881E+02  0.12386039133E+03  0.30855311529E+03  0.96502909121E+03  0.90273549216E+03 0.  0.
         23    2    4    4    0    0  0.18523456952E+03 -0.12015460097E+03 -0.21693134607E+03  0.32282440523E+03  0.91691950713E+02 0.  0.
         23    2    4    4    0    0 -0.26141433441E+03  0.24401499230E+03  0.52548446136E+03  0.64220468597E+03  0.91717876421E+02 0.  0.
          4    1    3    3  502    0  0.35491593381E+02 -0.11740141700E+03  0.70676027359E+02  0.14155510149E+03  0.00000000000E+00 0. -1.
         -3    1    3    3    0  502  0.40688171500E+02 -0.64589743305E+01  0.74745484659E+01  0.41870210463E+02  0.00000000000E+00 0.  1.
         13    1    5    5    0    0  0.18569947327E+02  0.22592142805E+01 -0.61080465118E+02  0.63880906474E+02  0.00000000000E+00 0. -1.
        -13    1    5    5    0    0  0.16666462220E+03 -0.12241381525E+03 -0.15585088095E+03  0.25894349876E+03  0.00000000000E+00 0.  1.
          1    1    6    6  503    0 -0.13847208270E+03  0.10430242162E+03  0.18077219348E+03  0.25046376739E+03  0.00000000000E+00 0. -1.
         -1    1    6    6    0  503 -0.12294225171E+03  0.13971257069E+03  0.34471226788E+03  0.39174091858E+03  0.00000000000E+00 0.  1.
<mgrwt>
<rscale>  0 0.10813916E+04</rscale>
<asrwt>0</asrwt>
<pdfrwt beam="1">  1        2 0.11808908E+00 0.10813916E+04</pdfrwt>
<pdfrwt beam="2">  1       -1 0.58596209E-01 0.10813916E+04</pdfrwt>
<totfact> 0.12185727E+02</totfact>
</mgrwt>
</event>
<event>
12    7  0.1544987E-007  0.2627491E+04  0.7818608E-02  0.8358923E-01
          2   -1    0    0  501    0  0.00000000000E+00  0.00000000000E+00  0.17045512016E+04  0.17045512016E+04  0.00000000000E+00 0. -1.
         -1   -1    0    0    0  501 -0.00000000000E+00 -0.00000000000E+00 -0.10125402465E+04  0.10125402465E+04  0.00000000000E+00 0.  1.
         24    2    1    2    0    0  0.50512163255E+03 -0.10409573561E+04  0.25674031698E+03  0.11889279889E+04  0.94308492003E+02 0.  0.
        254    2    1    2    0    0 -0.50512163255E+03  0.10409573561E+04  0.43527063814E+03  0.15281634591E+04  0.89837795418E+03 0.  0.
         23    2    4    4    0    0 -0.45317512392E+03  0.35745234149E+03 -0.17011093793E+03  0.60913531945E+03  0.94700775192E+02 0.  0.
         23    2    4    4    0    0 -0.51946508627E+02  0.68350501456E+03  0.60538157607E+03  0.91902813966E+03  0.90820284942E+02 0.  0.
          4    1    3    3  502    0  0.32906805193E+03 -0.72353296584E+03  0.21596656136E+03  0.82366697827E+03  0.00000000000E+00 0. -1.
         -3    1    3    3    0  502  0.17605358062E+03 -0.31742439021E+03  0.40773755618E+02  0.36526101065E+03  0.00000000000E+00 0.  1.
         13    1    5    5    0    0 -0.32735154558E+03  0.22701184970E+03 -0.15433306007E+03  0.42721435805E+03  0.00000000000E+00 0.  1.
        -13    1    5    5    0    0 -0.12582357834E+03  0.13044049180E+03 -0.15777877858E+02  0.18192096140E+03  0.00000000000E+00 0. -1.
          3    1    6    6  503    0  0.15720512879E+02  0.40808072950E+02  0.24732345467E+02  0.50240643461E+02  0.00000000000E+00 0. -1.
         -3    1    6    6    0  503 -0.67667021506E+02  0.64269694161E+03  0.58064923060E+03  0.86878749620E+03  0.00000000000E+00 0.  1.
<mgrwt>
<rscale>  0 0.26274906E+04</rscale>
<asrwt>0</asrwt>
<pdfrwt beam="1">  1        2 0.26223865E+00 0.26274906E+04</pdfrwt>
<pdfrwt beam="2">  1       -1 0.15577542E+00 0.26274906E+04</pdfrwt>
<totfact> 0.30835439E+00</totfact>
</mgrwt>
</event>
<event>
12    7  0.1544987E-007  0.2334521E+04  0.7818608E-02  0.8464433E-01
          2   -1    0    0  501    0  0.00000000000E+00  0.00000000000E+00  0.10455152085E+04  0.10455152085E+04  0.00000000000E+00 0. -1.
         -1   -1    0    0    0  501 -0.00000000000E+00 -0.00000000000E+00 -0.13031825797E+04  0.13031825797E+04  0.00000000000E+00 0.  1.
         24    2    1    2    0    0  0.84208005111E+02 -0.98436034577E+03  0.11566566410E+01  0.99118552625E+03  0.79944550448E+02 0.  0.
        254    2    1    2    0    0 -0.84208005111E+02  0.98436034577E+03 -0.25882402793E+03  0.13575122620E+04  0.89431168251E+03 0.  0.
         23    2    4    4    0    0  0.13437592753E+03  0.57640672992E+03 -0.54161948874E+03  0.80749181892E+03  0.91595626793E+02 0.  0.
         23    2    4    4    0    0 -0.21858393264E+03  0.40795361585E+03  0.28279546081E+03  0.55002044303E+03  0.91346192060E+02 0.  0.
          2    1    3    3  502    0  0.68306608335E+02 -0.43179407139E+03 -0.23966042971E+02  0.43781992194E+03  0.00000000000E+00 0. -1.
         -1    1    3    3    0  502  0.15901396776E+02 -0.55256627438E+03  0.25122699612E+02  0.55336560431E+03  0.00000000000E+00 0.  1.
         13    1    5    5    0    0  0.13961858017E+03  0.53943250700E+03 -0.52830371455E+03  0.76784477099E+03  0.00000000000E+00 0.  1.
        -13    1    5    5    0    0 -0.52426526363E+01  0.36974222920E+02 -0.13315774192E+02  0.39647047930E+02  0.00000000000E+00 0. -1.
          4    1    6    6  503    0 -0.14021058276E+02  0.29790644795E+02  0.53324425926E+02  0.62670303915E+02  0.00000000000E+00 0. -1.
         -4    1    6    6    0  503 -0.20456287437E+03  0.37816297106E+03  0.22947103488E+03  0.48735013912E+03  0.00000000000E+00 0.  1.
<mgrwt>
<rscale>  0 0.23345211E+04</rscale>
<asrwt>0</asrwt>
<pdfrwt beam="1">  1        2 0.16084849E+00 0.23345211E+04</pdfrwt>
<pdfrwt beam="2">  1       -1 0.20048963E+00 0.23345211E+04</pdfrwt>
<totfact> 0.36269107E+00</totfact>
</mgrwt>
</event>
<event>
12    7  0.1544987E-007  0.1992605E+04  0.7818608E-02  0.8610086E-01
          2   -1    0    0  501    0  0.00000000000E+00  0.00000000000E+00  0.91581405274E+03  0.91581405274E+03  0.00000000000E+00 0. -1.
         -1   -1    0    0    0  501 -0.00000000000E+00 -0.00000000000E+00 -0.10838643715E+04  0.10838643715E+04  0.00000000000E+00 0.  1.
         24    2    1    2    0    0 -0.55548665837E+03 -0.52030309004E+03 -0.25983736384E+03  0.80864733614E+03  0.84346460899E+02 0.  0.
        254    2    1    2    0    0  0.55548665837E+03  0.52030309004E+03  0.91787045091E+02  0.11910310881E+04  0.91150943934E+03 0.  0.
         23    2    4    4    0    0  0.28123600187E+03  0.44244319380E+03  0.46890832241E+03  0.70926630317E+03  0.91290774446E+02 0.  0.
         23    2    4    4    0    0  0.27425065650E+03  0.77859896243E+02 -0.37712127732E+03  0.48176478492E+03  0.92743000511E+02 0.  0.
          2    1    3    3  502    0 -0.43132847776E+03 -0.36910492604E+03 -0.16475711541E+03  0.59112402187E+03  0.00000000000E+00 0. -1.
         -3    1    3    3    0  502 -0.12415818061E+03 -0.15119816400E+03 -0.95080248429E+02  0.21752331427E+03  0.00000000000E+00 0.  1.
         13    1    5    5    0    0  0.93442117159E+02  0.15324470735E+03  0.10503029645E+03  0.20795848808E+03  0.00000000000E+00 0. -1.
        -13    1    5    5    0    0  0.18779388471E+03  0.28919848645E+03  0.36387802596E+03  0.50130781509E+03  0.00000000000E+00 0.  1.
          3    1    6    6  503    0  0.17823724095E+03  0.79279353404E+01 -0.25676296534E+03  0.31266369567E+03  0.00000000000E+00 0. -1.
         -3    1    6    6    0  503  0.96013415550E+02  0.69931960903E+02 -0.12035831198E+03  0.16910108925E+03  0.00000000000E+00 0.  1.
<mgrwt>
<rscale>  0 0.19926045E+04</rscale>
<asrwt>0</asrwt>
<pdfrwt beam="1">  1        2 0.14089447E+00 0.19926045E+04</pdfrwt>
<pdfrwt beam="2">  1       -1 0.16674836E+00 0.19926045E+04</pdfrwt>
<totfact> 0.78917919E+00</totfact>
</mgrwt>
</event>
<event>
12    7  0.1544987E-007  0.1722362E+04  0.7818608E-02  0.8748712E-01
         -1   -1    0    0    0  501 -0.00000000000E+00  0.00000000000E+00  0.93213265041E+03  0.93213265041E+03  0.00000000000E+00 0.  1.
          2   -1    0    0  501    0  0.00000000000E+00 -0.00000000000E+00 -0.79562982013E+03  0.79562982013E+03  0.00000000000E+00 0. -1.
         24    2    1    2    0    0 -0.27433357572E+03  0.47866308798E+03  0.33793630198E+03  0.65134428176E+03  0.75307148539E+02 0.  0.
        254    2    1    2    0    0  0.27433357572E+03 -0.47866308798E+03 -0.20143347171E+03  0.10764181888E+04  0.90206618995E+03 0.  0.
         23    2    4    4    0    0 -0.11615013208E+03 -0.60896338713E+03 -0.49221302372E+02  0.62759542547E+03  0.84415765188E+02 0.  0.
         23    2    4    4    0    0  0.39048370780E+03  0.13030029915E+03 -0.15221216934E+03  0.44882276331E+03  0.93902259562E+02 0.  0.
          4    1    3    3  502    0 -0.15876697896E+02  0.52545974967E+02  0.57468951107E+02  0.79472192386E+02  0.00000000000E+00 0. -1.
         -3    1    3    3    0  502 -0.25845687782E+03  0.42611711301E+03  0.28046735088E+03  0.57187208937E+03  0.00000000000E+00 0.  1.
         13    1    5    5    0    0 -0.55281704908E+02 -0.11917518099E+03  0.20067608764E+01  0.13138804265E+03  0.00000000000E+00 0. -1.
        -13    1    5    5    0    0 -0.60868427173E+02 -0.48978820614E+03 -0.51228063249E+02  0.49620738282E+03  0.00000000000E+00 0.  1.
          4    1    6    6  503    0  0.35541564242E+03  0.86301430693E+02 -0.13675041781E+03  0.39047265281E+03  0.00000000000E+00 0. -1.
         -4    1    6    6    0  503  0.35068065379E+02  0.43998868461E+02 -0.15461751528E+02  0.58350110502E+02  0.00000000000E+00 0.  1.
<mgrwt>
<rscale>  0 0.17223618E+04</rscale>
<asrwt>0</asrwt>
<pdfrwt beam="1">  1        2 0.12240459E+00 0.17223618E+04</pdfrwt>
<pdfrwt beam="2">  1       -1 0.14340502E+00 0.17223618E+04</pdfrwt>
<totfact> 0.14805898E+01</totfact>
</mgrwt>
</event>
<event>
12    7  0.1544987E-007  0.2280675E+04  0.7818608E-02  0.8485580E-01
         -1   -1    0    0    0  501 -0.00000000000E+00  0.00000000000E+00  0.96752867771E+03  0.96752867771E+03  0.00000000000E+00 0.  1.
          2   -1    0    0  501    0  0.00000000000E+00 -0.00000000000E+00 -0.13440117849E+04  0.13440117849E+04  0.00000000000E+00 0. -1.
         24    2    1    2    0    0  0.35127036050E+03  0.48610392693E+03 -0.92069234029E+03  0.11018699751E+04  0.82189796892E+02 0.  0.
        254    2    1    2    0    0 -0.35127036050E+03 -0.48610392693E+03  0.54420923307E+03  0.12096704875E+04  0.89858283149E+03 0.  0.
         23    2    4    4    0    0  0.86811657856E+02 -0.88634310232E+02 -0.20207972155E+03  0.25309228670E+03  0.88471389917E+02 0.  0.
         23    2    4    4    0    0 -0.43808201835E+03 -0.39746961669E+03  0.74628895462E+03  0.95657820081E+03  0.90535625505E+02 0.  0.
          4    1    3    3  502    0  0.15675364668E+03  0.28611154841E+03 -0.50720977904E+03  0.60306988305E+03  0.00000000000E+00 0. -1.
         -3    1    3    3    0  502  0.19451671382E+03  0.19999237852E+03 -0.41348256125E+03  0.49880009210E+03  0.00000000000E+00 0.  1.
         13    1    5    5    0    0  0.92371056458E+02 -0.98998639399E+02 -0.19940613638E+03  0.24103101439E+03  0.00000000000E+00 0.  1.
        -13    1    5    5    0    0 -0.55593986026E+01  0.10364329167E+02 -0.26735851701E+01  0.12061272303E+02  0.00000000000E+00 0. -1.
          4    1    6    6  503    0 -0.85244843175E+02 -0.34107466188E+02  0.12126237385E+03  0.15210051232E+03  0.00000000000E+00 0. -1.
         -4    1    6    6    0  503 -0.35283717518E+03 -0.36336215051E+03  0.62502658077E+03  0.80447768849E+03  0.00000000000E+00 0.  1.
<mgrwt>
<rscale>  0 0.22806753E+04</rscale>
<asrwt>0</asrwt>
<pdfrwt beam="1">  1        2 0.20677104E+00 0.22806753E+04</pdfrwt>
<pdfrwt beam="2">  1       -1 0.14885057E+00 0.22806753E+04</pdfrwt>
<totfact> 0.57451089E+00</totfact>
</mgrwt>
</event>
<event>
12    7  0.1544987E-007  0.1096884E+04  0.7818608E-02  0.9208235E-01
          2   -1    0    0  501    0  0.00000000000E+00  0.00000000000E+00  0.27986127634E+03  0.27986127634E+03  0.00000000000E+00 0. -1.
         -1   -1    0    0    0  501 -0.00000000000E+00 -0.00000000000E+00 -0.10747769358E+04  0.10747769358E+04  0.00000000000E+00 0.  1.
         24    2    1    2    0    0  0.28298466406E+01 -0.14404884864E+03 -0.70561500543E+02  0.17918259170E+03  0.79808501937E+02 0.  0.
        254    2    1    2    0    0 -0.28298466406E+01  0.14404884864E+03 -0.72435415887E+03  0.11754556204E+04  0.91446645057E+03 0.  0.
         23    2    4    4    0    0  0.23150015141E+03 -0.30325067612E+03 -0.43500454072E+03  0.58628460346E+03  0.94590660969E+02 0.  0.
         23    2    4    4    0    0 -0.23432999805E+03  0.44729952476E+03 -0.28934961816E+03  0.58917101693E+03  0.91716262638E+02 0.  0.
          4    1    3    3  502    0 -0.18341244944E+02 -0.47699123722E+02  0.96897424108E+01  0.52014409330E+02  0.00000000000E+00 0. -1.
         -3    1    3    3    0  502  0.21171091585E+02 -0.96349724920E+02 -0.80251242954E+02  0.12716818237E+03  0.00000000000E+00 0.  1.
         13    1    5    5    0    0  0.14983356196E+03 -0.17587257066E+03 -0.19386304684E+03  0.30160261658E+03  0.00000000000E+00 0.  1.
        -13    1    5    5    0    0  0.81666589445E+02 -0.12737810546E+03 -0.24114149388E+03  0.28468198688E+03  0.00000000000E+00 0. -1.
          1    1    6    6  503    0 -0.22809940711E+03  0.40488073062E+03 -0.28708434241E+03  0.54623727922E+03  0.00000000000E+00 0.  1.
         -1    1    6    6    0  503 -0.62305909396E+01  0.42418794143E+02 -0.22652757402E+01  0.42933737715E+02  0.00000000000E+00 0. -1.
<mgrwt>
<rscale>  0 0.10968837E+04</rscale>
<asrwt>0</asrwt>
<pdfrwt beam="1">  1        2 0.43055581E-01 0.10968837E+04</pdfrwt>
<pdfrwt beam="2">  1       -1 0.16535030E+00 0.10968837E+04</pdfrwt>
<totfact> 0.35981618E+01</totfact>
</mgrwt>
</event>
<event>
12    7  0.1544987E-007  0.1337954E+04  0.7818608E-02  0.8999997E-01
         -1   -1    0    0    0  501 -0.00000000000E+00  0.00000000000E+00  0.39570556903E+03  0.39570556903E+03  0.00000000000E+00 0.  1.
          2   -1    0    0  501    0  0.00000000000E+00 -0.00000000000E+00 -0.11309681506E+04  0.11309681506E+04  0.00000000000E+00 0. -1.
         24    2    1    2    0    0 -0.25907433938E+03  0.18734287115E+03 -0.40571381461E+03  0.52257576082E+03  0.79150879613E+02 0.  0.
        254    2    1    2    0    0  0.25907433938E+03 -0.18734287115E+03 -0.32954876700E+03  0.10040979588E+04  0.89296890003E+03 0.  0.
         23    2    4    4    0    0  0.55177369399E+03 -0.96470025078E+02 -0.37635617888E+03  0.68109738369E+03  0.92135756224E+02 0.  0.
         23    2    4    4    0    0 -0.29269935461E+03 -0.90872846067E+02  0.46807411879E+02  0.32300057515E+03  0.90596089293E+02 0.  0.
          4    1    3    3  502    0 -0.23740511558E+03  0.16194965171E+03 -0.31744677137E+03  0.42820711256E+03  0.00000000000E+00 0. -1.
         -3    1    3    3    0  502 -0.21669223797E+02  0.25393219431E+02 -0.88267043237E+02  0.94368648262E+02  0.00000000000E+00 0.  1.
         13    1    5    5    0    0  0.67695760958E+02 -0.36507349781E+02 -0.76743459904E+02  0.10865109883E+03  0.00000000000E+00 0.  1.
        -13    1    5    5    0    0  0.48407793303E+03 -0.59962675297E+02 -0.29961271898E+03  0.57244628486E+03  0.00000000000E+00 0. -1.
          4    1    6    6  503    0 -0.16228045461E+03 -0.37875725521E+01  0.32325011257E+02  0.16551192708E+03  0.00000000000E+00 0.  1.
         -4    1    6    6    0  503 -0.13041890001E+03 -0.87085273515E+02  0.14482400622E+02  0.15748864807E+03  0.00000000000E+00 0. -1.
<mgrwt>
<rscale>  0 0.13379543E+04</rscale>
<asrwt>0</asrwt>
<pdfrwt beam="1">  1        2 0.17399510E+00 0.13379543E+04</pdfrwt>
<pdfrwt beam="2">  1       -1 0.60877779E-01 0.13379543E+04</pdfrwt>
<totfact> 0.63612579E+01</totfact>
</mgrwt>
</event>
<event>
12    7  0.1544987E-007  0.1363022E+04  0.7818608E-02  0.8981028E-01
         -1   -1    0    0    0  501 -0.00000000000E+00  0.00000000000E+00  0.35683377662E+03  0.35683377662E+03  0.00000000000E+00 0.  1.
          2   -1    0    0  501    0  0.00000000000E+00 -0.00000000000E+00 -0.13016076045E+04  0.13016076045E+04  0.00000000000E+00 0. -1.
         24    2    1    2    0    0  0.26404747662E+03 -0.77409110806E+02  0.25572355527E+02  0.28782167496E+03  0.80461983993E+02 0.  0.
        254    2    1    2    0    0 -0.26404747662E+03  0.77409110806E+02 -0.97034618337E+03  0.13706197061E+04  0.92806972953E+03 0.  0.
         23    2    4    4    0    0 -0.15745866001E+03  0.27106767755E+03 -0.10661026671E+04  0.11149365139E+04  0.90761323776E+02 0.  0.
         23    2    4    4    0    0 -0.10658881661E+03 -0.19365856674E+03  0.95756483691E+02  0.25568319222E+03  0.85672482834E+02 0.  0.
          4    1    3    3  502    0  0.14916552786E+02  0.13490713581E+02 -0.53958555133E+01  0.20823500106E+02  0.00000000000E+00 0. -1.
         -3    1    3    3    0  502  0.24913092383E+03 -0.90899824387E+02  0.30968211040E+02  0.26699817486E+03  0.00000000000E+00 0.  1.
         13    1    5    5    0    0 -0.91619098302E+02  0.80640112886E+02 -0.47529519465E+03  0.49071622048E+03  0.00000000000E+00 0. -1.
        -13    1    5    5    0    0 -0.65839561704E+02  0.19042756466E+03 -0.59080747241E+03  0.62422029342E+03  0.00000000000E+00 0.  1.
          3    1    6    6  503    0 -0.10857899410E+03 -0.18616288939E+03  0.10810039208E+03  0.24110519305E+03  0.00000000000E+00 0. -1.
         -3    1    6    6    0  503  0.19901774908E+01 -0.74956773533E+01 -0.12343908393E+02  0.14577999171E+02  0.00000000000E+00 0.  1.
<mgrwt>
<rscale>  0 0.13630225E+04</rscale>
<asrwt>0</asrwt>
<pdfrwt beam="1">  1        2 0.20024733E+00 0.13630225E+04</pdfrwt>
<pdfrwt beam="2">  1       -1 0.54897504E-01 0.13630225E+04</pdfrwt>
<totfact> 0.61523540E+01</totfact>
</mgrwt>
</event>
<event>
12    7  0.1544987E-007  0.2523581E+04  0.7818608E-02  0.8394632E-01
         -3   -1    0    0    0  501 -0.00000000000E+00  0.00000000000E+00  0.14830369223E+04  0.14830369223E+04  0.00000000000E+00 0.  1.
          2   -1    0    0  501    0  0.00000000000E+00 -0.00000000000E+00 -0.10735510262E+04  0.10735510262E+04  0.00000000000E+00 0. -1.
         24    2    1    2    0    0 -0.29460201181E+03 -0.51438461270E+03 -0.75858672073E+03  0.96585412210E+03  0.77707767678E+02 0.  0.
        254    2    1    2    0    0  0.29460201181E+03  0.51438461270E+03  0.11680726168E+04  0.15907338264E+04  0.90258439678E+03 0.  0.
         23    2    4    4    0    0 -0.29548365840E+03  0.15230635367E+03  0.59370273094E+03  0.68654100700E+03  0.91366316630E+02 0.  0.
         23    2    4    4    0    0  0.59008567020E+03  0.36207825903E+03  0.57436988582E+03  0.90419281941E+03  0.91444655887E+02 0.  0.
          4    1    3    3  502    0 -0.21496265773E+03 -0.43116766409E+03 -0.59085151321E+03  0.76237786526E+03  0.00000000000E+00 0. -1.
         -3    1    3    3    0  502 -0.79639354082E+02 -0.83216948608E+02 -0.16773520753E+03  0.20347625684E+03  0.00000000000E+00 0.  1.
         13    1    5    5    0    0 -0.87331718273E+02  0.94520061302E+02  0.21653164071E+03  0.25188652690E+03  0.00000000000E+00 0. -1.
        -13    1    5    5    0    0 -0.20815194012E+03  0.57786292367E+02  0.37717109024E+03  0.43465448010E+03  0.00000000000E+00 0.  1.
          4    1    6    6  503    0  0.11579720452E+03  0.11062653313E+03  0.15632978580E+03  0.22379951818E+03  0.00000000000E+00 0.  1.
         -4    1    6    6    0  503  0.47428846568E+03  0.25145172589E+03  0.41804010002E+03  0.68039330123E+03  0.00000000000E+00 0. -1.
<mgrwt>
<rscale>  0 0.25235814E+04</rscale>
<asrwt>0</asrwt>
<pdfrwt beam="1">  1        2 0.16516170E+00 0.25235814E+04</pdfrwt>
<pdfrwt beam="2">  1       -3 0.22815953E+00 0.25235814E+04</pdfrwt>
<totfact> 0.12448425E+00</totfact>
</mgrwt>
</event>
<event>
12    7  0.1544987E-007  0.1876703E+04  0.7818608E-02  0.8666541E-01
         -1   -1    0    0    0  501 -0.00000000000E+00  0.00000000000E+00  0.85510329731E+03  0.85510329731E+03  0.00000000000E+00 0.  1.
          2   -1    0    0  501    0  0.00000000000E+00 -0.00000000000E+00 -0.10297038681E+04  0.10297038681E+04  0.00000000000E+00 0. -1.
         24    2    1    2    0    0 -0.56292096882E+02 -0.67788294601E+03 -0.29621296830E+03  0.74632417868E+03  0.81015852925E+02 0.  0.
        254    2    1    2    0    0  0.56292096882E+02  0.67788294601E+03  0.12161239755E+03  0.11384829867E+04  0.90479823556E+03 0.  0.
         23    2    4    4    0    0  0.33208485962E+03  0.72510465862E+03 -0.37794134027E+02  0.80359466370E+03  0.90988279565E+02 0.  0.
         23    2    4    4    0    0 -0.27579276274E+03 -0.47221712604E+02  0.15940653158E+03  0.33488832299E+03  0.91914136264E+02 0.  0.
          2    1    3    3  502    0 -0.71169120705E+02 -0.56267210510E+03 -0.22558695529E+03  0.61037235848E+03  0.00000000000E+00 0. -1.
         -1    1    3    3    0  502  0.14877023823E+02 -0.11521084092E+03 -0.70626013012E+02  0.13595182020E+03  0.00000000000E+00 0.  1.
         13    1    5    5    0    0  0.15239914429E+03  0.31154271282E+03 -0.60746835371E+02  0.35210018332E+03  0.00000000000E+00 0.  1.
        -13    1    5    5    0    0  0.17968571534E+03  0.41356194580E+03  0.22952701345E+02  0.45149448038E+03  0.00000000000E+00 0. -1.
          1    1    6    6  503    0 -0.22798849788E+03 -0.50459100076E+02  0.16603549732E+03  0.28651817100E+03  0.00000000000E+00 0. -1.
         -1    1    6    6    0  503 -0.47804264861E+02  0.32373874726E+01 -0.66289657397E+01  0.48370151988E+02  0.00000000000E+00 0.  1.
<mgrwt>
<rscale>  0 0.18767026E+04</rscale>
<asrwt>0</asrwt>
<pdfrwt beam="1">  1        2 0.15841598E+00 0.18767026E+04</pdfrwt>
<pdfrwt beam="2">  1       -1 0.13155435E+00 0.18767026E+04</pdfrwt>
<totfact> 0.12700585E+01</totfact>
</mgrwt>
</event>
<event>
12    7  0.1544987E-007  0.1416079E+04  0.7818608E-02  0.8942262E-01
          2   -1    0    0  501    0  0.00000000000E+00  0.00000000000E+00  0.11545110970E+04  0.11545110970E+04  0.00000000000E+00 0. -1.
         -1   -1    0    0    0  501 -0.00000000000E+00 -0.00000000000E+00 -0.43422676019E+03  0.43422676019E+03  0.00000000000E+00 0.  1.
         24    2    1    2    0    0 -0.38417435928E+03  0.52828731531E+02  0.36082328400E+03  0.53555273673E+03  0.79009355998E+02 0.  0.
        254    2    1    2    0    0  0.38417435928E+03 -0.52828731531E+02  0.35946105277E+03  0.10531851204E+04  0.91082700674E+03 0.  0.
         23    2    4    4    0    0  0.97174984402E+02  0.32027363102E+03 -0.12670498444E+03  0.37003812936E+03  0.94105726599E+02 0.  0.
         23    2    4    4    0    0  0.28699937487E+03 -0.37310236255E+03  0.48616603721E+03  0.68314699105E+03  0.93586225109E+02 0.  0.
          2    1    3    3  502    0 -0.33347433351E+03  0.30464335638E+02  0.27459382702E+03  0.43305308761E+03  0.00000000000E+00 0. -1.
         -1    1    3    3    0  502 -0.50700025770E+02  0.22364395893E+02  0.86229456983E+02  0.10249964911E+03  0.00000000000E+00 0.  1.
         13    1    5    5    0    0  0.87146294714E+02  0.17191415863E+03 -0.36643988395E+02  0.19619311024E+03  0.00000000000E+00 0. -1.
        -13    1    5    5    0    0  0.10028689689E+02  0.14835947239E+03 -0.90060996049E+02  0.17384501912E+03  0.00000000000E+00 0.  1.
          1    1    6    6  503    0 -0.29408376298E+01  0.34195205210E+01  0.66893149937E+01  0.80677494782E+01  0.00000000000E+00 0. -1.
         -1    1    6    6    0  503  0.28994021250E+03 -0.37652188307E+03  0.47947672222E+03  0.67507924158E+03  0.00000000000E+00 0.  1.
<mgrwt>
<rscale>  0 0.14160785E+04</rscale>
<asrwt>0</asrwt>
<pdfrwt beam="1">  1        2 0.17761709E+00 0.14160785E+04</pdfrwt>
<pdfrwt beam="2">  1       -1 0.66804117E-01 0.14160785E+04</pdfrwt>
<totfact> 0.50778836E+01</totfact>
</mgrwt>
</event>
<event>
12    7  0.1544987E-007  0.1272400E+04  0.7818608E-02  0.9051743E-01
         -1   -1    0    0    0  501 -0.00000000000E+00  0.00000000000E+00  0.23438272735E+03  0.23438272735E+03  0.00000000000E+00 0.  1.
          2   -1    0    0  501    0  0.00000000000E+00 -0.00000000000E+00 -0.17268778613E+04  0.17268778613E+04  0.00000000000E+00 0. -1.
         24    2    1    2    0    0  0.10401386634E+03 -0.30111491334E+03 -0.33319552517E+03  0.46779174940E+03  0.79503379698E+02 0.  0.
        254    2    1    2    0    0 -0.10401386634E+03  0.30111491334E+03 -0.11592996088E+04  0.14934688392E+04  0.88599351887E+03 0.  0.
         23    2    4    4    0    0  0.18731600408E+03 -0.20129575694E+03 -0.15168049291E+03  0.32693416276E+03  0.90948929098E+02 0.  0.
         23    2    4    4    0    0 -0.29132987042E+03  0.50241067028E+03 -0.10076191159E+04  0.11665346765E+04  0.90649290101E+02 0.  0.
          2    1    3    3  502    0  0.49793198876E+00 -0.18280026249E+02  0.47790568262E+00  0.18293050314E+02  0.00000000000E+00 0. -1.
         -1    1    3    3    0  502  0.10351593435E+03 -0.28283488709E+03 -0.33367343085E+03  0.44949869908E+03  0.00000000000E+00 0.  1.
         13    1    5    5    0    0  0.75105936088E+02 -0.11549071829E+03 -0.11877023728E+03  0.18189386166E+03  0.00000000000E+00 0. -1.
        -13    1    5    5    0    0  0.11221006799E+03 -0.85805038646E+02 -0.32910255626E+02  0.14504030110E+03  0.00000000000E+00 0.  1.
          1    1    6    6  503    0 -0.12183959947E+03  0.13630865389E+03 -0.35434300195E+03  0.39872785225E+03  0.00000000000E+00 0. -1.
         -1    1    6    6    0  503 -0.16949027095E+03  0.36610201639E+03 -0.65327611391E+03  0.76780682424E+03  0.00000000000E+00 0.  1.
<mgrwt>
<rscale>  0 0.12723998E+04</rscale>
<asrwt>0</asrwt>
<pdfrwt beam="1">  1        2 0.26567352E+00 0.12723998E+04</pdfrwt>
<pdfrwt beam="2">  1       -1 0.36058881E-01 0.12723998E+04</pdfrwt>
<totfact> 0.77957001E+01</totfact>
</mgrwt>
</event>
<event>
12    7  0.1544987E-007  0.3294227E+04  0.7818608E-02  0.8164366E-01
         -1   -1    0    0    0  501 -0.00000000000E+00  0.00000000000E+00  0.20006970396E+04  0.20006970396E+04  0.00000000000E+00 0.  1.
          2   -1    0    0  501    0  0.00000000000E+00 -0.00000000000E+00 -0.13560190907E+04  0.13560190907E+04  0.00000000000E+00 0. -1.
         24    2    1    2    0    0  0.66179327991E+03 -0.11404112032E+04  0.10780991149E+04  0.17050107961E+04  0.79095231115E+02 0.  0.
        254    2    1    2    0    0 -0.66179327991E+03  0.11404112032E+04 -0.43342116606E+03  0.16517053342E+04  0.89541529263E+03 0.  0.
         23    2    4    4    0    0  0.12612925150E+03  0.48989726110E+03 -0.35255765501E+03  0.62293326103E+03  0.88549607981E+02 0.  0.
         23    2    4    4    0    0 -0.78792253140E+03  0.65051394206E+03 -0.80863511046E+02  0.10287720732E+04  0.88559397277E+02 0.  0.
          2    1    3    3  502    0  0.15650428676E+03 -0.23973449452E+03  0.19749512722E+03  0.34780820133E+03  0.00000000000E+00 0. -1.
         -1    1    3    3    0  502  0.50528899315E+03 -0.90067670863E+03  0.88060398770E+03  0.13572025948E+04  0.00000000000E+00 0.  1.
         13    1    5    5    0    0  0.97255842096E+02  0.37036651748E+03 -0.31043491965E+03  0.49295019569E+03  0.00000000000E+00 0.  1.
        -13    1    5    5    0    0  0.28873409400E+02  0.11953074362E+03 -0.42122735357E+02  0.12998306534E+03  0.00000000000E+00 0. -1.
          2    1    6    6  503    0 -0.59701409461E+03  0.52761169676E+03 -0.88163259759E+02  0.80160631989E+03  0.00000000000E+00 0. -1.
         -2    1    6    6    0  503 -0.19090843680E+03  0.12290224530E+03  0.72997487129E+01  0.22716575330E+03  0.00000000000E+00 0.  1.
<mgrwt>
<rscale>  0 0.32942273E+04</rscale>
<asrwt>0</asrwt>
<pdfrwt beam="1">  1        2 0.20861832E+00 0.32942273E+04</pdfrwt>
<pdfrwt beam="2">  1       -1 0.30779954E+00 0.32942273E+04</pdfrwt>
<totfact> 0.42890263E-01</totfact>
</mgrwt>
</event>
<event>
12    7  0.1544987E-007  0.1651423E+04  0.7818608E-02  0.8789565E-01
         -1   -1    0    0    0  501 -0.00000000000E+00  0.00000000000E+00  0.10208423577E+04  0.10208423577E+04  0.00000000000E+00 0.  1.
          2   -1    0    0  501    0  0.00000000000E+00 -0.00000000000E+00 -0.66787950538E+03  0.66787950538E+03  0.00000000000E+00 0. -1.
         24    2    1    2    0    0 -0.26943629681E+03  0.14153920774E+03 -0.37798792427E+03  0.49190166276E+03  0.80393467200E+02 0.  0.
        254    2    1    2    0    0  0.26943629681E+03 -0.14153920774E+03  0.73095077658E+03  0.11968202003E+04  0.89747439448E+03 0.  0.
         23    2    4    4    0    0 -0.32282527735E+03 -0.20686656188E+02  0.25371403076E+03  0.42141501687E+03  0.92605127251E+02 0.  0.
         23    2    4    4    0    0  0.59226157416E+03 -0.12085255155E+03  0.47723674582E+03  0.77540518345E+03  0.90106467746E+02 0.  0.
          2    1    3    3  502    0 -0.18415301989E+03  0.56482055162E+02 -0.25708077021E+03  0.32123679693E+03  0.00000000000E+00 0. -1.
         -1    1    3    3    0  502 -0.85283276919E+02  0.85057152576E+02 -0.12090715405E+03  0.17066486583E+03  0.00000000000E+00 0.  1.
         13    1    5    5    0    0 -0.32455541735E+01 -0.35229016774E+01  0.31336060819E+02  0.31700049933E+02  0.00000000000E+00 0.  1.
        -13    1    5    5    0    0 -0.31957972318E+03 -0.17163754511E+02  0.22237796995E+03  0.38971496693E+03  0.00000000000E+00 0. -1.
          3    1    6    6  503    0  0.59347876828E+03 -0.11828743412E+03  0.47923812448E+03  0.77193143829E+03  0.00000000000E+00 0. -1.
         -3    1    6    6    0  503 -0.12171941214E+01 -0.25651174261E+01 -0.20013786575E+01  0.34737451648E+01  0.00000000000E+00 0.  1.
<mgrwt>
<rscale>  0 0.16514233E+04</rscale>
<asrwt>0</asrwt>
<pdfrwt beam="1">  1        2 0.10275069E+00 0.16514233E+04</pdfrwt>
<pdfrwt beam="2">  1       -1 0.15705267E+00 0.16514233E+04</pdfrwt>
<totfact> 0.14594554E+01</totfact>
</mgrwt>
</event>
<event>
12    7  0.1544987E-007  0.1703293E+04  0.7818608E-02  0.8759489E-01
          2   -1    0    0  501    0  0.00000000000E+00  0.00000000000E+00  0.10315181705E+04  0.10315181705E+04  0.00000000000E+00 0. -1.
         -1   -1    0    0    0  501 -0.00000000000E+00 -0.00000000000E+00 -0.70314002065E+03  0.70314002065E+03  0.00000000000E+00 0.  1.
         24    2    1    2    0    0 -0.36587038827E+03  0.11324792322E+03 -0.36451804420E+03  0.53465438356E+03  0.79345271943E+02 0.  0.
        254    2    1    2    0    0  0.36587038827E+03 -0.11324792322E+03  0.69289619408E+03  0.12000038076E+04  0.90178587781E+03 0.  0.
         23    2    4    4    0    0  0.65698879930E+03 -0.99607132599E+02  0.52363400657E+03  0.85087306599E+03  0.90755376259E+02 0.  0.
         23    2    4    4    0    0 -0.29111841103E+03 -0.13640790625E+02  0.16926218751E+03  0.34913074163E+03  0.91140475239E+02 0.  0.
          2    1    3    3  502    0 -0.49175892073E+01 -0.15497354690E+01  0.37439691606E+01  0.63719438723E+01  0.00000000000E+00 0. -1.
         -1    1    3    3    0  502 -0.36095279907E+03  0.11479765869E+03 -0.36826201336E+03  0.52828243968E+03  0.00000000000E+00 0.  1.
         13    1    5    5    0    0  0.70428915058E+02 -0.16654184498E+02  0.96143727654E+02  0.12033790053E+03  0.00000000000E+00 0.  1.
        -13    1    5    5    0    0  0.58655988424E+03 -0.82952948101E+02  0.42749027891E+03  0.73053516545E+03  0.00000000000E+00 0. -1.
          3    1    6    6  503    0 -0.11853515871E+03 -0.33731326700E+02  0.30991759386E+02  0.12707822552E+03  0.00000000000E+00 0. -1.
         -3    1    6    6    0  503 -0.17258325232E+03  0.20090536075E+02  0.13827042812E+03  0.22205251612E+03  0.00000000000E+00 0.  1.
<mgrwt>
<rscale>  0 0.17032929E+04</rscale>
<asrwt>0</asrwt>
<pdfrwt beam="1">  1        2 0.15869510E+00 0.17032929E+04</pdfrwt>
<pdfrwt beam="2">  1       -1 0.10817539E+00 0.17032929E+04</pdfrwt>
<totfact> 0.20722759E+01</totfact>
</mgrwt>
</event>
<event>
12    7  0.1544987E-007  0.1948262E+04  0.7818608E-02  0.8631199E-01
         -1   -1    0    0    0  501 -0.00000000000E+00  0.00000000000E+00  0.62408822618E+03  0.62408822618E+03  0.00000000000E+00 0.  1.
          2   -1    0    0  501    0  0.00000000000E+00 -0.00000000000E+00 -0.15205078813E+04  0.15205078813E+04  0.00000000000E+00 0. -1.
         24    2    1    2    0    0 -0.27881248632E+03 -0.22908506806E+03 -0.11130791006E+04  0.11728189477E+04  0.79641879044E+02 0.  0.
        254    2    1    2    0    0  0.27881248632E+03  0.22908506806E+03  0.21665944550E+03  0.97177715979E+03  0.87589563421E+03 0.  0.
         23    2    4    4    0    0 -0.13834020739E+03  0.33879051999E+03  0.34726572086E+03  0.51188494741E+03  0.86693074073E+02 0.  0.
         23    2    4    4    0    0  0.41715269371E+03 -0.10970545192E+03 -0.13060627536E+03  0.45989221238E+03  0.91603448601E+02 0.  0.
          2    1    3    3  502    0 -0.26421832703E+03 -0.22519304436E+03 -0.10975876229E+04  0.11511827924E+04  0.00000000000E+00 0. -1.
         -3    1    3    3    0  502 -0.14594159290E+02 -0.38920237053E+01 -0.15491477696E+02  0.21636155275E+02  0.00000000000E+00 0.  1.
         13    1    5    5    0    0 -0.17770468268E+02  0.28707283032E+02  0.74032496886E+02  0.81367734617E+02  0.00000000000E+00 0. -1.
        -13    1    5    5    0    0 -0.12056973912E+03  0.31008323695E+03  0.27323322397E+03  0.43051721279E+03  0.00000000000E+00 0.  1.
          2    1    6    6  503    0  0.15053803445E+03 -0.19782984168E+02 -0.87494365262E+02  0.17523792464E+03  0.00000000000E+00 0. -1.
         -2    1    6    6    0  503  0.26661465926E+03 -0.89922467753E+02 -0.43111910097E+02  0.28465428774E+03  0.00000000000E+00 0.  1.
<mgrwt>
<rscale>  0 0.19482619E+04</rscale>
<asrwt>0</asrwt>
<pdfrwt beam="1">  1        2 0.23392429E+00 0.19482619E+04</pdfrwt>
<pdfrwt beam="2">  1       -1 0.96013575E-01 0.19482619E+04</pdfrwt>
<totfact> 0.13735302E+01</totfact>
</mgrwt>
</event>
<event>
12    7  0.1544987E-007  0.1213069E+04  0.7818608E-02  0.9101493E-01
          2   -1    0    0  501    0  0.00000000000E+00  0.00000000000E+00  0.71961563130E+03  0.71961563130E+03  0.00000000000E+00 0. -1.
         -1   -1    0    0    0  501 -0.00000000000E+00 -0.00000000000E+00 -0.51122318071E+03  0.51122318071E+03  0.00000000000E+00 0.  1.
         24    2    1    2    0    0 -0.17644329780E+03 -0.21234008532E+03 -0.72375905493E+00  0.28658663489E+03  0.76881898373E+02 0.  0.
        254    2    1    2    0    0  0.17644329780E+03  0.21234008532E+03  0.20911620965E+03  0.94425217712E+03  0.87844296097E+03 0.  0.
         23    2    4    4    0    0  0.57794612684E+02  0.87980611390E+02  0.54136290029E+03  0.55926586483E+03  0.92863946244E+02 0.  0.
         23    2    4    4    0    0  0.11864868512E+03  0.12435947393E+03 -0.33224669065E+03  0.38498631229E+03  0.91015427078E+02 0.  0.
          4    1    3    3  502    0 -0.32109866091E+02 -0.54180506206E+02  0.30888409632E+02  0.70147449010E+02  0.00000000000E+00 0. -1.
         -3    1    3    3    0  502 -0.14433343171E+03 -0.15815957912E+03 -0.31612168687E+02  0.21643918588E+03  0.00000000000E+00 0.  1.
         13    1    5    5    0    0  0.48072164204E+02  0.22263997561E+02  0.10228084262E+03  0.11518675847E+03  0.00000000000E+00 0. -1.
        -13    1    5    5    0    0  0.97224484799E+01  0.65716613829E+02  0.43908205767E+03  0.44407910636E+03  0.00000000000E+00 0.  1.
          3    1    6    6  503    0 -0.12899444362E+01 -0.12462755179E+02 -0.22465750498E+02  0.25723416740E+02  0.00000000000E+00 0. -1.
         -3    1    6    6    0  503  0.11993862956E+03  0.13682222911E+03 -0.30978094015E+03  0.35926289555E+03  0.00000000000E+00 0.  1.
<mgrwt>
<rscale>  0 0.12130692E+04</rscale>
<asrwt>0</asrwt>
<pdfrwt beam="1">  1        2 0.11071010E+00 0.12130692E+04</pdfrwt>
<pdfrwt beam="2">  1       -1 0.78649720E-01 0.12130692E+04</pdfrwt>
<totfact> 0.72070953E+01</totfact>
</mgrwt>
</event>
<event>
12    7  0.1544987E-007  0.1779090E+04  0.7818608E-02  0.8717499E-01
          2   -1    0    0  501    0  0.00000000000E+00  0.00000000000E+00  0.81875730443E+03  0.81875730443E+03  0.00000000000E+00 0. -1.
         -1   -1    0    0    0  501 -0.00000000000E+00 -0.00000000000E+00 -0.96645331361E+03  0.96645331361E+03  0.00000000000E+00 0.  1.
         24    2    1    2    0    0 -0.46861821510E+03  0.14057300660E+03  0.38327977072E+03  0.62660287289E+03  0.79774532013E+02 0.  0.
        254    2    1    2    0    0  0.46861821510E+03 -0.14057300660E+03 -0.53097577991E+03  0.11586077452E+04  0.90613068957E+03 0.  0.
         23    2    4    4    0    0  0.24946325180E+03 -0.34797857423E+03 -0.68047896480E+03  0.80945582807E+03  0.94053782151E+02 0.  0.
         23    2    4    4    0    0  0.21915496330E+03  0.20740556763E+03  0.14950318490E+03  0.34915191708E+03  0.92249073093E+02 0.  0.
          4    1    3    3  502    0 -0.31564874362E+03  0.63649207774E+02  0.27948821861E+03  0.42637895743E+03  0.00000000000E+00 0. -1.
         -3    1    3    3    0  502 -0.15296947148E+03  0.76923798826E+02  0.10379155212E+03  0.20022391546E+03  0.00000000000E+00 0.  1.
         13    1    5    5    0    0  0.19471537547E+02 -0.68614814462E+02 -0.70922810577E+02  0.10058418662E+03  0.00000000000E+00 0. -1.
        -13    1    5    5    0    0  0.22999171425E+03 -0.27936375976E+03 -0.60955615423E+03  0.70887164145E+03  0.00000000000E+00 0.  1.
          4    1    6    6  503    0  0.15897569912E+03  0.92741322442E+02  0.10681966116E+03  0.21280194033E+03  0.00000000000E+00 0. -1.
         -4    1    6    6    0  503  0.60179264179E+02  0.11466424519E+03  0.42683523737E+02  0.13634997675E+03  0.00000000000E+00 0.  1.
<mgrwt>
<rscale>  0 0.17790905E+04</rscale>
<asrwt>0</asrwt>
<pdfrwt beam="1">  1        2 0.12596266E+00 0.17790905E+04</pdfrwt>
<pdfrwt beam="2">  1       -1 0.14868512E+00 0.17790905E+04</pdfrwt>
<totfact> 0.12878864E+01</totfact>
</mgrwt>
</event>
<event>
12    7  0.1544987E-007  0.1719343E+04  0.7818608E-02  0.8750409E-01
          2   -1    0    0  501    0  0.00000000000E+00  0.00000000000E+00  0.94883589886E+03  0.94883589886E+03  0.00000000000E+00 0. -1.
         -1   -1    0    0    0  501 -0.00000000000E+00 -0.00000000000E+00 -0.77888567370E+03  0.77888567370E+03  0.00000000000E+00 0.  1.
         24    2    1    2    0    0  0.52057743771E+03  0.29498358655E+03 -0.11443397921E+03  0.61388891268E+03  0.75817389303E+02 0.  0.
        254    2    1    2    0    0 -0.52057743771E+03 -0.29498358655E+03  0.28438420437E+03  0.11138326599E+04  0.89539523872E+03 0.  0.
         23    2    4    4    0    0  0.22117435622E+03 -0.14314358336E+03  0.20652703529E+03  0.34712824141E+03  0.91849977514E+02 0.  0.
         23    2    4    4    0    0 -0.74175179394E+03 -0.15184000320E+03  0.77857169078E+02  0.76670441847E+03  0.92319099566E+02 0.  0.
          4    1    3    3  502    0  0.46272751634E+03  0.24406782016E+03 -0.11961328445E+03  0.53664997255E+03  0.00000000000E+00 0. -1.
         -3    1    3    3    0  502  0.57849921372E+02  0.50915766391E+02  0.51793052403E+01  0.77238940132E+02  0.00000000000E+00 0.  1.
         13    1    5    5    0    0  0.19685651726E+03 -0.87730735274E+02  0.18102924989E+03  0.28146182621E+03  0.00000000000E+00 0. -1.
        -13    1    5    5    0    0  0.24317838966E+02 -0.55412848083E+02  0.25497785409E+02  0.65666415201E+02  0.00000000000E+00 0.  1.
          3    1    6    6  503    0 -0.66420289458E+03 -0.12718425784E+03  0.41398205509E+02  0.67753607434E+03  0.00000000000E+00 0. -1.
         -3    1    6    6    0  503 -0.77548899353E+02 -0.24655745352E+02  0.36458963569E+02  0.89168344126E+02  0.00000000000E+00 0.  1.
<mgrwt>
<rscale>  0 0.17193425E+04</rscale>
<asrwt>0</asrwt>
<pdfrwt beam="1">  1        2 0.14597475E+00 0.17193425E+04</pdfrwt>
<pdfrwt beam="2">  1       -1 0.11982857E+00 0.17193425E+04</pdfrwt>
<totfact> 0.18321810E+01</totfact>
</mgrwt>
</event>
<event>
12    7  0.1544987E-007  0.1966379E+04  0.7818608E-02  0.8622503E-01
          2   -1    0    0  501    0  0.00000000000E+00  0.00000000000E+00  0.72453524653E+03  0.72453524653E+03  0.00000000000E+00 0. -1.
         -1   -1    0    0    0  501 -0.00000000000E+00 -0.00000000000E+00 -0.13341818745E+04  0.13341818745E+04  0.00000000000E+00 0.  1.
         24    2    1    2    0    0  0.28113716681E+03 -0.51461457736E+03 -0.77286884121E+03  0.97362279965E+03  0.82151326744E+02 0.  0.
        254    2    1    2    0    0 -0.28113716681E+03  0.51461457736E+03  0.16322221329E+03  0.10850943213E+04  0.89828833093E+03 0.  0.
         23    2    4    4    0    0 -0.32313283304E+03  0.68416128307E+03 -0.86296558266E+02  0.76725163380E+03  0.93469163707E+02 0.  0.
         23    2    4    4    0    0  0.41995666226E+02 -0.16954670570E+03  0.24951877155E+03  0.31784268753E+03  0.90855023341E+02 0.  0.
          2    1    3    3  502    0  0.45252979317E+02 -0.11770577551E+03 -0.12069885057E+03  0.17455856970E+03  0.00000000000E+00 0. -1.
         -1    1    3    3    0  502  0.23588418749E+03 -0.39690880185E+03 -0.65216999064E+03  0.79906422995E+03  0.00000000000E+00 0.  1.
         13    1    5    5    0    0 -0.31998745526E+03  0.65519865882E+03 -0.98269933491E+02  0.73575419392E+03  0.00000000000E+00 0. -1.
        -13    1    5    5    0    0 -0.31453777782E+01  0.28962624242E+02  0.11973375226E+02  0.31497439875E+02  0.00000000000E+00 0.  1.
          3    1    6    6  503    0  0.40995556663E+02 -0.16572075020E+03  0.25749146948E+03  0.30894313323E+03  0.00000000000E+00 0. -1.
         -3    1    6    6    0  503  0.10001095636E+01 -0.38259554969E+01 -0.79726979274E+01  0.88995543060E+01  0.00000000000E+00 0.  1.
<mgrwt>
<rscale>  0 0.19663792E+04</rscale>
<asrwt>0</asrwt>
<pdfrwt beam="1">  1        2 0.11146696E+00 0.19663792E+04</pdfrwt>
<pdfrwt beam="2">  1       -1 0.20525875E+00 0.19663792E+04</pdfrwt>
<totfact> 0.57739503E+00</totfact>
</mgrwt>
</event>
<event>
12    7  0.1544987E-007  0.2307856E+04  0.7818608E-02  0.8474830E-01
          2   -1    0    0  501    0  0.00000000000E+00  0.00000000000E+00  0.32115723893E+04  0.32115723893E+04  0.00000000000E+00 0. -1.
         -1   -1    0    0    0  501 -0.00000000000E+00 -0.00000000000E+00 -0.41460979327E+03  0.41460979327E+03  0.00000000000E+00 0.  1.
         24    2    1    2    0    0  0.55455292575E+02 -0.49591002378E+03  0.24893414677E+04  0.25404018559E+04  0.88422881320E+02 0.  0.
        254    2    1    2    0    0 -0.55455292575E+02  0.49591002378E+03  0.30762112843E+03  0.10857803267E+04  0.91393988750E+03 0.  0.
         23    2    4    4    0    0 -0.35339521456E+03  0.60608847172E+03  0.24831170006E+03  0.74986452635E+03  0.91688026800E+02 0.  0.
         23    2    4    4    0    0  0.29793992198E+03 -0.11017844794E+03  0.59309428361E+02  0.33591580032E+03  0.91729652309E+02 0.  0.
          2    1    3    3  502    0 -0.26814199730E+01 -0.31751608950E+03  0.16607636167E+04  0.16908457788E+04  0.00000000000E+00 0. -1.
         -1    1    3    3    0  502  0.58136712548E+02 -0.17839393428E+03  0.82857785093E+03  0.84955607713E+03  0.00000000000E+00 0.  1.
         13    1    5    5    0    0 -0.37802503527E+02  0.92953951943E+02  0.67356938792E+02  0.12085703810E+03  0.00000000000E+00 0.  1.
        -13    1    5    5    0    0 -0.31559271103E+03  0.51313451978E+03  0.18095476127E+03  0.62900748825E+03  0.00000000000E+00 0. -1.
          3    1    6    6  503    0  0.25093367459E+03 -0.56250686690E+02  0.31176163964E+02  0.25904401555E+03  0.00000000000E+00 0. -1.
         -3    1    6    6    0  503  0.47006247394E+02 -0.53927761254E+02  0.28133264397E+02  0.76871784769E+02  0.00000000000E+00 0.  1.
<mgrwt>
<rscale>  0 0.23078556E+04</rscale>
<asrwt>0</asrwt>
<pdfrwt beam="1">  1        2 0.49408804E+00 0.23078556E+04</pdfrwt>
<pdfrwt beam="2">  1       -1 0.63786124E-01 0.23078556E+04</pdfrwt>
<totfact> 0.32788184E+00</totfact>
</mgrwt>
</event>
<event>
12    7  0.1544987E-007  0.2021579E+04  0.7818608E-02  0.8596598E-01
          2   -1    0    0  501    0  0.00000000000E+00  0.00000000000E+00  0.12825886358E+04  0.12825886358E+04  0.00000000000E+00 0. -1.
         -1   -1    0    0    0  501 -0.00000000000E+00 -0.00000000000E+00 -0.79658825696E+03  0.79658825696E+03  0.00000000000E+00 0.  1.
         24    2    1    2    0    0  0.22312517261E+03  0.52983693051E+03  0.77836109289E+03  0.97078006464E+03  0.77819839275E+02 0.  0.
        254    2    1    2    0    0 -0.22312517261E+03 -0.52983693051E+03 -0.29236071401E+03  0.11083968282E+04  0.90141928424E+03 0.  0.
         23    2    4    4    0    0 -0.19340379118E+03  0.21751033276E+03 -0.15714759258E+03  0.34282386482E+03  0.90094756420E+02 0.  0.
         23    2    4    4    0    0 -0.29721381436E+02 -0.74734726328E+03 -0.13521312143E+03  0.76557296335E+03  0.91695591798E+02 0.  0.
          2    1    3    3  502    0  0.19257107041E+03  0.48964161084E+03  0.73684598530E+03  0.90541401042E+03  0.00000000000E+00 0. -1.
         -1    1    3    3    0  502  0.30554102201E+02  0.40195319680E+02  0.41515107596E+02  0.65366054219E+02  0.00000000000E+00 0.  1.
         13    1    5    5    0    0 -0.18605818675E+03  0.22440596322E+03 -0.14106033128E+03  0.32384209462E+03  0.00000000000E+00 0. -1.
        -13    1    5    5    0    0 -0.73456044233E+01 -0.68956304556E+01 -0.16087261302E+02  0.18981770200E+02  0.00000000000E+00 0.  1.
          3    1    6    6  503    0 -0.62459192184E+02 -0.43163515298E+03 -0.77349514114E+02  0.44293679381E+03  0.00000000000E+00 0. -1.
         -3    1    6    6    0  503  0.32737810748E+02 -0.31571211030E+03 -0.57863607315E+02  0.32263616954E+03  0.00000000000E+00 0.  1.
<mgrwt>
<rscale>  0 0.20215786E+04</rscale>
<asrwt>0</asrwt>
<pdfrwt beam="1">  1        2 0.19732133E+00 0.20215786E+04</pdfrwt>
<pdfrwt beam="2">  1       -1 0.12255204E+00 0.20215786E+04</pdfrwt>
<totfact> 0.10517629E+01</totfact>
</mgrwt>
</event>
<event>
12    7  0.1544987E-007  0.2371352E+04  0.7818608E-02  0.8450307E-01
         -1   -1    0    0    0  501 -0.00000000000E+00  0.00000000000E+00  0.35017324952E+03  0.35017324952E+03  0.00000000000E+00 0.  1.
          2   -1    0    0  501    0  0.00000000000E+00 -0.00000000000E+00 -0.40146625743E+04  0.40146625743E+04  0.00000000000E+00 0. -1.
         24    2    1    2    0    0  0.31534332356E+03 -0.77694234526E+03 -0.52201930412E+03  0.99099488704E+03  0.80535040144E+02 0.  0.
        254    2    1    2    0    0 -0.31534332356E+03  0.77694234526E+03 -0.31424700207E+04  0.33738409368E+04  0.89699722207E+03 0.  0.
         23    2    4    4    0    0 -0.61998195444E+03  0.45235326589E+03 -0.19759813049E+04  0.21217797435E+04  0.91902459044E+02 0.  0.
         23    2    4    4    0    0  0.30463863088E+03  0.32458907936E+03 -0.11664887159E+04  0.12520611933E+04  0.93800541835E+02 0.  0.
          4    1    3    3  502    0  0.15638057186E+02 -0.41485649703E+02 -0.81832765395E+01  0.45084076776E+02  0.00000000000E+00 0. -1.
         -1    1    3    3    0  502  0.29970526638E+03 -0.73545669556E+03 -0.51383602758E+03  0.94591081026E+03  0.00000000000E+00 0.  1.
         13    1    5    5    0    0 -0.14640107376E+03  0.15721412922E+03 -0.56488353890E+03  0.60435334809E+03  0.00000000000E+00 0. -1.
        -13    1    5    5    0    0 -0.47358088068E+03  0.29513913667E+03 -0.14110977660E+04  0.15174263955E+04  0.00000000000E+00 0.  1.
          3    1    6    6  503    0  0.13061748069E+03  0.18323869386E+03 -0.48544189175E+03  0.53506184264E+03  0.00000000000E+00 0. -1.
         -3    1    6    6    0  503  0.17402115019E+03  0.14135038551E+03 -0.68104682411E+03  0.71699935065E+03  0.00000000000E+00 0.  1.
<mgrwt>
<rscale>  0 0.23713519E+04</rscale>
<asrwt>0</asrwt>
<pdfrwt beam="1">  1        2 0.61764043E+00 0.23713519E+04</pdfrwt>
<pdfrwt beam="2">  1       -1 0.53872805E-01 0.23713519E+04</pdfrwt>
<totfact> 0.11930053E+00</totfact>
</mgrwt>
</event>
<event>
12    7  0.1544987E-007  0.2093390E+04  0.7818608E-02  0.8564161E-01
         -1   -1    0    0    0  501 -0.00000000000E+00  0.00000000000E+00  0.66357429493E+03  0.66357429493E+03  0.00000000000E+00 0.  1.
          2   -1    0    0  501    0  0.00000000000E+00 -0.00000000000E+00 -0.16510138369E+04  0.16510138369E+04  0.00000000000E+00 0. -1.
         24    2    1    2    0    0  0.51747265338E+03  0.68482664807E+02 -0.11399114562E+04  0.12562924804E+04  0.80030281750E+02 0.  0.
        254    2    1    2    0    0 -0.51747265338E+03 -0.68482664807E+02  0.15247191418E+03  0.10582956515E+04  0.90789546694E+03 0.  0.
         23    2    4    4    0    0 -0.45433661348E+03 -0.44846544253E+03  0.35593258550E+02  0.64583186608E+03  0.91043438526E+02 0.  0.
         23    2    4    4    0    0 -0.63136039898E+02  0.37998277772E+03  0.11687865563E+03  0.41246378537E+03  0.89959341934E+02 0.  0.
          4    1    3    3  502    0  0.40669609245E+03  0.28846253466E+02 -0.93453992845E+03  0.10196071282E+04  0.00000000000E+00 0. -1.
         -3    1    3    3    0  502  0.11077656093E+03  0.39636411341E+02 -0.20537152773E+03  0.23668535223E+03  0.00000000000E+00 0.  1.
         13    1    5    5    0    0 -0.37037635712E+03 -0.34973127330E+03 -0.68646362126E+01  0.50944845929E+03  0.00000000000E+00 0.  1.
        -13    1    5    5    0    0 -0.83960256363E+02 -0.98734169224E+02  0.42457894763E+02  0.13638340679E+03  0.00000000000E+00 0. -1.
          2    1    6    6  503    0 -0.49343196346E+02  0.14809135406E+03  0.90528041479E+01  0.15635777382E+03  0.00000000000E+00 0. -1.
         -2    1    6    6    0  503 -0.13792843552E+02  0.23189142366E+03  0.10782585149E+03  0.25610601155E+03  0.00000000000E+00 0.  1.
<mgrwt>
<rscale>  0 0.20933899E+04</rscale>
<asrwt>0</asrwt>
<pdfrwt beam="1">  1        2 0.25400213E+00 0.20933899E+04</pdfrwt>
<pdfrwt beam="2">  1       -1 0.10208835E+00 0.20933899E+04</pdfrwt>
<totfact> 0.99670352E+00</totfact>
</mgrwt>
</event>
<event>
12    7  0.1544987E-007  0.2752388E+04  0.7818608E-02  0.8318204E-01
         -1   -1    0    0    0  501 -0.00000000000E+00  0.00000000000E+00  0.11121084582E+04  0.11121084582E+04  0.00000000000E+00 0.  1.
          2   -1    0    0  501    0  0.00000000000E+00 -0.00000000000E+00 -0.17029899153E+04  0.17029899153E+04  0.00000000000E+00 0. -1.
         24    2    1    2    0    0  0.26731620820E+03 -0.42653348121E+03  0.88362605888E+03  0.10201495406E+04  0.80754613209E+02 0.  0.
        254    2    1    2    0    0 -0.26731620820E+03  0.42653348121E+03 -0.14745075159E+04  0.17949488329E+04  0.89122395190E+03 0.  0.
         23    2    4    4    0    0 -0.46460165109E+03  0.19768042772E+03 -0.13690645125E+04  0.14620926258E+04  0.91896471988E+02 0.  0.
         23    2    4    4    0    0  0.19728544288E+03  0.22885305349E+03 -0.10544300348E+03  0.33285620707E+03  0.91541037433E+02 0.  0.
          4    1    3    3  502    0  0.86186501085E+02 -0.20432690323E+03  0.42285923442E+03  0.47748039592E+03  0.00000000000E+00 0. -1.
         -3    1    3    3    0  502  0.18112970712E+03 -0.22220657798E+03  0.46076682447E+03  0.54266914471E+03  0.00000000000E+00 0.  1.
         13    1    5    5    0    0 -0.24502728778E+01  0.16481804423E+02 -0.38824400758E+02  0.42249116067E+02  0.00000000000E+00 0. -1.
        -13    1    5    5    0    0 -0.46215137821E+03  0.18119862330E+03 -0.13302401117E+04  0.14198435098E+04  0.00000000000E+00 0.  1.
          4    1    6    6  503    0  0.17109100871E+03  0.14121119185E+03 -0.55666141472E+02  0.22871697198E+03  0.00000000000E+00 0.  1.
         -4    1    6    6    0  503  0.26194434174E+02  0.87641861637E+02 -0.49776862005E+02  0.10413923508E+03  0.00000000000E+00 0. -1.
<mgrwt>
<rscale>  0 0.27523877E+04</rscale>
<asrwt>0</asrwt>
<pdfrwt beam="1">  1        2 0.26199845E+00 0.27523877E+04</pdfrwt>
<pdfrwt beam="2">  1       -1 0.17109361E+00 0.27523877E+04</pdfrwt>
<totfact> 0.23466747E+00</totfact>
</mgrwt>
</event>
<event>
12    7  0.1544987E-007  0.1783307E+04  0.7818608E-02  0.8715227E-01
          2   -1    0    0  501    0  0.00000000000E+00  0.00000000000E+00  0.17601387949E+04  0.17601387949E+04  0.00000000000E+00 0. -1.
         -1   -1    0    0    0  501 -0.00000000000E+00 -0.00000000000E+00 -0.45169516094E+03  0.45169516094E+03  0.00000000000E+00 0.  1.
         24    2    1    2    0    0  0.18869109717E+03 -0.60952098134E+03  0.68896492781E+03  0.94270311262E+03  0.83044144610E+02 0.  0.
        254    2    1    2    0    0 -0.18869109717E+03  0.60952098134E+03  0.61947870612E+03  0.12691308432E+04  0.90543860805E+03 0.  0.
         23    2    4    4    0    0 -0.12281224098E+03  0.65688967223E+03  0.38526243596E+02  0.67673377071E+03  0.99485863142E+02 0.  0.
         23    2    4    4    0    0 -0.65878856189E+02 -0.47368690891E+02  0.58095246252E+03  0.59239707247E+03  0.82732769731E+02 0.  0.
          4    1    3    3  502    0  0.15076940673E+03 -0.44085142017E+03  0.55054803535E+03  0.72123819083E+03  0.00000000000E+00 0. -1.
         -3    1    3    3    0  502  0.37921690434E+02 -0.16866956116E+03  0.13841689246E+03  0.22146492180E+03  0.00000000000E+00 0.  1.
         13    1    5    5    0    0 -0.12728619649E+03  0.64631077576E+03  0.49843913583E+02  0.66060866661E+03  0.00000000000E+00 0. -1.
        -13    1    5    5    0    0  0.44739555087E+01  0.10578896465E+02 -0.11317669987E+02  0.16125104101E+02  0.00000000000E+00 0.  1.
          2    1    6    6  503    0 -0.64841028854E+02 -0.68587627835E+02  0.48855345321E+03  0.49758727713E+03  0.00000000000E+00 0. -1.
         -2    1    6    6    0  503 -0.10378273348E+01  0.21218936944E+02  0.92399009311E+02  0.94809795339E+02  0.00000000000E+00 0.  1.
<mgrwt>
<rscale>  0 0.17833072E+04</rscale>
<asrwt>0</asrwt>
<pdfrwt beam="1">  1        2 0.27079058E+00 0.17833072E+04</pdfrwt>
<pdfrwt beam="2">  1       -1 0.69491564E-01 0.17833072E+04</pdfrwt>
<totfact> 0.20475814E+01</totfact>
</mgrwt>
</event>
<event>
12    7  0.1544987E-007  0.1268957E+04  0.7818608E-02  0.9054552E-01
          2   -1    0    0  501    0  0.00000000000E+00  0.00000000000E+00  0.28963312815E+04  0.28963312815E+04  0.00000000000E+00 0. -1.
         -1   -1    0    0    0  501 -0.00000000000E+00 -0.00000000000E+00 -0.13899059781E+03  0.13899059781E+03  0.00000000000E+00 0.  1.
         24    2    1    2    0    0  0.16853875592E+03 -0.21716697293E+03  0.10279823778E+04  0.10671067398E+04  0.80013865418E+02 0.  0.
        254    2    1    2    0    0 -0.16853875592E+03  0.21716697293E+03  0.17293583059E+04  0.19682151395E+04  0.89867896322E+03 0.  0.
         23    2    4    4    0    0 -0.49300023664E+02  0.37294168927E+03  0.17071885930E+04  0.17505749931E+04  0.92216692766E+02 0.  0.
         23    2    4    4    0    0 -0.11923873225E+03 -0.15577471635E+03  0.22169712909E+02  0.21764014646E+03  0.91608403855E+02 0.  0.
          2    1    3    3  502    0  0.50281370639E+02 -0.74203128281E+02  0.48734151306E+03  0.49551596425E+03  0.00000000000E+00 0. -1.
         -1    1    3    3    0  502  0.11825738528E+03 -0.14296384464E+03  0.54064086475E+03  0.57159077555E+03  0.00000000000E+00 0.  1.
         13    1    5    5    0    0  0.14431854467E+02  0.18626103255E+03  0.71775576514E+03  0.74167026977E+03  0.00000000000E+00 0.  1.
        -13    1    5    5    0    0 -0.63731878131E+02  0.18668065672E+03  0.98943282785E+03  0.10089047233E+04  0.00000000000E+00 0. -1.
          3    1    6    6  503    0  0.54448614635E+01 -0.22586164142E+02 -0.19693181394E+02  0.30456571055E+02  0.00000000000E+00 0. -1.
         -3    1    6    6    0  503 -0.12468359372E+03 -0.13318855220E+03  0.41862894303E+02  0.18718357540E+03  0.00000000000E+00 0.  1.
<mgrwt>
<rscale>  0 0.12689568E+04</rscale>
<asrwt>0</asrwt>
<pdfrwt beam="1">  1        2 0.44558938E+00 0.12689568E+04</pdfrwt>
<pdfrwt beam="2">  1       -1 0.21383171E-01 0.12689568E+04</pdfrwt>
<totfact> 0.41733692E+01</totfact>
</mgrwt>
</event>
<event>
12    7  0.1544987E-007  0.1219518E+04  0.7818608E-02  0.9095942E-01
          2   -1    0    0  501    0  0.00000000000E+00  0.00000000000E+00  0.40953290006E+04  0.40953290006E+04  0.00000000000E+00 0. -1.
         -1   -1    0    0    0  501 -0.00000000000E+00 -0.00000000000E+00 -0.90787872388E+02  0.90787872388E+02  0.00000000000E+00 0.  1.
         24    2    1    2    0    0  0.12469806519E+03  0.10923709405E+03  0.22734986557E+03  0.29239561393E+03  0.79529136117E+02 0.  0.
        254    2    1    2    0    0 -0.12469806519E+03 -0.10923709405E+03  0.37771912626E+04  0.38937212590E+04  0.93081096819E+03 0.  0.
         23    2    4    4    0    0 -0.25337348500E+03  0.36030224722E+03  0.18608295436E+04  0.19143858876E+04  0.90393051418E+02 0.  0.
         23    2    4    4    0    0  0.12867541981E+03 -0.46953934127E+03  0.19163617190E+04  0.19793353715E+04  0.91113764926E+02 0.  0.
          4    1    3    3  502    0  0.84785014213E+02  0.97296821800E+02  0.21161374088E+03  0.24786194846E+03  0.00000000000E+00 0. -1.
         -3    1    3    3    0  502  0.39913050976E+02  0.11940272247E+02  0.15736124697E+02  0.44533665468E+02  0.00000000000E+00 0.  1.
         13    1    5    5    0    0 -0.25300218385E+02  0.54072427663E+02  0.40227170011E+03  0.40667732810E+03  0.00000000000E+00 0.  1.
        -13    1    5    5    0    0 -0.22807326662E+03  0.30622981956E+03  0.14585578435E+04  0.15077085595E+04  0.00000000000E+00 0. -1.
          3    1    6    6  503    0  0.19903037503E+02 -0.21899774413E+03  0.76159020097E+03  0.79270156872E+03  0.00000000000E+00 0. -1.
         -3    1    6    6    0  503  0.10877238231E+03 -0.25054159714E+03  0.11547715180E+04  0.11866338028E+04  0.00000000000E+00 0.  1.
<mgrwt>
<rscale>  0 0.12195183E+04</rscale>
<asrwt>0</asrwt>
<pdfrwt beam="1">  1        2 0.63005047E+00 0.12195183E+04</pdfrwt>
<pdfrwt beam="2">  1       -1 0.13967368E-01 0.12195183E+04</pdfrwt>
<totfact> 0.12347655E+01</totfact>
</mgrwt>
</event>
<event>
12    7  0.1544987E-007  0.2246925E+04  0.7818608E-02  0.8499147E-01
          2   -1    0    0  501    0  0.00000000000E+00  0.00000000000E+00  0.14843963230E+04  0.14843963230E+04  0.00000000000E+00 0. -1.
         -1   -1    0    0    0  501 -0.00000000000E+00 -0.00000000000E+00 -0.85029028862E+03  0.85029028862E+03  0.00000000000E+00 0.  1.
         24    2    1    2    0    0 -0.21229614048E+03 -0.90363548615E+03  0.12318243919E+03  0.93953610791E+03  0.76989880186E+02 0.  0.
        254    2    1    2    0    0  0.21229614048E+03  0.90363548615E+03  0.51092359517E+03  0.13951505037E+04  0.90762066125E+03 0.  0.
         23    2    4    4    0    0  0.15176648034E+03  0.93604955613E+03  0.87506670876E+02  0.95663945704E+03  0.90993391193E+02 0.  0.
         23    2    4    4    0    0  0.60529660135E+02 -0.32414069979E+02  0.42341692430E+03  0.43851104664E+03  0.91079825173E+02 0.  0.
          4    1    3    3  502    0 -0.12894946340E+03 -0.63581831806E+03  0.11536905348E+03  0.65894075317E+03  0.00000000000E+00 0. -1.
         -3    1    3    3    0  502 -0.83346677078E+02 -0.26781716809E+03  0.78133857096E+01  0.28059535474E+03  0.00000000000E+00 0.  1.
         13    1    5    5    0    0  0.76312040797E+02  0.57407285922E+03  0.94686901761E+02  0.58681239304E+03  0.00000000000E+00 0.  1.
        -13    1    5    5    0    0  0.75454439543E+02  0.36197669691E+03 -0.71802308850E+01  0.36982706400E+03  0.00000000000E+00 0. -1.
          1    1    6    6  503    0 -0.64342705335E+01  0.57613782647E+01  0.23194900102E+03  0.23210974212E+03  0.00000000000E+00 0. -1.
         -1    1    6    6    0  503  0.66963930669E+02 -0.38175448244E+02  0.19146792328E+03  0.20640130451E+03  0.00000000000E+00 0.  1.
<mgrwt>
<rscale>  0 0.22469248E+04</rscale>
<asrwt>0</asrwt>
<pdfrwt beam="1">  1        2 0.22836866E+00 0.22469248E+04</pdfrwt>
<pdfrwt beam="2">  1       -1 0.13081389E+00 0.22469248E+04</pdfrwt>
<totfact> 0.67083150E+00</totfact>
</mgrwt>
</event>
<event>
12    7  0.1544987E-007  0.2632486E+04  0.7818608E-02  0.8357249E-01
          2   -1    0    0  501    0  0.00000000000E+00  0.00000000000E+00  0.13574708148E+04  0.13574708148E+04  0.00000000000E+00 0. -1.
         -1   -1    0    0    0  501 -0.00000000000E+00 -0.00000000000E+00 -0.12762675090E+04  0.12762675090E+04  0.00000000000E+00 0.  1.
         24    2    1    2    0    0 -0.90830859992E+03  0.26044022891E+03 -0.64004072600E+03  0.11440484908E+04  0.79631606632E+02 0.  0.
        254    2    1    2    0    0  0.90830859992E+03 -0.26044022891E+03  0.72124403177E+03  0.14896898331E+04  0.89784699132E+03 0.  0.
         23    2    4    4    0    0  0.71945841768E+03 -0.26691293393E+03  0.36393803928E+02  0.77288709540E+03  0.84658279011E+02 0.  0.
         23    2    4    4    0    0  0.18885018224E+03  0.64727050193E+01  0.68485022784E+03  0.71680273766E+03  0.95289259051E+02 0.  0.
          2    1    3    3  502    0 -0.14189675584E+03  0.25539406770E+02 -0.12852694860E+03  0.19314794105E+03  0.00000000000E+00 0. -1.
         -1    1    3    3    0  502 -0.76641184408E+03  0.23490082214E+03 -0.51151377741E+03  0.95090054973E+03  0.00000000000E+00 0.  1.
         13    1    5    5    0    0  0.29347412800E+03 -0.89648028990E+02  0.51960841850E+02  0.31122943626E+03  0.00000000000E+00 0. -1.
        -13    1    5    5    0    0  0.42598428968E+03 -0.17726490494E+03 -0.15567037922E+02  0.46165765914E+03  0.00000000000E+00 0.  1.
          1    1    6    6  503    0  0.18548669823E+03 -0.17590700830E+02  0.58081541671E+03  0.60996827480E+03  0.00000000000E+00 0. -1.
         -1    1    6    6    0  503  0.33634840099E+01  0.24063405849E+02  0.10403481113E+03  0.10683446286E+03  0.00000000000E+00 0.  1.
<mgrwt>
<rscale>  0 0.26324862E+04</rscale>
<asrwt>0</asrwt>
<pdfrwt beam="1">  1        2 0.20884166E+00 0.26324862E+04</pdfrwt>
<pdfrwt beam="2">  1       -1 0.19634885E+00 0.26324862E+04</pdfrwt>
<totfact> 0.24545617E+00</totfact>
</mgrwt>
</event>
<event>
12    7  0.1544987E-007  0.1186778E+04  0.7818608E-02  0.9124509E-01
          2   -1    0    0  501    0  0.00000000000E+00  0.00000000000E+00  0.50733854802E+03  0.50733854802E+03  0.00000000000E+00 0. -1.
         -1   -1    0    0    0  501 -0.00000000000E+00 -0.00000000000E+00 -0.69403466334E+03  0.69403466334E+03  0.00000000000E+00 0.  1.
         24    2    1    2    0    0 -0.11983050956E+03  0.13502790638E+03 -0.20487087230E+03  0.28453990265E+03  0.79993720760E+02 0.  0.
        254    2    1    2    0    0  0.11983050956E+03 -0.13502790638E+03  0.18174756984E+02  0.91683330871E+03  0.89869967600E+03 0.  0.
         23    2    4    4    0    0  0.38582195264E+03 -0.25765621631E+03 -0.22615335697E+03  0.52458827016E+03  0.93820079847E+02 0.  0.
         23    2    4    4    0    0 -0.26599144308E+03  0.12262830993E+03  0.24432811395E+03  0.39224503855E+03  0.91492036878E+02 0.  0.
          2    1    3    3  502    0  0.83214131597E+01 -0.32468725850E+01 -0.91212131409E+01  0.12766543296E+02  0.00000000000E+00 0. -1.
         -1    1    3    3    0  502 -0.12815192272E+03  0.13827477896E+03 -0.19574965916E+03  0.27177335935E+03  0.00000000000E+00 0.  1.
         13    1    5    5    0    0  0.16014373139E+03 -0.98728733294E+02 -0.41967446431E+02  0.19275539951E+03  0.00000000000E+00 0.  1.
        -13    1    5    5    0    0  0.22567822125E+03 -0.15892748302E+03 -0.18418591053E+03  0.33183287065E+03  0.00000000000E+00 0. -1.
          3    1    6    6  503    0 -0.16812380649E+03  0.87251239021E+02  0.20967116705E+03  0.28256042064E+03  0.00000000000E+00 0. -1.
         -3    1    6    6    0  503 -0.97867636586E+02  0.35377070913E+02  0.34656946897E+02  0.10968461791E+03  0.00000000000E+00 0.  1.
<mgrwt>
<rscale>  0 0.11867781E+04</rscale>
<asrwt>0</asrwt>
<pdfrwt beam="1">  1        2 0.78052085E-01 0.11867781E+04</pdfrwt>
<pdfrwt beam="2">  1       -1 0.10677456E+00 0.11867781E+04</pdfrwt>
<totfact> 0.56001602E+01</totfact>
</mgrwt>
</event>
<event>
12    7  0.1544987E-007  0.1507270E+04  0.7818608E-02  0.8879633E-01
          2   -1    0    0  501    0  0.00000000000E+00  0.00000000000E+00  0.43941975811E+03  0.43941975811E+03  0.00000000000E+00 0. -1.
         -1   -1    0    0    0  501 -0.00000000000E+00 -0.00000000000E+00 -0.12925363670E+04  0.12925363670E+04  0.00000000000E+00 0.  1.
         24    2    1    2    0    0 -0.44931082070E+03 -0.35734425386E+02 -0.10101741331E+03  0.46918349659E+03  0.82288959959E+02 0.  0.
        254    2    1    2    0    0  0.44931082070E+03  0.35734425386E+02 -0.75209919558E+03  0.12627726285E+04  0.90872677335E+03 0.  0.
         23    2    4    4    0    0  0.59501426758E+03  0.24962121491E+02 -0.12822656132E+03  0.61595093406E+03  0.91040738133E+02 0.  0.
         23    2    4    4    0    0 -0.14570344689E+03  0.10772303896E+02 -0.62387263426E+03  0.64682169447E+03  0.88406468611E+02 0.  0.
          2    1    3    3  502    0 -0.35210651986E+03 -0.20155371541E+00 -0.98634761529E+02  0.36566085125E+03  0.00000000000E+00 0. -1.
         -1    1    3    3    0  502 -0.97204300835E+02 -0.35532871671E+02 -0.23826517812E+01  0.10352264535E+03  0.00000000000E+00 0.  1.
         13    1    5    5    0    0  0.46649312812E+03 -0.16941988660E+02 -0.10959030474E+03  0.47949234035E+03  0.00000000000E+00 0.  1.
        -13    1    5    5    0    0  0.12852113946E+03  0.41904110151E+02 -0.18636256579E+02  0.13645859370E+03  0.00000000000E+00 0. -1.
          1    1    6    6  503    0 -0.26733892381E+02 -0.34248536867E+02 -0.16944375482E+03  0.17492526783E+03  0.00000000000E+00 0. -1.
         -1    1    6    6    0  503 -0.11896955450E+03  0.45020840763E+02 -0.45442887944E+03  0.47189642663E+03  0.00000000000E+00 0.  1.
<mgrwt>
<rscale>  0 0.15072704E+04</rscale>
<asrwt>0</asrwt>
<pdfrwt beam="1">  1        2 0.67603040E-01 0.15072704E+04</pdfrwt>
<pdfrwt beam="2">  1       -1 0.19885175E+00 0.15072704E+04</pdfrwt>
<totfact> 0.12096626E+01</totfact>
</mgrwt>
</event>
<event>
12    7  0.1544987E-007  0.1658877E+04  0.7818608E-02  0.8785172E-01
          2   -1    0    0  501    0  0.00000000000E+00  0.00000000000E+00  0.21679085733E+04  0.21679085733E+04  0.00000000000E+00 0. -1.
         -1   -1    0    0    0  501 -0.00000000000E+00 -0.00000000000E+00 -0.31734179746E+03  0.31734179746E+03  0.00000000000E+00 0.  1.
         24    2    1    2    0    0 -0.20930334403E+03  0.19526893114E+02 -0.15968789596E+03  0.27615983584E+03  0.81085395956E+02 0.  0.
        254    2    1    2    0    0  0.20930334403E+03 -0.19526893114E+02  0.20102546718E+04  0.22090905349E+04  0.89149759202E+03 0.  0.
         23    2    4    4    0    0  0.51089013606E+03  0.15645667460E+03  0.10208484790E+04  0.11558211458E+04  0.91123442173E+02 0.  0.
         23    2    4    4    0    0 -0.30158679202E+03 -0.17598356771E+03  0.98940619275E+03  0.10532693891E+04  0.92341662312E+02 0.  0.
          4    1    3    3  502    0 -0.77537066546E+02 -0.20566857141E+02 -0.26285774978E+02  0.84415249022E+02  0.00000000000E+00 0. -1.
         -3    1    3    3    0  502 -0.13176627749E+03  0.40093750254E+02 -0.13340212098E+03  0.19174458682E+03  0.00000000000E+00 0.  1.
         13    1    5    5    0    0  0.19036456000E+03  0.10424677604E+03  0.39233993144E+03  0.44837113848E+03  0.00000000000E+00 0.  1.
        -13    1    5    5    0    0  0.32052557606E+03  0.52209898553E+02  0.62850854760E+03  0.70745000730E+03  0.00000000000E+00 0. -1.
          4    1    6    6  503    0 -0.82479912600E+02 -0.90518517244E+02  0.27198298588E+03  0.29828054338E+03  0.00000000000E+00 0.  1.
         -4    1    6    6    0  503 -0.21910687942E+03 -0.85465050467E+02  0.71742320687E+03  0.75498884576E+03  0.00000000000E+00 0. -1.
<mgrwt>
<rscale>  0 0.16588767E+04</rscale>
<asrwt>0</asrwt>
<pdfrwt beam="1">  1        2 0.33352439E+00 0.16588767E+04</pdfrwt>
<pdfrwt beam="2">  1       -1 0.48821816E-01 0.16588767E+04</pdfrwt>
<totfact> 0.24593142E+01</totfact>
</mgrwt>
</event>
<event>
12    7  0.1544987E-007  0.1725383E+04  0.7818608E-02  0.8747018E-01
          2   -1    0    0  501    0  0.00000000000E+00  0.00000000000E+00  0.87155480932E+03  0.87155480932E+03  0.00000000000E+00 0. -1.
         -1   -1    0    0    0  501 -0.00000000000E+00 -0.00000000000E+00 -0.85391842204E+03  0.85391842204E+03  0.00000000000E+00 0.  1.
         24    2    1    2    0    0 -0.48505413019E+03 -0.16578394725E+03  0.38553091140E+03  0.64524747301E+03  0.70344803656E+02 0.  0.
        254    2    1    2    0    0  0.48505413019E+03  0.16578394725E+03 -0.36789452413E+03  0.10802257583E+04  0.87680070811E+03 0.  0.
         23    2    4    4    0    0 -0.21108316984E+03  0.16257671475E+03 -0.23252131846E+03  0.36524085804E+03  0.91364260374E+02 0.  0.
         23    2    4    4    0    0  0.69613730003E+03  0.32072324944E+01 -0.13537320567E+03  0.71498490031E+03  0.90884960350E+02 0.  0.
          4    1    3    3  502    0 -0.43906932119E+03 -0.17082019382E+03  0.34944451631E+03  0.58657725613E+03  0.00000000000E+00 0. -1.
         -3    1    3    3    0  502 -0.45984809004E+02  0.50362465750E+01  0.36086395090E+02  0.58670216884E+02  0.00000000000E+00 0.  1.
         13    1    5    5    0    0 -0.13803960240E+03  0.11318558535E+03 -0.95908301483E+02  0.20264330943E+03  0.00000000000E+00 0. -1.
        -13    1    5    5    0    0 -0.73043567443E+02  0.49391129406E+02 -0.13661301698E+03  0.16259754862E+03  0.00000000000E+00 0.  1.
          2    1    6    6  503    0  0.56855052062E+03 -0.11409369591E+02 -0.14289459356E+03  0.58634352822E+03  0.00000000000E+00 0. -1.
         -2    1    6    6    0  503  0.12758677941E+03  0.14616602085E+02  0.75213878978E+01  0.12864137209E+03  0.00000000000E+00 0.  1.
<mgrwt>
<rscale>  0 0.17253831E+04</rscale>
<asrwt>0</asrwt>
<pdfrwt beam="1">  1        2 0.13408536E+00 0.17253831E+04</pdfrwt>
<pdfrwt beam="2">  1       -1 0.13137206E+00 0.17253831E+04</pdfrwt>
<totfact> 0.16415110E+01</totfact>
</mgrwt>
</event>
<event>
12    7  0.1544987E-007  0.2485421E+04  0.7818608E-02  0.8408198E-01
          2   -1    0    0  501    0  0.00000000000E+00  0.00000000000E+00  0.13920831539E+04  0.13920831539E+04  0.00000000000E+00 0. -1.
         -1   -1    0    0    0  501 -0.00000000000E+00 -0.00000000000E+00 -0.11093658512E+04  0.11093658512E+04  0.00000000000E+00 0.  1.
         24    2    1    2    0    0  0.92282626609E+03 -0.29272596325E+03 -0.34890634301E+03  0.10321876070E+04  0.79867470348E+02 0.  0.
        254    2    1    2    0    0 -0.92282626609E+03  0.29272596325E+03  0.63162364578E+03  0.14692613982E+04  0.90690893659E+03 0.  0.
         23    2    4    4    0    0  0.53084652944E+02  0.50757542473E+02 -0.15270110395E+03  0.19086173837E+03  0.87842287813E+02 0.  0.
         23    2    4    4    0    0 -0.97591091904E+03  0.24196842078E+03  0.78432474973E+03  0.12783996598E+04  0.90496069425E+02 0.  0.
          2    1    3    3  502    0  0.50652226801E+02 -0.16459731004E+01 -0.67622309529E+01  0.51128124108E+02  0.00000000000E+00 0. -1.
         -1    1    3    3    0  502  0.87217403929E+03 -0.29107999015E+03 -0.34214411206E+03  0.98105948286E+03  0.00000000000E+00 0.  1.
         13    1    5    5    0    0  0.31854769322E+02 -0.20018546595E+02 -0.32256332776E+02  0.49557436783E+02  0.00000000000E+00 0.  1.
        -13    1    5    5    0    0  0.21229883622E+02  0.70776089069E+02 -0.12044477117E+03  0.14130430158E+03  0.00000000000E+00 0. -1.
          4    1    6    6  503    0 -0.90265643005E+03  0.23602353571E+03  0.75098734356E+03  0.11976968441E+04  0.00000000000E+00 0. -1.
         -4    1    6    6    0  503 -0.73254488990E+02  0.59448850677E+01  0.33337406167E+02  0.80702815723E+02  0.00000000000E+00 0.  1.
<mgrwt>
<rscale>  0 0.24854211E+04</rscale>
<asrwt>0</asrwt>
<pdfrwt beam="1">  1        2 0.21416664E+00 0.24854211E+04</pdfrwt>
<pdfrwt beam="2">  1       -1 0.17067167E+00 0.24854211E+04</pdfrwt>
<totfact> 0.36191507E+00</totfact>
</mgrwt>
</event>
<event>
12    7  0.1544987E-007  0.1179687E+04  0.7818608E-02  0.9130825E-01
          2   -1    0    0  501    0  0.00000000000E+00  0.00000000000E+00  0.19325211541E+03  0.19325211541E+03  0.00000000000E+00 0. -1.
         -1   -1    0    0    0  501 -0.00000000000E+00 -0.00000000000E+00 -0.18003177074E+04  0.18003177074E+04  0.00000000000E+00 0.  1.
         24    2    1    2    0    0 -0.87332545981E+02  0.20684889993E+03 -0.44879002490E+03  0.50841540950E+03  0.81610668300E+02 0.  0.
        254    2    1    2    0    0  0.87332545981E+02 -0.20684889993E+03 -0.11582755671E+04  0.14851544133E+04  0.90203542118E+03 0.  0.
         23    2    4    4    0    0  0.34873559921E+03  0.13962513419E+03 -0.21804521380E+03  0.44520126143E+03  0.97717714206E+02 0.  0.
         23    2    4    4    0    0 -0.26140305322E+03 -0.34647403412E+03 -0.94023035332E+03  0.10399531519E+04  0.95360517441E+02 0.  0.
          2    1    3    3  502    0 -0.55649868895E+02  0.40588536148E+02 -0.11191687193E+03  0.13141431960E+03  0.00000000000E+00 0. -1.
         -1    1    3    3    0  502 -0.31682677086E+02  0.16626036378E+03 -0.33687315297E+03  0.37700108990E+03  0.00000000000E+00 0.  1.
         13    1    5    5    0    0  0.30335414962E+03  0.15040459419E+03 -0.17247173194E+03  0.37998918454E+03  0.00000000000E+00 0.  1.
        -13    1    5    5    0    0  0.45381449586E+02 -0.10779460002E+02 -0.45573481860E+02  0.65212076898E+02  0.00000000000E+00 0. -1.
          1    1    6    6  503    0 -0.13951228563E+01 -0.43339141923E+02 -0.68125263584E+02  0.80754437208E+02  0.00000000000E+00 0. -1.
         -1    1    6    6    0  503 -0.26000793037E+03 -0.30313489219E+03 -0.87210508973E+03  0.95919871469E+03  0.00000000000E+00 0.  1.
<mgrwt>
<rscale>  0 0.11796867E+04</rscale>
<asrwt>0</asrwt>
<pdfrwt beam="1">  1        2 0.29731094E-01 0.11796867E+04</pdfrwt>
<pdfrwt beam="2">  1       -1 0.27697196E+00 0.11796867E+04</pdfrwt>
<totfact> 0.95446056E+00</totfact>
</mgrwt>
</event>
<event>
12    7  0.1544987E-007  0.2355149E+04  0.7818608E-02  0.8456489E-01
          2   -1    0    0  501    0  0.00000000000E+00  0.00000000000E+00  0.18753639267E+04  0.18753639267E+04  0.00000000000E+00 0. -1.
         -1   -1    0    0    0  501 -0.00000000000E+00 -0.00000000000E+00 -0.73941999091E+03  0.73941999091E+03  0.00000000000E+00 0.  1.
         24    2    1    2    0    0  0.36128955783E+03  0.65863385315E+03  0.12271777880E+04  0.14409951825E+04  0.78569049722E+02 0.  0.
        254    2    1    2    0    0 -0.36128955783E+03 -0.65863385315E+03 -0.91233852130E+02  0.11737887352E+04  0.89728907376E+03 0.  0.
         23    2    4    4    0    0 -0.22668217878E+03 -0.83046671649E+03  0.97983761968E+02  0.87093926985E+03  0.88739037506E+02 0.  0.
         23    2    4    4    0    0 -0.13460737904E+03  0.17183286334E+03 -0.18921761410E+03  0.30284946531E+03  0.90933017859E+02 0.  0.
          4    1    3    3  502    0  0.30149476329E+03  0.59896455870E+03  0.11018309844E+04  0.12898407472E+04  0.00000000000E+00 0. -1.
         -3    1    3    3    0  502  0.59794794533E+02  0.59669294451E+02  0.12534680357E+03  0.15115443533E+03  0.00000000000E+00 0.  1.
         13    1    5    5    0    0 -0.24362922929E+02 -0.25036767755E+02  0.26843945223E+01  0.35037090735E+02  0.00000000000E+00 0. -1.
        -13    1    5    5    0    0 -0.20231925585E+03 -0.80542994874E+03  0.95299367445E+02  0.83590217911E+03  0.00000000000E+00 0.  1.
          4    1    6    6  503    0 -0.98363233476E+02  0.58514741927E+02 -0.68636449176E+02  0.13345509686E+03  0.00000000000E+00 0. -1.
         -4    1    6    6    0  503 -0.36244145569E+02  0.11331812141E+03 -0.12058116492E+03  0.16939436845E+03  0.00000000000E+00 0.  1.
<mgrwt>
<rscale>  0 0.23551489E+04</rscale>
<asrwt>0</asrwt>
<pdfrwt beam="1">  1        2 0.28851753E+00 0.23551489E+04</pdfrwt>
<pdfrwt beam="2">  1       -1 0.11375692E+00 0.23551489E+04</pdfrwt>
<totfact> 0.56716200E+00</totfact>
</mgrwt>
</event>
<event>
12    7  0.1544987E-007  0.1494172E+04  0.7818608E-02  0.8888338E-01
          2   -1    0    0  501    0  0.00000000000E+00  0.00000000000E+00  0.12993653980E+04  0.12993653980E+04  0.00000000000E+00 0. -1.
         -1   -1    0    0    0  501 -0.00000000000E+00 -0.00000000000E+00 -0.42954630175E+03  0.42954630175E+03  0.00000000000E+00 0.  1.
         24    2    1    2    0    0  0.34634318166E+03  0.28364626885E+02 -0.73164367439E+02  0.36381185776E+03  0.79043605981E+02 0.  0.
        254    2    1    2    0    0 -0.34634318166E+03 -0.28364626885E+02  0.94298346365E+03  0.13650998420E+04  0.92386233511E+03 0.  0.
         23    2    4    4    0    0 -0.29704462651E+03  0.38778277008E+03  0.26631134237E+03  0.56376809300E+03  0.91113910584E+02 0.  0.
         23    2    4    4    0    0 -0.49298555150E+02 -0.41614739697E+03  0.67667212128E+03  0.80133174895E+03  0.92943039596E+02 0.  0.
          4    1    3    3  502    0  0.18616431157E+03  0.52455482714E+02 -0.53264742824E+02  0.20061371189E+03  0.00000000000E+00 0. -1.
         -3    1    3    3    0  502  0.16017887009E+03 -0.24090855829E+02 -0.19899624615E+02  0.16319814587E+03  0.00000000000E+00 0.  1.
         13    1    5    5    0    0 -0.75019342566E+02  0.47618632007E+02  0.29796903400E+02  0.93719215348E+02  0.00000000000E+00 0.  1.
        -13    1    5    5    0    0 -0.22202528394E+03  0.34016413808E+03  0.23651443897E+03  0.47004887765E+03  0.00000000000E+00 0. -1.
          3    1    6    6  503    0 -0.62581212497E+02 -0.40107285503E+03  0.66165011461E+03  0.77624526882E+03  0.00000000000E+00 0. -1.
         -3    1    6    6    0  503  0.13282657347E+02 -0.15074541943E+02  0.15022006672E+02  0.25086480132E+02  0.00000000000E+00 0.  1.
<mgrwt>
<rscale>  0 0.14941721E+04</rscale>
<asrwt>0</asrwt>
<pdfrwt beam="1">  1        2 0.19990237E+00 0.14941721E+04</pdfrwt>
<pdfrwt beam="2">  1       -1 0.66084047E-01 0.14941721E+04</pdfrwt>
<totfact> 0.42310211E+01</totfact>
</mgrwt>
</event>
<event>
12    7  0.1544987E-007  0.2192442E+04  0.7818608E-02  0.8521581E-01
          2   -1    0    0  501    0  0.00000000000E+00  0.00000000000E+00  0.29444144294E+04  0.29444144294E+04  0.00000000000E+00 0. -1.
         -1   -1    0    0    0  501 -0.00000000000E+00 -0.00000000000E+00 -0.40812884845E+03  0.40812884845E+03  0.00000000000E+00 0.  1.
         24    2    1    2    0    0 -0.85526737886E+03 -0.76240559185E+02  0.15342595860E+04  0.17601768926E+04  0.83518283882E+02 0.  0.
        254    2    1    2    0    0  0.85526737886E+03  0.76240559185E+02  0.10020259949E+04  0.15923663852E+04  0.89122370825E+03 0.  0.
         23    2    4    4    0    0  0.48504318886E+03 -0.70651482178E+02 -0.11876851524E+02  0.49906182455E+03  0.93075872949E+02 0.  0.
         23    2    4    4    0    0  0.37022419000E+03  0.14689204136E+03  0.10139028464E+04  0.10933045607E+04  0.93127105226E+02 0.  0.
          4    1    3    3  502    0 -0.58343529236E+03 -0.13825996102E+02  0.10560111770E+04  0.12065436189E+04  0.00000000000E+00 0. -1.
         -3    1    3    3    0  502 -0.27183208650E+03 -0.62414563083E+02  0.47824840907E+03  0.55363327367E+03  0.00000000000E+00 0.  1.
         13    1    5    5    0    0  0.43909773425E+03 -0.64400715513E+02 -0.38724292867E+02  0.44548158575E+03  0.00000000000E+00 0.  1.
        -13    1    5    5    0    0  0.45945454612E+02 -0.62507666642E+01  0.26847441343E+02  0.53580238801E+02  0.00000000000E+00 0. -1.
          1    1    6    6  503    0  0.14742870262E+03  0.10539679094E+03  0.40948189663E+03  0.44779362385E+03  0.00000000000E+00 0. -1.
         -1    1    6    6    0  503  0.22279548738E+03  0.41495250423E+02  0.60442094980E+03  0.64551093683E+03  0.00000000000E+00 0.  1.
<mgrwt>
<rscale>  0 0.21924420E+04</rscale>
<asrwt>0</asrwt>
<pdfrwt beam="1">  1        2 0.45298682E+00 0.21924420E+04</pdfrwt>
<pdfrwt beam="2">  1       -1 0.62789055E-01 0.21924420E+04</pdfrwt>
<totfact> 0.50550281E+00</totfact>
</mgrwt>
</event>
<event>
12    7  0.1544987E-007  0.1296489E+04  0.7818608E-02  0.9032354E-01
          2   -1    0    0  501    0  0.00000000000E+00  0.00000000000E+00  0.11563181352E+04  0.11563181352E+04  0.00000000000E+00 0. -1.
         -1   -1    0    0    0  501 -0.00000000000E+00 -0.00000000000E+00 -0.36341263178E+03  0.36341263178E+03  0.00000000000E+00 0.  1.
         24    2    1    2    0    0 -0.14124225490E+03 -0.28973695257E+03  0.28730988576E+03  0.43899348698E+03  0.79192391652E+02 0.  0.
        254    2    1    2    0    0  0.14124225490E+03  0.28973695257E+03  0.50559561766E+03  0.10807372800E+04  0.89914918869E+03 0.  0.
         23    2    4    4    0    0 -0.35218292590E+03  0.24761583114E+03  0.14808488802E+03  0.46430069311E+03  0.91102066038E+02 0.  0.
         23    2    4    4    0    0  0.49342518080E+03  0.42121121431E+02  0.35751072963E+03  0.61643658689E+03  0.83291931962E+02 0.  0.
          2    1    3    3  502    0 -0.53978878066E+02 -0.84876662511E+02  0.13850792066E+03  0.17117888656E+03  0.00000000000E+00 0. -1.
         -1    1    3    3    0  502 -0.87263376835E+02 -0.20486029006E+03  0.14880196510E+03  0.26781460042E+03  0.00000000000E+00 0.  1.
         13    1    5    5    0    0 -0.92821982844E+02  0.11353707902E+03  0.67342228734E+02  0.16137398980E+03  0.00000000000E+00 0. -1.
        -13    1    5    5    0    0 -0.25936094306E+03  0.13407875212E+03  0.80742659290E+02  0.30292670332E+03  0.00000000000E+00 0.  1.
          3    1    6    6  503    0  0.63340853391E+02 -0.16225756342E+02  0.26322486510E+02  0.70485545846E+02  0.00000000000E+00 0. -1.
         -3    1    6    6    0  503  0.43008432741E+03  0.58346877773E+02  0.33118824312E+03  0.54595104104E+03  0.00000000000E+00 0.  1.
<mgrwt>
<rscale>  0 0.12964885E+04</rscale>
<asrwt>0</asrwt>
<pdfrwt beam="1">  1        2 0.17789510E+00 0.12964885E+04</pdfrwt>
<pdfrwt beam="2">  1       -1 0.55909636E-01 0.12964885E+04</pdfrwt>
<totfact> 0.72793220E+01</totfact>
</mgrwt>
</event>
<event>
12    7  0.1544987E-007  0.2494597E+04  0.7818608E-02  0.8404913E-01
          2   -1    0    0  501    0  0.00000000000E+00  0.00000000000E+00  0.90179809887E+03  0.90179809887E+03  0.00000000000E+00 0. -1.
         -1   -1    0    0    0  501 -0.00000000000E+00 -0.00000000000E+00 -0.17251683792E+04  0.17251683792E+04  0.00000000000E+00 0.  1.
         24    2    1    2    0    0  0.10499875398E+04  0.26135098163E+03 -0.35387682074E+03  0.11412080951E+04  0.79680253148E+02 0.  0.
        254    2    1    2    0    0 -0.10499875398E+04 -0.26135098163E+03 -0.46949345962E+03  0.14857583830E+04  0.90347977001E+03 0.  0.
         23    2    4    4    0    0  0.99717780864E+02 -0.18189687839E+03 -0.19094722893E+03  0.29656978735E+03  0.91992849440E+02 0.  0.
         23    2    4    4    0    0 -0.11497053206E+04 -0.79454103236E+02 -0.27854623069E+03  0.11891885957E+04  0.91903398277E+02 0.  0.
          4    1    3    3  502    0  0.93883264941E+03  0.22712229126E+03 -0.34032560832E+03  0.10241156177E+04  0.00000000000E+00 0. -1.
         -3    1    3    3    0  502  0.11115489036E+03  0.34228690367E+02 -0.13551212428E+02  0.11709247736E+03  0.00000000000E+00 0.  1.
         13    1    5    5    0    0  0.11433161219E+03 -0.17257987351E+03 -0.18659806153E+03  0.27870121430E+03  0.00000000000E+00 0.  1.
        -13    1    5    5    0    0 -0.14613831325E+02 -0.93170048801E+01 -0.43491673986E+01  0.17868573054E+02  0.00000000000E+00 0. -1.
          3    1    6    6  503    0 -0.57180771047E+02 -0.82949226945E+01 -0.35114511462E+02  0.67612685461E+02  0.00000000000E+00 0. -1.
         -3    1    6    6    0  503 -0.10925245496E+04 -0.71159180542E+02 -0.24343171923E+03  0.11215759102E+04  0.00000000000E+00 0.  1.
<mgrwt>
<rscale>  0 0.24945970E+04</rscale>
<asrwt>0</asrwt>
<pdfrwt beam="1">  1        2 0.13873817E+00 0.24945970E+04</pdfrwt>
<pdfrwt beam="2">  1       -1 0.26541052E+00 0.24945970E+04</pdfrwt>
<totfact> 0.16463056E+00</totfact>
</mgrwt>
</event>
<event>
12    7  0.1544987E-007  0.1061449E+04  0.7818608E-02  0.9243603E-01
         -1   -1    0    0    0  501 -0.00000000000E+00  0.00000000000E+00  0.12774732074E+04  0.12774732074E+04  0.00000000000E+00 0.  1.
          2   -1    0    0  501    0  0.00000000000E+00 -0.00000000000E+00 -0.22048882683E+03  0.22048882683E+03  0.00000000000E+00 0. -1.
         24    2    1    2    0    0 -0.60619836451E+02 -0.96597110981E+02  0.71544976801E+02  0.15701869007E+03  0.80811007314E+02 0.  0.
        254    2    1    2    0    0  0.60619836451E+02  0.96597110981E+02  0.98543940372E+03  0.13409433441E+04  0.90223747834E+03 0.  0.
         23    2    4    4    0    0  0.23426524236E+03 -0.30836434974E+03  0.70829904879E+03  0.81237121066E+03  0.91053091293E+02 0.  0.
         23    2    4    4    0    0 -0.17364540591E+03  0.40496146072E+03  0.27714035494E+03  0.52857213346E+03  0.91843411739E+02 0.  0.
          2    1    3    3  502    0 -0.75112225394E+02 -0.90676587112E+02  0.76714837853E+02  0.14053204688E+03  0.00000000000E+00 0. -1.
         -1    1    3    3    0  502  0.14492388943E+02 -0.59205238689E+01 -0.51698610524E+01  0.16486643183E+02  0.00000000000E+00 0.  1.
         13    1    5    5    0    0  0.94575907583E+02 -0.19914297130E+03  0.39816341467E+03  0.45512265390E+03  0.00000000000E+00 0. -1.
        -13    1    5    5    0    0  0.13968933478E+03 -0.10922137843E+03  0.31013563412E+03  0.35724855676E+03  0.00000000000E+00 0.  1.
          1    1    6    6  503    0 -0.34429261296E+02  0.18252049837E+03  0.90928515986E+02  0.20680208263E+03  0.00000000000E+00 0. -1.
         -1    1    6    6    0  503 -0.13921614461E+03  0.22244096234E+03  0.18621183895E+03  0.32177005084E+03  0.00000000000E+00 0.  1.
<mgrwt>
<rscale>  0 0.10614491E+04</rscale>
<asrwt>0</asrwt>
<pdfrwt beam="1">  1        2 0.33921359E-01 0.10614491E+04</pdfrwt>
<pdfrwt beam="2">  1       -1 0.19653433E+00 0.10614491E+04</pdfrwt>
<totfact> 0.28175954E+01</totfact>
</mgrwt>
</event>
<event>
12    7  0.1544987E-007  0.1889742E+04  0.7818608E-02  0.8659979E-01
         -1   -1    0    0    0  501 -0.00000000000E+00  0.00000000000E+00  0.40866602248E+03  0.40866602248E+03  0.00000000000E+00 0.  1.
          2   -1    0    0  501    0  0.00000000000E+00 -0.00000000000E+00 -0.21846234998E+04  0.21846234998E+04  0.00000000000E+00 0. -1.
         24    2    1    2    0    0 -0.18762511861E+03 -0.31353914916E+03  0.17582950759E+03  0.41346005949E+03  0.80766464984E+02 0.  0.
        254    2    1    2    0    0  0.18762511861E+03  0.31353914916E+03 -0.19517869849E+04  0.21798294628E+04  0.89926307009E+03 0.  0.
         23    2    4    4    0    0 -0.52852196626E+02 -0.31392205477E+02  0.58252015648E+02  0.12397220313E+03  0.90537199913E+02 0.  0.
         23    2    4    4    0    0  0.24047731524E+03  0.34493135464E+03 -0.20100390006E+04  0.20558572597E+04  0.97392555281E+02 0.  0.
          2    1    3    3  502    0 -0.54663584116E+02 -0.73124470466E+02  0.82930551995E+01  0.91673716920E+02  0.00000000000E+00 0. -1.
         -1    1    3    3    0  502 -0.13296153450E+03 -0.24041467870E+03  0.16753645239E+03  0.32178634257E+03  0.00000000000E+00 0.  1.
         13    1    5    5    0    0 -0.24768905871E+02 -0.24097755944E+02  0.80372400843E+02  0.87486703886E+02  0.00000000000E+00 0.  1.
        -13    1    5    5    0    0 -0.28083290755E+02 -0.72944495329E+01 -0.22120385195E+02  0.36485499240E+02  0.00000000000E+00 0. -1.
          1    1    6    6  503    0  0.78614946964E+02  0.81254681669E+02 -0.74516643579E+03  0.75369466644E+03  0.00000000000E+00 0. -1.
         -1    1    6    6    0  503  0.16186236828E+03  0.26367667297E+03 -0.12648725648E+04  0.13021625932E+04  0.00000000000E+00 0.  1.
<mgrwt>
<rscale>  0 0.18897422E+04</rscale>
<asrwt>0</asrwt>
<pdfrwt beam="1">  1        2 0.33609592E+00 0.18897422E+04</pdfrwt>
<pdfrwt beam="2">  1       -1 0.62871697E-01 0.18897422E+04</pdfrwt>
<totfact> 0.14427639E+01</totfact>
</mgrwt>
</event>
<event>
12    7  0.1544987E-007  0.2019968E+04  0.7818608E-02  0.8597342E-01
         -1   -1    0    0    0  501 -0.00000000000E+00  0.00000000000E+00  0.26683508062E+04  0.26683508062E+04  0.00000000000E+00 0.  1.
          2   -1    0    0  501    0  0.00000000000E+00 -0.00000000000E+00 -0.38228386743E+03  0.38228386743E+03  0.00000000000E+00 0. -1.
         24    2    1    2    0    0 -0.59851512721E+03  0.50342724974E+03  0.12111510203E+04  0.14439987012E+04  0.81154801951E+02 0.  0.
        254    2    1    2    0    0  0.59851512721E+03 -0.50342724974E+03  0.10749159185E+04  0.16066359724E+04  0.90231677520E+03 0.  0.
         23    2    4    4    0    0  0.73130787045E+03 -0.42132889251E+03  0.11328473236E+04  0.14157225738E+04  0.92725995236E+02 0.  0.
         23    2    4    4    0    0 -0.13279274324E+03 -0.82098357231E+02 -0.57931405105E+02  0.19091339868E+03  0.93369294643E+02 0.  0.
          4    1    3    3  502    0 -0.12790436620E+02  0.10096152266E+01  0.35125336466E+02  0.37395238383E+02  0.00000000000E+00 0. -1.
         -3    1    3    3    0  502 -0.58572469059E+03  0.50241763452E+03  0.11760256838E+04  0.14066034628E+04  0.00000000000E+00 0.  1.
         13    1    5    5    0    0  0.67554548873E+03 -0.40554531711E+03  0.10202303103E+04  0.12890688879E+04  0.00000000000E+00 0. -1.
        -13    1    5    5    0    0  0.55762381718E+02 -0.15783575399E+02  0.11261701328E+03  0.12665368588E+03  0.00000000000E+00 0.  1.
          1    1    6    6  503    0 -0.12791566136E+03 -0.45258590301E+02 -0.18857997485E+02  0.13699043940E+03  0.00000000000E+00 0. -1.
         -1    1    6    6    0  503 -0.48770818802E+01 -0.36839766929E+02 -0.39073407620E+02  0.53922959286E+02  0.00000000000E+00 0.  1.
<mgrwt>
<rscale>  0 0.20199678E+04</rscale>
<asrwt>0</asrwt>
<pdfrwt beam="1">  1        2 0.58812904E-01 0.20199678E+04</pdfrwt>
<pdfrwt beam="2">  1       -1 0.41051550E+00 0.20199678E+04</pdfrwt>
<totfact> 0.53853457E-01</totfact>
</mgrwt>
</event>
<event>
12    7  0.1544987E-007  0.2511257E+04  0.7818608E-02  0.8398986E-01
          2   -1    0    0  501    0  0.00000000000E+00  0.00000000000E+00  0.20818995529E+04  0.20818995529E+04  0.00000000000E+00 0. -1.
         -1   -1    0    0    0  501 -0.00000000000E+00 -0.00000000000E+00 -0.75729087558E+03  0.75729087558E+03  0.00000000000E+00 0.  1.
         24    2    1    2    0    0  0.22768438167E+03  0.10575209040E+04  0.41746281169E+03  0.11622355273E+04  0.79533526816E+02 0.  0.
        254    2    1    2    0    0 -0.22768438167E+03 -0.10575209040E+04  0.90714586564E+03  0.16769549012E+04  0.90502678359E+03 0.  0.
         23    2    4    4    0    0 -0.16835333183E+03  0.19699763557E+02 -0.83874319452E+02  0.20962560299E+03  0.90427136098E+02 0.  0.
         23    2    4    4    0    0 -0.59331049840E+02 -0.10772206675E+04  0.99102018509E+03  0.14673292982E+04  0.83724082574E+02 0.  0.
          2    1    3    3  502    0  0.18013816490E+03  0.76922754393E+03  0.26965948644E+03  0.83479159760E+03  0.00000000000E+00 0. -1.
         -1    1    3    3    0  502  0.47546216776E+02  0.28829336003E+03  0.14780332525E+03  0.32744392974E+03  0.00000000000E+00 0.  1.
         13    1    5    5    0    0 -0.44997737335E+01 -0.20774181150E+02 -0.19936655802E+02  0.29142491497E+02  0.00000000000E+00 0.  1.
        -13    1    5    5    0    0 -0.16385355810E+03  0.40473944707E+02 -0.63937663651E+02  0.18048311150E+03  0.00000000000E+00 0. -1.
          3    1    6    6  503    0 -0.44289449399E+02 -0.10434531720E+04  0.96640425173E+03  0.14229171639E+04  0.00000000000E+00 0. -1.
         -3    1    6    6    0  503 -0.15041600441E+02 -0.33767495521E+02  0.24615933363E+02  0.44412134298E+02  0.00000000000E+00 0.  1.
<mgrwt>
<rscale>  0 0.25112575E+04</rscale>
<asrwt>0</asrwt>
<pdfrwt beam="1">  1        2 0.32029224E+00 0.25112575E+04</pdfrwt>
<pdfrwt beam="2">  1       -1 0.11650629E+00 0.25112575E+04</pdfrwt>
<totfact> 0.40557318E+00</totfact>
</mgrwt>
</event>
<event>
12    7  0.1544987E-007  0.1106772E+04  0.7818608E-02  0.9198616E-01
         -1   -1    0    0    0  501 -0.00000000000E+00  0.00000000000E+00  0.72757321213E+03  0.72757321213E+03  0.00000000000E+00 0.  1.
          2   -1    0    0  501    0  0.00000000000E+00 -0.00000000000E+00 -0.42090081626E+03  0.42090081626E+03  0.00000000000E+00 0. -1.
         24    2    1    2    0    0  0.56049217316E+02 -0.88742310018E+02  0.18246609119E+03  0.22565525289E+03  0.81300100702E+02 0.  0.
        254    2    1    2    0    0 -0.56049217316E+02  0.88742310018E+02  0.12420630468E+03  0.92281877549E+03  0.90837799067E+03 0.  0.
         23    2    4    4    0    0 -0.24949603750E+03  0.35043691197E+02 -0.32570906961E+03  0.42155681683E+03  0.90263053155E+02 0.  0.
         23    2    4    4    0    0  0.19344682019E+03  0.53698618821E+02  0.44991537429E+03  0.50126195866E+03  0.92382321229E+02 0.  0.
          2    1    3    3  502    0  0.52727675243E+01  0.30476784681E+01  0.75825226804E+02  0.76069411995E+02  0.00000000000E+00 0. -1.
         -1    1    3    3    0  502  0.50776449791E+02 -0.91789988486E+02  0.10664086439E+03  0.14958584090E+03  0.00000000000E+00 0.  1.
         13    1    5    5    0    0 -0.15862676679E+03  0.61420395087E+02 -0.23799500569E+03  0.29253467967E+03  0.00000000000E+00 0. -1.
        -13    1    5    5    0    0 -0.90869270711E+02 -0.26376703891E+02 -0.87714063924E+02  0.12902213716E+03  0.00000000000E+00 0.  1.
          2    1    6    6  503    0  0.16915556127E+03  0.23665527538E+02  0.28832844635E+03  0.33512229719E+03  0.00000000000E+00 0. -1.
         -2    1    6    6    0  503  0.24291258920E+02  0.30033091284E+02  0.16158692794E+03  0.16613966147E+03  0.00000000000E+00 0.  1.
<mgrwt>
<rscale>  0 0.11067722E+04</rscale>
<asrwt>0</asrwt>
<pdfrwt beam="1">  1        2 0.64753972E-01 0.11067722E+04</pdfrwt>
<pdfrwt beam="2">  1       -1 0.11193434E+00 0.11067722E+04</pdfrwt>
<totfact> 0.62454173E+01</totfact>
</mgrwt>
</event>
<event>
12    7  0.1544987E-007  0.1679859E+04  0.7818608E-02  0.8772936E-01
         -1   -1    0    0    0  501 -0.00000000000E+00  0.00000000000E+00  0.63987954149E+03  0.63987954149E+03  0.00000000000E+00 0.  1.
          2   -1    0    0  501    0  0.00000000000E+00 -0.00000000000E+00 -0.11025219565E+04  0.11025219565E+04  0.00000000000E+00 0. -1.
         24    2    1    2    0    0 -0.19329522194E+03 -0.42219581731E+03  0.22940826463E+03  0.52409317204E+03  0.80206920669E+02 0.  0.
        254    2    1    2    0    0  0.19329522194E+03  0.42219581731E+03 -0.69205067962E+03  0.12183083259E+04  0.88866680082E+03 0.  0.
         23    2    4    4    0    0  0.40007035373E+03  0.59120115758E+03 -0.47980477974E+03  0.86510634093E+03  0.92850728553E+02 0.  0.
         23    2    4    4    0    0 -0.20677513179E+03 -0.16900534027E+03 -0.21224589988E+03  0.35320198500E+03  0.91567243179E+02 0.  0.
          2    1    3    3  502    0 -0.51707506196E+02 -0.17437042744E+03  0.56796277820E+02  0.19053747489E+03  0.00000000000E+00 0. -1.
         -1    1    3    3    0  502 -0.14158771575E+03 -0.24782538986E+03  0.17261198681E+03  0.33355569715E+03  0.00000000000E+00 0.  1.
         13    1    5    5    0    0  0.18693948271E+03  0.27478709836E+03 -0.27931183955E+03  0.43413065238E+03  0.00000000000E+00 0. -1.
        -13    1    5    5    0    0  0.21313087103E+03  0.31641405921E+03 -0.20049294018E+03  0.43097568855E+03  0.00000000000E+00 0.  1.
          1    1    6    6  503    0 -0.77864620045E+02 -0.33144129653E+02 -0.24701789403E+02  0.88156739873E+02  0.00000000000E+00 0. -1.
         -1    1    6    6    0  503 -0.12891051174E+03 -0.13586121062E+03 -0.18754411047E+03  0.26504524512E+03  0.00000000000E+00 0.  1.
<mgrwt>
<rscale>  0 0.16798586E+04</rscale>
<asrwt>0</asrwt>
<pdfrwt beam="1">  1        2 0.16961876E+00 0.16798586E+04</pdfrwt>
<pdfrwt beam="2">  1       -1 0.98443007E-01 0.16798586E+04</pdfrwt>
<totfact> 0.23315232E+01</totfact>
</mgrwt>
</event>
<event>
12    7  0.1544987E-007  0.1902667E+04  0.7818608E-02  0.8653530E-01
         -1   -1    0    0    0  501 -0.00000000000E+00  0.00000000000E+00  0.11572904970E+04  0.11572904970E+04  0.00000000000E+00 0.  1.
          2   -1    0    0  501    0  0.00000000000E+00 -0.00000000000E+00 -0.78202960235E+03  0.78202960235E+03  0.00000000000E+00 0. -1.
         24    2    1    2    0    0 -0.57903000471E+03  0.29616171649E+03  0.49985363149E+03  0.82441048872E+03  0.82531765649E+02 0.  0.
        254    2    1    2    0    0  0.57903000471E+03 -0.29616171649E+03 -0.12459273683E+03  0.11149096106E+04  0.89694625321E+03 0.  0.
         23    2    4    4    0    0  0.52744012972E+03  0.21670990572E+03 -0.41820376751E+01  0.57775428248E+03  0.92877595836E+02 0.  0.
         23    2    4    4    0    0  0.51589874991E+02 -0.51287162221E+03 -0.12041069916E+03  0.53715532816E+03  0.91314259738E+02 0.  0.
          4    1    3    3  502    0 -0.90139992750E+02  0.61068994773E+02  0.50615578806E+02  0.12006905194E+03  0.00000000000E+00 0. -1.
         -3    1    3    3    0  502 -0.48889001196E+03  0.23509272172E+03  0.44923805268E+03  0.70434143679E+03  0.00000000000E+00 0.  1.
         13    1    5    5    0    0  0.13239781949E+03  0.82802614674E+02  0.30808971376E+02  0.15916861600E+03  0.00000000000E+00 0. -1.
        -13    1    5    5    0    0  0.39504231022E+03  0.13390729105E+03 -0.34991009051E+02  0.41858566647E+03  0.00000000000E+00 0.  1.
          1    1    6    6  503    0  0.47817384790E+02 -0.22509193686E+03 -0.92465167755E+02  0.24799735801E+03  0.00000000000E+00 0. -1.
         -1    1    6    6    0  503  0.37724902012E+01 -0.28777968534E+03 -0.27945531400E+02  0.28915797016E+03  0.00000000000E+00 0.  1.
<mgrwt>
<rscale>  0 0.19026670E+04</rscale>
<asrwt>0</asrwt>
<pdfrwt beam="1">  1        2 0.12031225E+00 0.19026670E+04</pdfrwt>
<pdfrwt beam="2">  1       -1 0.17804469E+00 0.19026670E+04</pdfrwt>
<totfact> 0.81562850E+00</totfact>
</mgrwt>
</event>
<event>
12    7  0.1544987E-007  0.1125661E+04  0.7818608E-02  0.9180536E-01
          2   -1    0    0  501    0  0.00000000000E+00  0.00000000000E+00  0.22005499311E+04  0.22005499311E+04  0.00000000000E+00 0. -1.
         -1   -1    0    0    0  501 -0.00000000000E+00 -0.00000000000E+00 -0.14395406354E+03  0.14395406354E+03  0.00000000000E+00 0.  1.
         24    2    1    2    0    0  0.64590239039E+02 -0.17909455896E+03  0.46315818120E+03  0.50732554858E+03  0.81344645805E+02 0.  0.
        254    2    1    2    0    0 -0.64590239039E+02  0.17909455896E+03  0.15934376864E+04  0.18371784461E+04  0.89439041942E+03 0.  0.
         23    2    4    4    0    0  0.71763516389E+02 -0.16574428925E+03  0.13914284948E+04  0.14059421922E+04  0.89325360767E+02 0.  0.
         23    2    4    4    0    0 -0.13635375543E+03  0.34483884821E+03  0.20200919161E+03  0.43123625388E+03  0.87468939086E+02 0.  0.
          4    1    3    3  502    0  0.61013986434E+02 -0.17586269121E+03  0.37136842896E+03  0.41540931950E+03  0.00000000000E+00 0. -1.
         -3    1    3    3    0  502  0.35762526051E+01 -0.32318677513E+01  0.91789752238E+02  0.91916229078E+02  0.00000000000E+00 0.  1.
         13    1    5    5    0    0 -0.63167135161E+01 -0.57325796392E+02  0.65150296743E+03  0.65405065887E+03  0.00000000000E+00 0.  1.
        -13    1    5    5    0    0  0.78080229905E+02 -0.10841849286E+03  0.73992552733E+03  0.75189153333E+03  0.00000000000E+00 0. -1.
          2    1    6    6  503    0 -0.12118649736E+03  0.23108550551E+03  0.17231564345E+03  0.31269691233E+03  0.00000000000E+00 0. -1.
         -2    1    6    6    0  503 -0.15167258072E+02  0.11375334270E+03  0.29693548160E+02  0.11853934155E+03  0.00000000000E+00 0.  1.
<mgrwt>
<rscale>  0 0.11256609E+04</rscale>
<asrwt>0</asrwt>
<pdfrwt beam="1">  1        2 0.33854612E+00 0.11256609E+04</pdfrwt>
<pdfrwt beam="2">  1       -1 0.22146781E-01 0.11256609E+04</pdfrwt>
<totfact> 0.10077003E+02</totfact>
</mgrwt>
</event>
<event>
12    7  0.1544987E-007  0.1427011E+04  0.7818608E-02  0.8934496E-01
         -1   -1    0    0    0  501 -0.00000000000E+00  0.00000000000E+00  0.14788607203E+04  0.14788607203E+04  0.00000000000E+00 0.  1.
          2   -1    0    0  501    0  0.00000000000E+00 -0.00000000000E+00 -0.34424457727E+03  0.34424457727E+03  0.00000000000E+00 0. -1.
         24    2    1    2    0    0  0.24803072773E+03 -0.29807617820E+03  0.14901918822E+03  0.42297672638E+03  0.79586070966E+02 0.  0.
        254    2    1    2    0    0 -0.24803072773E+03  0.29807617820E+03  0.98559695483E+03  0.14001285712E+04  0.91574560257E+03 0.  0.
         23    2    4    4    0    0  0.19612098495E+03 -0.18920544704E+03  0.49663648919E+03  0.57351748528E+03  0.89511795835E+02 0.  0.
         23    2    4    4    0    0 -0.44415171269E+03  0.48728162524E+03  0.48896046563E+03  0.82661108592E+03  0.97413675831E+02 0.  0.
          2    1    3    3  502    0  0.18565299816E+03 -0.26622819108E+03  0.10940005841E+03  0.34250964691E+03  0.00000000000E+00 0. -1.
         -1    1    3    3    0  502  0.62377729577E+02 -0.31847987121E+02  0.39619129812E+02  0.80467079467E+02  0.00000000000E+00 0.  1.
         13    1    5    5    0    0  0.20151264146E+02 -0.47562463902E+02  0.44868546565E+02  0.68421107050E+02  0.00000000000E+00 0. -1.
        -13    1    5    5    0    0  0.17596972081E+03 -0.14164298314E+03  0.45176794263E+03  0.50509637823E+03  0.00000000000E+00 0.  1.
          4    1    6    6  503    0 -0.19171851204E+03  0.18198064086E+03  0.14229949427E+03  0.30020341034E+03  0.00000000000E+00 0. -1.
         -4    1    6    6    0  503 -0.25243320064E+03  0.30530098438E+03  0.34666097136E+03  0.52640767559E+03  0.00000000000E+00 0.  1.
<mgrwt>
<rscale>  0 0.14270106E+04</rscale>
<asrwt>0</asrwt>
<pdfrwt beam="1">  1        2 0.52960705E-01 0.14270106E+04</pdfrwt>
<pdfrwt beam="2">  1       -1 0.22751703E+00 0.14270106E+04</pdfrwt>
<totfact> 0.10267103E+01</totfact>
</mgrwt>
</event>
<event>
12    7  0.1544987E-007  0.2015349E+04  0.7818608E-02  0.8599478E-01
          2   -1    0    0  501    0  0.00000000000E+00  0.00000000000E+00  0.12276378678E+04  0.12276378678E+04  0.00000000000E+00 0. -1.
         -1   -1    0    0    0  501 -0.00000000000E+00 -0.00000000000E+00 -0.82712353871E+03  0.82712353871E+03  0.00000000000E+00 0.  1.
         24    2    1    2    0    0 -0.48071411918E+03  0.47639359475E+03  0.60199796580E+03  0.90943288836E+03  0.81423007250E+02 0.  0.
        254    2    1    2    0    0  0.48071411918E+03 -0.47639359475E+03 -0.20148363670E+03  0.11453285181E+04  0.90174543920E+03 0.  0.
         23    2    4    4    0    0 -0.21550936150E+03 -0.11384520053E+03  0.12727008118E+03  0.28960424274E+03  0.90928154442E+02 0.  0.
         23    2    4    4    0    0  0.69622348068E+03 -0.36254839422E+03 -0.32875371788E+03  0.85572427541E+03  0.89535218161E+02 0.  0.
          2    1    3    3  502    0 -0.48085902603E+03  0.46456993453E+03  0.59777931689E+03  0.89687832992E+03  0.00000000000E+00 0. -1.
         -1    1    3    3    0  502  0.14490685051E+00  0.11823660222E+02  0.42186489145E+01  0.12554558443E+02  0.00000000000E+00 0.  1.
         13    1    5    5    0    0 -0.64628677665E+01  0.10328380214E+02  0.20938770090E+02  0.24225527662E+02  0.00000000000E+00 0.  1.
        -13    1    5    5    0    0 -0.20904649374E+03 -0.12417358075E+03  0.10633131109E+03  0.26537871508E+03  0.00000000000E+00 0. -1.
          1    1    6    6  503    0  0.50912925014E+03 -0.30810685165E+03 -0.24174141547E+03  0.64232494684E+03  0.00000000000E+00 0. -1.
         -1    1    6    6    0  503  0.18709423055E+03 -0.54441542565E+02 -0.87012302415E+02  0.21339932857E+03  0.00000000000E+00 0.  1.
<mgrwt>
<rscale>  0 0.20153493E+04</rscale>
<asrwt>0</asrwt>
<pdfrwt beam="1">  1        2 0.18886737E+00 0.20153493E+04</pdfrwt>
<pdfrwt beam="2">  1       -1 0.12724977E+00 0.20153493E+04</pdfrwt>
<totfact> 0.10325676E+01</totfact>
</mgrwt>
</event>
<event>
12    7  0.1544987E-007  0.1406915E+04  0.7818608E-02  0.8948828E-01
         -1   -1    0    0    0  501 -0.00000000000E+00  0.00000000000E+00  0.13998864660E+03  0.13998864660E+03  0.00000000000E+00 0.  1.
          2   -1    0    0  501    0  0.00000000000E+00 -0.00000000000E+00 -0.35349494951E+04  0.35349494951E+04  0.00000000000E+00 0. -1.
         24    2    1    2    0    0 -0.19714428315E+03 -0.36647352362E+03 -0.10112394726E+04  0.10963847970E+04  0.79282029659E+02 0.  0.
        254    2    1    2    0    0  0.19714428315E+03  0.36647352362E+03 -0.23837213759E+04  0.25785533447E+04  0.89086533309E+03 0.  0.
         23    2    4    4    0    0 -0.83537408356E+02  0.33077937177E+03 -0.22024471477E+04  0.22304240307E+04  0.87317964853E+02 0.  0.
         23    2    4    4    0    0  0.28068169151E+03  0.35694151847E+02 -0.18127422825E+03  0.34812931404E+03  0.90980157437E+02 0.  0.
          2    1    3    3  502    0 -0.59299117954E+02 -0.90442582412E+02 -0.35739892953E+03  0.37340358987E+03  0.00000000000E+00 0. -1.
         -1    1    3    3    0  502 -0.13784516520E+03 -0.27603094121E+03 -0.65384054304E+03  0.72298120708E+03  0.00000000000E+00 0.  1.
         13    1    5    5    0    0 -0.97767650909E+02  0.22378096155E+03 -0.15176556580E+04  0.15371776503E+04  0.00000000000E+00 0.  1.
        -13    1    5    5    0    0  0.14230242553E+02  0.10699841022E+03 -0.68479148962E+03  0.69324638033E+03  0.00000000000E+00 0. -1.
          2    1    6    6  503    0  0.18634585992E+03  0.66677199609E+02 -0.12038094547E+03  0.23165103170E+03  0.00000000000E+00 0.  1.
         -2    1    6    6    0  503  0.94335831587E+02 -0.30983047761E+02 -0.60893282779E+02  0.11647828234E+03  0.00000000000E+00 0. -1.
<mgrwt>
<rscale>  0 0.14069155E+04</rscale>
<asrwt>0</asrwt>
<pdfrwt beam="1">  1        2 0.54383840E+00 0.14069155E+04</pdfrwt>
<pdfrwt beam="2">  1       -1 0.21536714E-01 0.14069155E+04</pdfrwt>
<totfact> 0.15642889E+01</totfact>
</mgrwt>
</event>
<event>
12    7  0.1544987E-007  0.1525519E+04  0.7818608E-02  0.8867658E-01
         -1   -1    0    0    0  501 -0.00000000000E+00  0.00000000000E+00  0.84940184439E+03  0.84940184439E+03  0.00000000000E+00 0.  1.
          2   -1    0    0  501    0  0.00000000000E+00 -0.00000000000E+00 -0.68495521816E+03  0.68495521816E+03  0.00000000000E+00 0. -1.
         24    2    1    2    0    0  0.15142790534E+03 -0.29613404838E+02  0.52429842020E+03  0.55145491591E+03  0.73527726708E+02 0.  0.
        254    2    1    2    0    0 -0.15142790534E+03  0.29613404838E+02 -0.35985179396E+03  0.98290214665E+03  0.90155196855E+03 0.  0.
         23    2    4    4    0    0 -0.41189071259E+03  0.17631275694E+03 -0.46626833068E+03  0.65280101287E+03  0.89458699063E+02 0.  0.
         23    2    4    4    0    0  0.26046280724E+03 -0.14669935210E+03  0.10641653671E+03  0.33010113378E+03  0.90998381145E+02 0.  0.
          4    1    3    3  502    0  0.78206599514E+01 -0.71967373833E+01  0.41979520401E+01  0.11427097285E+02  0.00000000000E+00 0. -1.
         -3    1    3    3    0  502  0.14360724539E+03 -0.22416667454E+02  0.52010046816E+03  0.54002781862E+03  0.00000000000E+00 0.  1.
         13    1    5    5    0    0 -0.32915436319E+03  0.10321100752E+03 -0.37527030319E+03  0.50972826814E+03  0.00000000000E+00 0. -1.
        -13    1    5    5    0    0 -0.82736349398E+02  0.73101749417E+02 -0.90998027486E+02  0.14307274473E+03  0.00000000000E+00 0.  1.
          1    1    6    6  503    0  0.21632841249E+03 -0.13698211861E+03  0.55452973434E+02  0.26198686061E+03  0.00000000000E+00 0. -1.
         -1    1    6    6    0  503  0.44134394756E+02 -0.97172334887E+01  0.50963563281E+02  0.68114273169E+02  0.00000000000E+00 0.  1.
<mgrwt>
<rscale>  0 0.15255192E+04</rscale>
<asrwt>0</asrwt>
<pdfrwt beam="1">  1        2 0.10537773E+00 0.15255192E+04</pdfrwt>
<pdfrwt beam="2">  1       -1 0.13067721E+00 0.15255192E+04</pdfrwt>
<totfact> 0.23223215E+01</totfact>
</mgrwt>
</event>
<event>
12    7  0.1544987E-007  0.1256365E+04  0.7818608E-02  0.9064902E-01
          2   -1    0    0  501    0  0.00000000000E+00  0.00000000000E+00  0.16845792055E+04  0.16845792055E+04  0.00000000000E+00 0. -1.
         -1   -1    0    0    0  501 -0.00000000000E+00 -0.00000000000E+00 -0.23425030325E+03  0.23425030325E+03  0.00000000000E+00 0.  1.
         24    2    1    2    0    0 -0.13706085109E+02 -0.10943555832E+03 -0.66991313957E+02  0.15184676976E+03  0.80035036988E+02 0.  0.
        254    2    1    2    0    0  0.13706085109E+02  0.10943555832E+03  0.15173202162E+04  0.17669827390E+04  0.89877881772E+03 0.  0.
         23    2    4    4    0    0  0.42318294025E+03  0.17139594361E+03  0.95742373366E+03  0.10647506797E+04  0.92592838040E+02 0.  0.
         23    2    4    4    0    0 -0.40947685515E+03 -0.61960385292E+02  0.55989648252E+03  0.70223205930E+03  0.90196506192E+02 0.  0.
          4    1    3    3  502    0  0.27639937318E+02 -0.58608115239E+02 -0.11134256956E+02  0.65748376290E+02  0.00000000000E+00 0. -1.
         -3    1    3    3    0  502 -0.41346022426E+02 -0.50827443081E+02 -0.55857057001E+02  0.86098393466E+02  0.00000000000E+00 0.  1.
         13    1    5    5    0    0  0.28200902363E+03  0.14150715024E+03  0.73186744221E+03  0.79698388688E+03  0.00000000000E+00 0. -1.
        -13    1    5    5    0    0  0.14117391663E+03  0.29888793372E+02  0.22555629145E+03  0.26776679278E+03  0.00000000000E+00 0.  1.
          2    1    6    6  503    0 -0.48640822059E+01 -0.12991352671E+02  0.35241794420E+02  0.37873719304E+02  0.00000000000E+00 0.  1.
         -2    1    6    6    0  503 -0.40461277294E+03 -0.48969032621E+02  0.52465468810E+03  0.66435834000E+03  0.00000000000E+00 0. -1.
<mgrwt>
<rscale>  0 0.12563649E+04</rscale>
<asrwt>0</asrwt>
<pdfrwt beam="1">  1        2 0.25916602E+00 0.12563649E+04</pdfrwt>
<pdfrwt beam="2">  1       -1 0.36038509E-01 0.12563649E+04</pdfrwt>
<totfact> 0.82466670E+01</totfact>
</mgrwt>
</event>
<event>
12    7  0.1544987E-007  0.1875457E+04  0.7818608E-02  0.8667170E-01
          2   -1    0    0  501    0  0.00000000000E+00  0.00000000000E+00  0.19316031555E+04  0.19316031555E+04  0.00000000000E+00 0. -1.
         -1   -1    0    0    0  501 -0.00000000000E+00 -0.00000000000E+00 -0.45523558982E+03  0.45523558982E+03  0.00000000000E+00 0.  1.
         24    2    1    2    0    0  0.75303024852E+02  0.67989943612E+03  0.78136819187E+03  0.10416007463E+04  0.80387030637E+02 0.  0.
        254    2    1    2    0    0 -0.75303024852E+02 -0.67989943612E+03  0.69499937383E+03  0.13452379990E+04  0.92666464029E+03 0.  0.
         23    2    4    4    0    0  0.20205985664E+03  0.47971188106E+01 -0.11148906643E+03  0.24770526249E+03  0.89871503379E+02 0.  0.
         23    2    4    4    0    0 -0.27736288149E+03 -0.68469655493E+03  0.80648844026E+03  0.10975327365E+04  0.91733107906E+02 0.  0.
          4    1    3    3  502    0  0.81165364611E+02  0.67425082795E+03  0.77821620977E+03  0.10328709816E+04  0.00000000000E+00 0. -1.
         -3    1    3    3    0  502 -0.58623397588E+01  0.56486081663E+01  0.31519821014E+01  0.87297647638E+01  0.00000000000E+00 0.  1.
         13    1    5    5    0    0  0.51867613026E+02 -0.29775091747E+02 -0.61244645295E+02  0.85602055740E+02  0.00000000000E+00 0. -1.
        -13    1    5    5    0    0  0.15019224361E+03  0.34572210558E+02 -0.50244421134E+02  0.16210320675E+03  0.00000000000E+00 0.  1.
          2    1    6    6  503    0 -0.49758181119E+01 -0.18562527081E+02  0.49221756108E+02  0.52840396023E+02  0.00000000000E+00 0. -1.
         -2    1    6    6    0  503 -0.27238706338E+03 -0.66613402785E+03  0.75726668415E+03  0.10446923405E+04  0.00000000000E+00 0.  1.
<mgrwt>
<rscale>  0 0.18754567E+04</rscale>
<asrwt>0</asrwt>
<pdfrwt beam="1">  1        2 0.29716971E+00 0.18754567E+04</pdfrwt>
<pdfrwt beam="2">  1       -1 0.70036246E-01 0.18754567E+04</pdfrwt>
<totfact> 0.16061326E+01</totfact>
</mgrwt>
</event>
<event>
12    7  0.1544987E-007  0.2009190E+04  0.7818608E-02  0.8602336E-01
          2   -1    0    0  501    0  0.00000000000E+00  0.00000000000E+00  0.14180667602E+04  0.14180667602E+04  0.00000000000E+00 0. -1.
         -1   -1    0    0    0  501 -0.00000000000E+00 -0.00000000000E+00 -0.71168060723E+03  0.71168060723E+03  0.00000000000E+00 0.  1.
         24    2    1    2    0    0 -0.31261319107E+03 -0.33706526678E+01  0.10696827957E+04  0.11172505924E+04  0.79304691828E+02 0.  0.
        254    2    1    2    0    0  0.31261319107E+03  0.33706526678E+01 -0.36329664278E+03  0.10124967750E+04  0.89186708665E+03 0.  0.
         23    2    4    4    0    0  0.67921163711E+02  0.26408359122E+03  0.19212887175E+03  0.34516836911E+03  0.88737095069E+02 0.  0.
         23    2    4    4    0    0  0.24469202736E+03 -0.26071293855E+03 -0.55542551454E+03  0.66732840592E+03  0.94785413240E+02 0.  0.
          2    1    3    3  502    0 -0.31423438886E+03 -0.54201637179E+00  0.10163678668E+04  0.10638360708E+04  0.00000000000E+00 0. -1.
         -1    1    3    3    0  502  0.16211977853E+01 -0.28286362960E+01  0.53314928926E+02  0.53414521546E+02  0.00000000000E+00 0.  1.
         13    1    5    5    0    0  0.61629593451E+02  0.25857557436E+03  0.20078889379E+03  0.33313017623E+03  0.00000000000E+00 0.  1.
        -13    1    5    5    0    0  0.62915702599E+01  0.55080168546E+01 -0.86600220388E+01  0.12038192876E+02  0.00000000000E+00 0. -1.
          4    1    6    6  503    0  0.12710273026E+02 -0.64786358120E+02 -0.10852695110E+03  0.12703118654E+03  0.00000000000E+00 0. -1.
         -4    1    6    6    0  503  0.23198175434E+03 -0.19592658043E+03 -0.44689856344E+03  0.54029721938E+03  0.00000000000E+00 0.  1.
<mgrwt>
<rscale>  0 0.20091895E+04</rscale>
<asrwt>0</asrwt>
<pdfrwt beam="1">  1        2 0.21816412E+00 0.20091895E+04</pdfrwt>
<pdfrwt beam="2">  1       -1 0.10948932E+00 0.20091895E+04</pdfrwt>
<totfact> 0.11535544E+01</totfact>
</mgrwt>
</event>
<event>
12    7  0.1544987E-007  0.2015659E+04  0.7818608E-02  0.8599334E-01
          2   -1    0    0  501    0  0.00000000000E+00  0.00000000000E+00  0.31023870808E+04  0.31023870808E+04  0.00000000000E+00 0. -1.
         -1   -1    0    0    0  501 -0.00000000000E+00 -0.00000000000E+00 -0.32739964037E+03  0.32739964037E+03  0.00000000000E+00 0.  1.
         24    2    1    2    0    0 -0.24322118886E+03 -0.55820865945E+03  0.19002120152E+04  0.19969915982E+04  0.80101724964E+02 0.  0.
        254    2    1    2    0    0  0.24322118886E+03  0.55820865945E+03  0.87477542530E+03  0.14327951231E+04  0.95755749997E+03 0.  0.
         23    2    4    4    0    0  0.52944702393E+03  0.95189626432E+02  0.61628564682E+03  0.82327953195E+03  0.92768384282E+02 0.  0.
         23    2    4    4    0    0 -0.28622583507E+03  0.46301903301E+03  0.25848977847E+03  0.60951559110E+03  0.91544724727E+02 0.  0.
          4    1    3    3  502    0 -0.18489965945E+03 -0.34164366712E+03  0.11388011991E+04  0.12032358249E+04  0.00000000000E+00 0. -1.
         -3    1    3    3    0  502 -0.58321529410E+02 -0.21656499233E+03  0.76141081609E+03  0.79375577324E+03  0.00000000000E+00 0.  1.
         13    1    5    5    0    0  0.42614281427E+03  0.10502907274E+03  0.46101908755E+03  0.63652761398E+03  0.00000000000E+00 0.  1.
        -13    1    5    5    0    0  0.10330420966E+03 -0.98394463080E+01  0.15526655928E+03  0.18675191797E+03  0.00000000000E+00 0. -1.
          3    1    6    6  503    0 -0.27323691875E+03  0.45285208717E+03  0.26525525800E+03  0.59168723032E+03  0.00000000000E+00 0. -1.
         -3    1    6    6    0  503 -0.12988916319E+02  0.10166945844E+02 -0.67654795303E+01  0.17828360783E+02  0.00000000000E+00 0.  1.
<mgrwt>
<rscale>  0 0.20156591E+04</rscale>
<asrwt>0</asrwt>
<pdfrwt beam="1">  1        2 0.47729030E+00 0.20156591E+04</pdfrwt>
<pdfrwt beam="2">  1       -1 0.50369178E-01 0.20156591E+04</pdfrwt>
<totfact> 0.62859019E+00</totfact>
</mgrwt>
</event>
<event>
12    7  0.1544987E-007  0.1645904E+04  0.7818608E-02  0.8792833E-01
         -1   -1    0    0    0  501 -0.00000000000E+00  0.00000000000E+00  0.30349930556E+03  0.30349930556E+03  0.00000000000E+00 0.  1.
          2   -1    0    0  501    0  0.00000000000E+00 -0.00000000000E+00 -0.22314709034E+04  0.22314709034E+04  0.00000000000E+00 0. -1.
         24    2    1    2    0    0 -0.89739940040E+01  0.47020061884E+02 -0.15490316201E+04  0.15518694356E+04  0.80674446342E+02 0.  0.
        254    2    1    2    0    0  0.89739940040E+01 -0.47020061884E+02 -0.37893997773E+03  0.98310077334E+03  0.90586986099E+03 0.  0.
         23    2    4    4    0    0 -0.39725300443E+03 -0.21115622988E+03 -0.22912937007E+03  0.51255009980E+03  0.88376657714E+02 0.  0.
         23    2    4    4    0    0  0.40622699843E+03  0.16413616800E+03 -0.14981060765E+03  0.47055067354E+03  0.83747610738E+02 0.  0.
          4    1    3    3  502    0  0.17863610453E+01  0.63807699553E+02 -0.14067330913E+04  0.14081806006E+04  0.00000000000E+00 0. -1.
         -3    1    3    3    0  502 -0.10760355049E+02 -0.16787637669E+02 -0.14229852879E+03  0.14368883504E+03  0.00000000000E+00 0.  1.
         13    1    5    5    0    0 -0.15563358863E+03 -0.13242770209E+03 -0.10393291507E+03  0.22926177402E+03  0.00000000000E+00 0.  1.
        -13    1    5    5    0    0 -0.24161941580E+03 -0.78728527794E+02 -0.12519645500E+03  0.28328832578E+03  0.00000000000E+00 0. -1.
          2    1    6    6  503    0  0.15018601491E+03  0.23218185846E+02 -0.71695184557E+02  0.16803310007E+03  0.00000000000E+00 0. -1.
         -2    1    6    6    0  503  0.25604098352E+03  0.14091798215E+03 -0.78115423098E+02  0.30251757348E+03  0.00000000000E+00 0.  1.
<mgrwt>
<rscale>  0 0.16459038E+04</rscale>
<asrwt>0</asrwt>
<pdfrwt beam="1">  1        2 0.34330321E+00 0.16459038E+04</pdfrwt>
<pdfrwt beam="2">  1       -1 0.46692202E-01 0.16459038E+04</pdfrwt>
<totfact> 0.24670194E+01</totfact>
</mgrwt>
</event>
<event>
12    7  0.1544987E-007  0.1419996E+04  0.7818608E-02  0.8939470E-01
          2   -1    0    0  501    0  0.00000000000E+00  0.00000000000E+00  0.67492175552E+03  0.67492175552E+03  0.00000000000E+00 0. -1.
         -1   -1    0    0    0  501 -0.00000000000E+00 -0.00000000000E+00 -0.74689696873E+03  0.74689696873E+03  0.00000000000E+00 0.  1.
         24    2    1    2    0    0  0.25340207052E+03 -0.10120609713E+03 -0.34621102773E+03  0.44878638346E+03  0.84213174822E+02 0.  0.
        254    2    1    2    0    0 -0.25340207052E+03  0.10120609713E+03  0.27423581451E+03  0.97303234080E+03  0.89282213841E+03 0.  0.
         23    2    4    4    0    0 -0.24699411389E+03  0.42502790212E+03  0.37169453986E+03  0.62288388907E+03  0.90402977989E+02 0.  0.
         23    2    4    4    0    0 -0.64079566342E+01 -0.32382180499E+03 -0.97458725348E+02  0.35014845173E+03  0.90576552179E+02 0.  0.
          4    1    3    3  502    0  0.22316045122E+01  0.84900293178E+01 -0.25209496800E+02  0.26694182614E+02  0.00000000000E+00 0. -1.
         -3    1    3    3    0  502  0.25117046601E+03 -0.10969612645E+03 -0.32100153093E+03  0.42209220084E+03  0.00000000000E+00 0.  1.
         13    1    5    5    0    0  0.46509082192E+01 -0.10911609166E+01  0.52932470984E+01  0.71302204913E+01  0.00000000000E+00 0.  1.
        -13    1    5    5    0    0 -0.25164502211E+03  0.42611906304E+03  0.36640129276E+03  0.61575366858E+03  0.00000000000E+00 0. -1.
          3    1    6    6  503    0 -0.18318719233E+02 -0.31154964741E+03 -0.73352764421E+02  0.32059224308E+03  0.00000000000E+00 0. -1.
         -3    1    6    6    0  503  0.11910762599E+02 -0.12272157583E+02 -0.24105960927E+02  0.29556208648E+02  0.00000000000E+00 0.  1.
<mgrwt>
<rscale>  0 0.14199958E+04</rscale>
<asrwt>0</asrwt>
<pdfrwt beam="1">  1        2 0.10383412E+00 0.14199958E+04</pdfrwt>
<pdfrwt beam="2">  1       -1 0.11490723E+00 0.14199958E+04</pdfrwt>
<totfact> 0.32770576E+01</totfact>
</mgrwt>
</event>
<event>
12    7  0.1544987E-007  0.2681801E+04  0.7818608E-02  0.8340934E-01
         -1   -1    0    0    0  501 -0.00000000000E+00  0.00000000000E+00  0.59977823949E+03  0.59977823949E+03  0.00000000000E+00 0.  1.
          2   -1    0    0  501    0  0.00000000000E+00 -0.00000000000E+00 -0.29977986348E+04  0.29977986348E+04  0.00000000000E+00 0. -1.
         24    2    1    2    0    0  0.90703409989E+03 -0.75753377778E+03 -0.91701003269E+03  0.14976214045E+04  0.73445137241E+02 0.  0.
        254    2    1    2    0    0 -0.90703409989E+03  0.75753377778E+03 -0.14810103626E+04  0.20999554698E+04  0.90545734202E+03 0.  0.
         23    2    4    4    0    0  0.37017068177E+01 -0.57009023922E+02  0.66004126896E+02  0.12653973134E+03  0.91608009461E+02 0.  0.
         23    2    4    4    0    0 -0.91073580671E+03  0.81454280170E+03 -0.15470144895E+04  0.19734157385E+04  0.90532650034E+02 0.  0.
          2    1    3    3  502    0  0.52239056097E+03 -0.39456073072E+03 -0.52937375730E+03  0.84190655262E+03  0.00000000000E+00 0. -1.
         -1    1    3    3    0  502  0.38464353892E+03 -0.36297304706E+03 -0.38763627539E+03  0.65571485184E+03  0.00000000000E+00 0.  1.
         13    1    5    5    0    0  0.69701279357E+01  0.10172380700E+00  0.68910086069E+02  0.69261771513E+02  0.00000000000E+00 0.  1.
        -13    1    5    5    0    0 -0.32684211180E+01 -0.57110747729E+02 -0.29059591730E+01  0.57277959823E+02  0.00000000000E+00 0. -1.
          2    1    6    6  503    0 -0.67467752570E+03  0.62479690588E+03 -0.11044243426E+04  0.14371200597E+04  0.00000000000E+00 0. -1.
         -2    1    6    6    0  503 -0.23605828101E+03  0.18974589582E+03 -0.44259014684E+03  0.53629567879E+03  0.00000000000E+00 0.  1.
<mgrwt>
<rscale>  0 0.26818012E+04</rscale>
<asrwt>0</asrwt>
<pdfrwt beam="1">  1        2 0.46119980E+00 0.26818012E+04</pdfrwt>
<pdfrwt beam="2">  1       -1 0.92273573E-01 0.26818012E+04</pdfrwt>
<totfact> 0.19933677E+00</totfact>
</mgrwt>
</event>
<event>
12    7  0.1544987E-007  0.3087055E+04  0.7818608E-02  0.8219300E-01
          2   -1    0    0  501    0  0.00000000000E+00  0.00000000000E+00  0.15986713548E+04  0.15986713548E+04  0.00000000000E+00 0. -1.
         -1   -1    0    0    0  501 -0.00000000000E+00 -0.00000000000E+00 -0.14902856470E+04  0.14902856470E+04  0.00000000000E+00 0.  1.
         24    2    1    2    0    0  0.10765986412E+04  0.59400368205E+03 -0.54987049662E+03  0.13492923413E+04  0.79544017746E+02 0.  0.
        254    2    1    2    0    0 -0.10765986412E+04 -0.59400368205E+03  0.65825620440E+03  0.17396646605E+04  0.10398206055E+04 0.  0.
         23    2    4    4    0    0 -0.10509050526E+04 -0.82442346218E+03  0.44244522416E+03  0.14101402804E+04  0.93071797037E+02 0.  0.
         23    2    4    4    0    0 -0.25693588629E+02  0.23041978013E+03  0.21581098024E+03  0.32952438011E+03  0.90876302325E+02 0.  0.
          2    1    3    3  502    0  0.11214664591E+03  0.58198836365E+02 -0.31090845892E+02  0.13011769842E+03  0.00000000000E+00 0. -1.
         -1    1    3    3    0  502  0.96445199528E+03  0.53580484569E+03 -0.51877965073E+03  0.12191746429E+04  0.00000000000E+00 0.  1.
         13    1    5    5    0    0 -0.26967080908E+03 -0.19762371131E+03  0.70330660873E+02  0.34164876467E+03  0.00000000000E+00 0. -1.
        -13    1    5    5    0    0 -0.78123424348E+03 -0.62679975086E+03  0.37211456329E+03  0.10684915157E+04  0.00000000000E+00 0.  1.
          1    1    6    6  503    0 -0.41021338379E+01  0.81918400163E+02  0.13788170150E+03  0.16043321163E+03  0.00000000000E+00 0. -1.
         -1    1    6    6    0  503 -0.21591454791E+02  0.14850137996E+03  0.77929278741E+02  0.16909116847E+03  0.00000000000E+00 0.  1.
<mgrwt>
<rscale>  0 0.30870549E+04</rscale>
<asrwt>0</asrwt>
<pdfrwt beam="1">  1        2 0.24594944E+00 0.30870549E+04</pdfrwt>
<pdfrwt beam="2">  1       -1 0.22927472E+00 0.30870549E+04</pdfrwt>
<totfact> 0.10316251E+00</totfact>
</mgrwt>
</event>
<event>
12    7  0.1544987E-007  0.1414081E+04  0.7818608E-02  0.8943689E-01
          2   -1    0    0  501    0  0.00000000000E+00  0.00000000000E+00  0.19087054902E+04  0.19087054902E+04  0.00000000000E+00 0. -1.
         -1   -1    0    0    0  501 -0.00000000000E+00 -0.00000000000E+00 -0.26190840534E+03  0.26190840534E+03  0.00000000000E+00 0.  1.
         24    2    1    2    0    0  0.10507881980E+03  0.34883150885E+02 -0.12077901022E+03  0.18178957579E+03  0.78749526793E+02 0.  0.
        254    2    1    2    0    0 -0.10507881980E+03 -0.34883150885E+02  0.17675760951E+04  0.19888243198E+04  0.90489697225E+03 0.  0.
         23    2    4    4    0    0  0.13681001315E+03 -0.22828942571E+02  0.17185249532E+04  0.17263824169E+04  0.88487820615E+02 0.  0.
         23    2    4    4    0    0 -0.24188883294E+03 -0.12054208314E+02  0.49051141880E+02  0.26244190283E+03  0.88398113096E+02 0.  0.
          2    1    3    3  502    0  0.47743912941E+02 -0.21259935417E+02 -0.28606097702E+02  0.59579987434E+02  0.00000000000E+00 0. -1.
         -1    1    3    3    0  502  0.57334906855E+02  0.56143086303E+02 -0.92172912517E+02  0.12220958835E+03  0.00000000000E+00 0.  1.
         13    1    5    5    0    0  0.70679374551E+02  0.26334126399E+02  0.58078354278E+03  0.58566080948E+03  0.00000000000E+00 0. -1.
        -13    1    5    5    0    0  0.66130638597E+02 -0.49163068970E+02  0.11377414104E+04  0.11407216075E+04  0.00000000000E+00 0.  1.
          2    1    6    6  503    0 -0.18074567904E+03 -0.30453153668E+02  0.68530058984E+02  0.19568537003E+03  0.00000000000E+00 0. -1.
         -2    1    6    6    0  503 -0.61143153902E+02  0.18398945354E+02 -0.19478917103E+02  0.66756532794E+02  0.00000000000E+00 0.  1.
<mgrwt>
<rscale>  0 0.14140806E+04</rscale>
<asrwt>0</asrwt>
<pdfrwt beam="1">  1        2 0.29364699E+00 0.14140806E+04</pdfrwt>
<pdfrwt beam="2">  1       -1 0.40293602E-01 0.14140806E+04</pdfrwt>
<totfact> 0.50001694E+01</totfact>
</mgrwt>
</event>
<event>
12    7  0.1544987E-007  0.2260416E+04  0.7818608E-02  0.8493694E-01
          2   -1    0    0  501    0  0.00000000000E+00  0.00000000000E+00  0.25670656166E+04  0.25670656166E+04  0.00000000000E+00 0. -1.
         -1   -1    0    0    0  501 -0.00000000000E+00 -0.00000000000E+00 -0.49759940440E+03  0.49759940440E+03  0.00000000000E+00 0.  1.
         24    2    1    2    0    0  0.87318906788E+03 -0.39249695341E+03  0.69289233135E+03  0.11845584053E+04  0.81029784438E+02 0.  0.
        254    2    1    2    0    0 -0.87318906788E+03  0.39249695341E+03  0.13765738808E+04  0.18801066157E+04  0.85048940637E+03 0.  0.
         23    2    4    4    0    0 -0.54101816298E+03  0.59892405378E+02  0.16204917173E+03  0.57453624207E+03  0.86857391725E+02 0.  0.
         23    2    4    4    0    0 -0.33217090490E+03  0.33260454804E+03  0.12145247091E+04  0.13055703736E+04  0.92089283057E+02 0.  0.
          4    1    3    3  502    0  0.37831057106E+00  0.76375206782E-01 -0.18838975325E+01  0.19230241739E+01  0.00000000000E+00 0. -1.
         -3    1    3    3    0  502  0.87281075731E+03 -0.39257332862E+03  0.69477622888E+03  0.11826353811E+04  0.00000000000E+00 0.  1.
         13    1    5    5    0    0 -0.27456397337E+03  0.43463780874E+02  0.12581132704E+03  0.30512778591E+03  0.00000000000E+00 0.  1.
        -13    1    5    5    0    0 -0.26645418961E+03  0.16428624504E+02  0.36237844683E+02  0.26940845616E+03  0.00000000000E+00 0. -1.
          2    1    6    6  503    0 -0.11318792437E+03  0.74355151747E+02  0.26733014103E+03  0.29967582338E+03  0.00000000000E+00 0. -1.
         -2    1    6    6    0  503 -0.21898298052E+03  0.25824939629E+03  0.94719456808E+03  0.10058945503E+04  0.00000000000E+00 0.  1.
<mgrwt>
<rscale>  0 0.22604162E+04</rscale>
<asrwt>0</asrwt>
<pdfrwt beam="1">  1        2 0.39493316E+00 0.22604162E+04</pdfrwt>
<pdfrwt beam="2">  1       -1 0.76553756E-01 0.22604162E+04</pdfrwt>
<totfact> 0.56392430E+00</totfact>
</mgrwt>
</event>
<event>
12    7  0.1544987E-007  0.2262040E+04  0.7818608E-02  0.8493040E-01
          2   -1    0    0  501    0  0.00000000000E+00  0.00000000000E+00  0.29197485260E+04  0.29197485260E+04  0.00000000000E+00 0. -1.
         -1   -1    0    0    0  501 -0.00000000000E+00 -0.00000000000E+00 -0.43812202093E+03  0.43812202093E+03  0.00000000000E+00 0.  1.
         24    2    1    2    0    0 -0.39961988353E+03  0.73878664574E+03  0.16386462445E+04  0.18430707408E+04  0.79034687294E+02 0.  0.
        254    2    1    2    0    0  0.39961988353E+03 -0.73878664574E+03  0.84298026064E+03  0.15147998062E+04  0.93728382773E+03 0.  0.
         23    2    4    4    0    0 -0.27567607146E+02 -0.69022882108E+03  0.17967974223E+03  0.71933523531E+03  0.89345243800E+02 0.  0.
         23    2    4    4    0    0  0.42718749068E+03 -0.48557824667E+02  0.66330051841E+03  0.79546457086E+03  0.89158797928E+02 0.  0.
          2    1    3    3  502    0 -0.28171864444E+03  0.44019871054E+03  0.10137718127E+04  0.11405584543E+04  0.00000000000E+00 0. -1.
         -1    1    3    3    0  502 -0.11790123909E+03  0.29858793520E+03  0.62487443173E+03  0.70251228649E+03  0.00000000000E+00 0.  1.
         13    1    5    5    0    0  0.24903567780E+02 -0.40818201566E+03  0.12150612680E+03  0.42661045984E+03  0.00000000000E+00 0. -1.
        -13    1    5    5    0    0 -0.52471174925E+02 -0.28204680542E+03  0.58173615428E+02  0.29272477547E+03  0.00000000000E+00 0.  1.
          4    1    6    6  503    0  0.10818539383E+03 -0.27492578749E+02  0.24284384858E+03  0.26726963186E+03  0.00000000000E+00 0. -1.
         -4    1    6    6    0  503  0.31900209685E+03 -0.21065245917E+02  0.42045666983E+03  0.52819493900E+03  0.00000000000E+00 0.  1.
<mgrwt>
<rscale>  0 0.22620399E+04</rscale>
<asrwt>0</asrwt>
<pdfrwt beam="1">  1        2 0.44919207E+00 0.22620399E+04</pdfrwt>
<pdfrwt beam="2">  1       -1 0.67403390E-01 0.22620399E+04</pdfrwt>
<totfact> 0.45092574E+00</totfact>
</mgrwt>
</event>
<event>
12    7  0.1544987E-007  0.2485684E+04  0.7818608E-02  0.8408103E-01
          2   -1    0    0  501    0  0.00000000000E+00  0.00000000000E+00  0.12423930182E+04  0.12423930182E+04  0.00000000000E+00 0. -1.
         -1   -1    0    0    0  501 -0.00000000000E+00 -0.00000000000E+00 -0.12432912188E+04  0.12432912188E+04  0.00000000000E+00 0.  1.
         24    2    1    2    0    0 -0.63536828182E+03  0.74222788762E+03 -0.45652990518E+03  0.10813701948E+04  0.79667139518E+02 0.  0.
        254    2    1    2    0    0  0.63536828182E+03 -0.74222788762E+03  0.45563170453E+03  0.14043140422E+04  0.89994588077E+03 0.  0.
         23    2    4    4    0    0  0.67689528336E+03 -0.47721351374E+03  0.65301547464E+03  0.10587517174E+04  0.92768672780E+02 0.  0.
         23    2    4    4    0    0 -0.41527001535E+02 -0.26501437388E+03 -0.19738377011E+03  0.34556232483E+03  0.92172975547E+02 0.  0.
          2    1    3    3  502    0 -0.12518259872E+03  0.10439940544E+03 -0.89010181394E+02  0.18572218842E+03  0.00000000000E+00 0. -1.
         -1    1    3    3    0  502 -0.51018568310E+03  0.63782848218E+03 -0.36751972379E+03  0.89564800636E+03  0.00000000000E+00 0.  1.
         13    1    5    5    0    0  0.62268098238E+02 -0.17184155784E+02  0.65760099064E+02  0.92179183643E+02  0.00000000000E+00 0. -1.
        -13    1    5    5    0    0  0.61462718512E+03 -0.46002935796E+03  0.58725537557E+03  0.96657253375E+03  0.00000000000E+00 0.  1.
          3    1    6    6  503    0  0.13575905655E+02 -0.25654671251E+02  0.21550163092E+01  0.29105179379E+02  0.00000000000E+00 0. -1.
         -3    1    6    6    0  503 -0.55102907190E+02 -0.23935970263E+03 -0.19953878642E+03  0.31645714545E+03  0.00000000000E+00 0.  1.
<mgrwt>
<rscale>  0 0.24856841E+04</rscale>
<asrwt>0</asrwt>
<pdfrwt beam="1">  1        2 0.19113739E+00 0.24856841E+04</pdfrwt>
<pdfrwt beam="2">  1       -1 0.19127557E+00 0.24856841E+04</pdfrwt>
<totfact> 0.31480037E+00</totfact>
</mgrwt>
</event>
<event>
12    7  0.1544987E-007  0.2262899E+04  0.7818608E-02  0.8492695E-01
          2   -1    0    0  501    0  0.00000000000E+00  0.00000000000E+00  0.14896587553E+04  0.14896587553E+04  0.00000000000E+00 0. -1.
         -1   -1    0    0    0  501 -0.00000000000E+00 -0.00000000000E+00 -0.85937678273E+03  0.85937678273E+03  0.00000000000E+00 0.  1.
         24    2    1    2    0    0  0.41592508007E+03 -0.39199224083E+03  0.10521745942E+04  0.12002673046E+04  0.83178342827E+02 0.  0.
        254    2    1    2    0    0 -0.41592508007E+03  0.39199224083E+03 -0.42189262156E+03  0.11487682335E+04  0.90278650911E+03 0.  0.
         23    2    4    4    0    0 -0.25906537136E+03  0.66607803843E+03 -0.38808770580E+03  0.81834047141E+03  0.91072717274E+02 0.  0.
         23    2    4    4    0    0 -0.15685970871E+03 -0.27408579760E+03 -0.33804915764E+02  0.33042776208E+03  0.91168749900E+02 0.  0.
          4    1    3    3  502    0  0.31702694256E+03 -0.30683993817E+03  0.87805114345E+03  0.98266507034E+03  0.00000000000E+00 0. -1.
         -3    1    3    3    0  502  0.98898137514E+02 -0.85152302661E+02  0.17412345073E+03  0.21760223424E+03  0.00000000000E+00 0.  1.
         13    1    5    5    0    0 -0.75954173875E+02  0.10744666117E+03 -0.88048719258E+02  0.15832371423E+03  0.00000000000E+00 0. -1.
        -13    1    5    5    0    0 -0.18311119748E+03  0.55863137726E+03 -0.30003898654E+03  0.66001675717E+03  0.00000000000E+00 0.  1.
          2    1    6    6  503    0 -0.10219877132E+03 -0.23645767339E+03 -0.38678784539E+01  0.25762721255E+03  0.00000000000E+00 0. -1.
         -2    1    6    6    0  503 -0.54660937393E+02 -0.37628124213E+02 -0.29937037310E+02  0.72800549526E+02  0.00000000000E+00 0.  1.
<mgrwt>
<rscale>  0 0.22628992E+04</rscale>
<asrwt>0</asrwt>
<pdfrwt beam="1">  1        2 0.22917827E+00 0.22628992E+04</pdfrwt>
<pdfrwt beam="2">  1       -1 0.13221181E+00 0.22628992E+04</pdfrwt>
<totfact> 0.64763474E+00</totfact>
</mgrwt>
</event>
<event>
12    7  0.1544987E-007  0.1349185E+04  0.7818608E-02  0.8991445E-01
          2   -1    0    0  501    0  0.00000000000E+00  0.00000000000E+00  0.68981737069E+03  0.68981737069E+03  0.00000000000E+00 0. -1.
         -1   -1    0    0    0  501 -0.00000000000E+00 -0.00000000000E+00 -0.65970374916E+03  0.65970374916E+03  0.00000000000E+00 0.  1.
         24    2    1    2    0    0 -0.57383450964E+02 -0.26097261867E+03 -0.23731316967E+03  0.36639759193E+03  0.80808952081E+02 0.  0.
        254    2    1    2    0    0  0.57383450964E+02  0.26097261867E+03  0.26742679120E+03  0.98312352792E+03  0.90753248667E+03 0.  0.
         23    2    4    4    0    0  0.11525591603E+03  0.10926307255E+03  0.58582183211E+03  0.61395301540E+03  0.92351182650E+02 0.  0.
         23    2    4    4    0    0 -0.57872465070E+02  0.15170954612E+03 -0.31839504092E+03  0.36917051252E+03  0.92447047736E+02 0.  0.
          2    1    3    3  502    0  0.59930553418E+01 -0.20977221008E+01 -0.24580477867E+02  0.25387340201E+02  0.00000000000E+00 0. -1.
         -1    1    3    3    0  502 -0.63376506306E+02 -0.25887489657E+03 -0.21273269180E+03  0.34101025173E+03  0.00000000000E+00 0.  1.
         13    1    5    5    0    0  0.12675029311E+03  0.75009643920E+02  0.48384177701E+03  0.50576175089E+03  0.00000000000E+00 0. -1.
        -13    1    5    5    0    0 -0.11494377081E+02  0.34253428626E+02  0.10198005510E+03  0.10819126451E+03  0.00000000000E+00 0.  1.
          4    1    6    6  503    0 -0.22212657752E+02 -0.60954694628E+01 -0.24095944304E+02  0.33334238318E+02  0.00000000000E+00 0.  1.
         -4    1    6    6    0  503 -0.35659807318E+02  0.15780501558E+03 -0.29429909661E+03  0.33583627420E+03  0.00000000000E+00 0. -1.
<mgrwt>
<rscale>  0 0.13491851E+04</rscale>
<asrwt>0</asrwt>
<pdfrwt beam="1">  1        2 0.10612575E+00 0.13491851E+04</pdfrwt>
<pdfrwt beam="2">  1       -1 0.10149289E+00 0.13491851E+04</pdfrwt>
<totfact> 0.42923101E+01</totfact>
</mgrwt>
</event>
<event>
12    7  0.1544987E-007  0.2089910E+04  0.7818608E-02  0.8565701E-01
          2   -1    0    0  501    0  0.00000000000E+00  0.00000000000E+00  0.14534175479E+04  0.14534175479E+04  0.00000000000E+00 0. -1.
         -1   -1    0    0    0  501 -0.00000000000E+00 -0.00000000000E+00 -0.75128494593E+03  0.75128494593E+03  0.00000000000E+00 0.  1.
         24    2    1    2    0    0  0.20418141229E+02 -0.84913361274E+03  0.26848351039E+03  0.89441152755E+03  0.80273236476E+02 0.  0.
        254    2    1    2    0    0 -0.20418141229E+02  0.84913361274E+03  0.43364909156E+03  0.13102909663E+04  0.89853552455E+03 0.  0.
         23    2    4    4    0    0  0.74211696488E+02  0.96285011048E+03  0.53623848341E+03  0.11083548330E+04  0.91164760121E+02 0.  0.
         23    2    4    4    0    0 -0.94629837717E+02 -0.11371649775E+03 -0.10258939185E+03  0.20193613331E+03  0.91473332567E+02 0.  0.
          4    1    3    3  502    0  0.36991152609E+02 -0.18426976400E+03  0.52287368331E+02  0.19508372608E+03  0.00000000000E+00 0. -1.
         -3    1    3    3    0  502 -0.16573011380E+02 -0.66486384874E+03  0.21619614206E+03  0.69932780147E+03  0.00000000000E+00 0.  1.
         13    1    5    5    0    0  0.88070483556E+02  0.73435839556E+03  0.38316866529E+03  0.83298072563E+03  0.00000000000E+00 0. -1.
        -13    1    5    5    0    0 -0.13858787068E+02  0.22849171492E+03  0.15306981811E+03  0.27537410732E+03  0.00000000000E+00 0.  1.
          2    1    6    6  503    0 -0.66116401719E+02 -0.73594834966E+02 -0.11447348521E+03  0.15130022183E+03  0.00000000000E+00 0.  1.
         -2    1    6    6    0  503 -0.28513435998E+02 -0.40121662779E+02  0.11884093360E+02  0.50635911482E+02  0.00000000000E+00 0. -1.
<mgrwt>
<rscale>  0 0.20899098E+04</rscale>
<asrwt>0</asrwt>
<pdfrwt beam="1">  1        2 0.22360270E+00 0.20899098E+04</pdfrwt>
<pdfrwt beam="2">  1       -1 0.11558230E+00 0.20899098E+04</pdfrwt>
<totfact> 0.96135026E+00</totfact>
</mgrwt>
</event>
<event>
12    7  0.1544987E-007  0.2262811E+04  0.7818608E-02  0.8492730E-01
          2   -1    0    0  501    0  0.00000000000E+00  0.00000000000E+00  0.37095747558E+04  0.37095747558E+04  0.00000000000E+00 0. -1.
         -1   -1    0    0    0  501 -0.00000000000E+00 -0.00000000000E+00 -0.34507424622E+03  0.34507424622E+03  0.00000000000E+00 0.  1.
         24    2    1    2    0    0  0.78807162963E+03 -0.44922527294E+03  0.84615642465E+03  0.12430859151E+04  0.80135249150E+02 0.  0.
        254    2    1    2    0    0 -0.78807162963E+03  0.44922527294E+03  0.25183440849E+04  0.28115630869E+04  0.86021498601E+03 0.  0.
         23    2    4    4    0    0 -0.19386972006E+03 -0.10289979261E+03  0.99241869255E+02  0.25846833718E+03  0.93718178793E+02 0.  0.
         23    2    4    4    0    0 -0.59420190957E+03  0.55212506555E+03  0.24191022157E+04  0.25530947497E+04  0.91210052710E+02 0.  0.
          2    1    3    3  502    0  0.15162002246E+03 -0.99789360743E+02  0.13007436683E+03  0.22330671426E+03  0.00000000000E+00 0. -1.
         -1    1    3    3    0  502  0.63645160717E+03 -0.34943591220E+03  0.71608205782E+03  0.10197792009E+04  0.00000000000E+00 0.  1.
         13    1    5    5    0    0 -0.21905510109E+02 -0.44416720563E+02  0.49775703880E+02  0.70216217041E+02  0.00000000000E+00 0. -1.
        -13    1    5    5    0    0 -0.17196420996E+03 -0.58483072047E+02  0.49466165375E+02  0.18825212014E+03  0.00000000000E+00 0.  1.
          4    1    6    6  503    0 -0.26548231961E+03  0.19331250858E+03  0.10434158619E+04  0.10938771635E+04  0.00000000000E+00 0.  1.
         -4    1    6    6    0  503 -0.32871958996E+03  0.35881255697E+03  0.13756863538E+04  0.14592175862E+04  0.00000000000E+00 0. -1.
<mgrwt>
<rscale>  0 0.22628113E+04</rscale>
<asrwt>0</asrwt>
<pdfrwt beam="1">  1        2 0.57070378E+00 0.22628113E+04</pdfrwt>
<pdfrwt beam="2">  1       -1 0.53088348E-01 0.22628113E+04</pdfrwt>
<totfact> 0.21347503E+00</totfact>
</mgrwt>
</event>
<event>
12    7  0.1544987E-007  0.2656162E+04  0.7818608E-02  0.8349371E-01
          2   -1    0    0  501    0  0.00000000000E+00  0.00000000000E+00  0.17289229056E+04  0.17289229056E+04  0.00000000000E+00 0. -1.
         -1   -1    0    0    0  501 -0.00000000000E+00 -0.00000000000E+00 -0.10201721143E+04  0.10201721143E+04  0.00000000000E+00 0.  1.
         24    2    1    2    0    0 -0.10610132478E+04  0.21153483462E+03 -0.16030968897E+03  0.10965688698E+04  0.79170648505E+02 0.  0.
        254    2    1    2    0    0  0.10610132478E+04 -0.21153483462E+03  0.86906048026E+03  0.16525261500E+04  0.89726275959E+03 0.  0.
         23    2    4    4    0    0  0.79424618139E+02  0.22720665075E+02 -0.16461510352E+03  0.20503169324E+03  0.90085316994E+02 0.  0.
         23    2    4    4    0    0  0.98158862968E+03 -0.23425549969E+03  0.10336755838E+04  0.14474944568E+04  0.91450056171E+02 0.  0.
          2    1    3    3  502    0 -0.51742770457E+03  0.93002218493E+02 -0.11660753923E+03  0.53849620269E+03  0.00000000000E+00 0. -1.
         -1    1    3    3    0  502 -0.54358554325E+03  0.11853261613E+03 -0.43702149738E+02  0.55807266714E+03  0.00000000000E+00 0.  1.
         13    1    5    5    0    0  0.77761937215E+02 -0.13197078607E+02 -0.14234750685E+03  0.16273873070E+03  0.00000000000E+00 0. -1.
        -13    1    5    5    0    0  0.16626809240E+01  0.35917743682E+02 -0.22267596671E+02  0.42292962542E+02  0.00000000000E+00 0.  1.
          4    1    6    6  503    0  0.44291374395E+02 -0.41653401516E+01  0.74693350732E+02  0.86937750995E+02  0.00000000000E+00 0.  1.
         -4    1    6    6    0  503  0.93729725529E+03 -0.23009015954E+03  0.95898223305E+03  0.13605567058E+04  0.00000000000E+00 0. -1.
<mgrwt>
<rscale>  0 0.26561618E+04</rscale>
<asrwt>0</asrwt>
<pdfrwt beam="1">  1        2 0.26598814E+00 0.26561618E+04</pdfrwt>
<pdfrwt beam="2">  1       -1 0.15694956E+00 0.26561618E+04</pdfrwt>
<totfact> 0.29202667E+00</totfact>
</mgrwt>
</event>
<event>
12    7  0.1544987E-007  0.1717421E+04  0.7818608E-02  0.8751491E-01
         -1   -1    0    0    0  501 -0.00000000000E+00  0.00000000000E+00  0.27779177027E+04  0.27779177027E+04  0.00000000000E+00 0.  1.
          2   -1    0    0  501    0  0.00000000000E+00 -0.00000000000E+00 -0.26544461761E+03  0.26544461761E+03  0.00000000000E+00 0. -1.
         24    2    1    2    0    0 -0.93051721272E+02  0.30767062747E+03 -0.13903716689E+02  0.33118074141E+03  0.78533638006E+02 0.  0.
        254    2    1    2    0    0  0.93051721272E+02 -0.30767062747E+03  0.25263768017E+04  0.27121815789E+04  0.93275363012E+03 0.  0.
         23    2    4    4    0    0  0.28328863307E+03  0.82690777941E+02  0.20006059931E+04  0.20242920582E+04  0.90795281181E+02 0.  0.
         23    2    4    4    0    0 -0.19023691180E+03 -0.39036140541E+03  0.52577080869E+03  0.68788952066E+03  0.90470657756E+02 0.  0.
          4    1    3    3  502    0 -0.10177271888E+03  0.26315379589E+03 -0.28360069029E+02  0.28356992103E+03  0.00000000000E+00 0. -1.
         -3    1    3    3    0  502  0.87209976076E+01  0.44516831584E+02  0.14456352340E+02  0.47610820372E+02  0.00000000000E+00 0.  1.
         13    1    5    5    0    0  0.21049703245E+03  0.60279545988E+02  0.17062678185E+04  0.17202594260E+04  0.00000000000E+00 0.  1.
        -13    1    5    5    0    0  0.72791600626E+02  0.22411231952E+02  0.29433817459E+03  0.30403263223E+03  0.00000000000E+00 0. -1.
          2    1    6    6  503    0 -0.54746493744E+02 -0.16183154658E+03  0.14788270347E+03  0.22595557536E+03  0.00000000000E+00 0.  1.
         -2    1    6    6    0  503 -0.13549041805E+03 -0.22852985883E+03  0.37788810521E+03  0.46193394530E+03  0.00000000000E+00 0. -1.
<mgrwt>
<rscale>  0 0.17174205E+04</rscale>
<asrwt>0</asrwt>
<pdfrwt beam="1">  1        2 0.40837635E-01 0.17174205E+04</pdfrwt>
<pdfrwt beam="2">  1       -1 0.42737193E+00 0.17174205E+04</pdfrwt>
<totfact> 0.63734859E-01</totfact>
</mgrwt>
</event>
<event>
12    7  0.1544987E-007  0.1585041E+04  0.7818608E-02  0.8829791E-01
          2   -1    0    0  501    0  0.00000000000E+00  0.00000000000E+00  0.69570053565E+03  0.69570053565E+03  0.00000000000E+00 0. -1.
         -1   -1    0    0    0  501 -0.00000000000E+00 -0.00000000000E+00 -0.90281456829E+03  0.90281456829E+03  0.00000000000E+00 0.  1.
         24    2    1    2    0    0  0.41586849909E+03 -0.18353370426E+03 -0.35445827031E+03  0.58199194842E+03  0.80266640006E+02 0.  0.
        254    2    1    2    0    0 -0.41586849909E+03  0.18353370426E+03  0.14734423767E+03  0.10165231555E+04  0.89720553509E+03 0.  0.
         23    2    4    4    0    0 -0.43865537402E+03  0.47199250768E+03 -0.53301709843E+02  0.65277614388E+03  0.89889695077E+02 0.  0.
         23    2    4    4    0    0  0.22786874922E+02 -0.28845880343E+03  0.20064594751E+03  0.36374701164E+03  0.91243461596E+02 0.  0.
          4    1    3    3  502    0  0.18603124085E+03 -0.78534787793E+02 -0.10791091821E+03  0.22895436606E+03  0.00000000000E+00 0. -1.
         -3    1    3    3    0  502  0.22983725824E+03 -0.10499891646E+03 -0.24654735210E+03  0.35303758236E+03  0.00000000000E+00 0.  1.
         13    1    5    5    0    0 -0.56608676789E+02  0.98337932046E+02  0.13312521989E+02  0.11424585073E+03  0.00000000000E+00 0. -1.
        -13    1    5    5    0    0 -0.38204669723E+03  0.37365457564E+03 -0.66614231832E+02  0.53853029315E+03  0.00000000000E+00 0.  1.
          2    1    6    6  503    0  0.10137971206E+01 -0.85813829664E+01  0.38716265014E+02  0.39668842873E+02  0.00000000000E+00 0. -1.
         -2    1    6    6    0  503  0.21773077801E+02 -0.27987742046E+03  0.16192968250E+03  0.32407816877E+03  0.00000000000E+00 0.  1.
<mgrwt>
<rscale>  0 0.15850408E+04</rscale>
<asrwt>0</asrwt>
<pdfrwt beam="1">  1        2 0.10703085E+00 0.15850408E+04</pdfrwt>
<pdfrwt beam="2">  1       -1 0.13889455E+00 0.15850408E+04</pdfrwt>
<totfact> 0.19378935E+01</totfact>
</mgrwt>
</event>
<event>
12    7  0.1544987E-007  0.1400252E+04  0.7818608E-02  0.8953636E-01
          2   -1    0    0  501    0  0.00000000000E+00  0.00000000000E+00  0.44289501194E+03  0.44289501194E+03  0.00000000000E+00 0. -1.
         -1   -1    0    0    0  501 -0.00000000000E+00 -0.00000000000E+00 -0.11067546035E+04  0.11067546035E+04  0.00000000000E+00 0.  1.
         24    2    1    2    0    0  0.40978705029E+03 -0.62241396509E+02 -0.13349793748E+03  0.44396680338E+03  0.86518235998E+02 0.  0.
        254    2    1    2    0    0 -0.40978705029E+03  0.62241396509E+02 -0.53036165406E+03  0.11056828120E+04  0.87718389105E+03 0.  0.
         23    2    4    4    0    0 -0.63764279122E+02  0.20950468676E+03  0.17876521914E+03  0.29732070957E+03  0.92111365744E+02 0.  0.
         23    2    4    4    0    0 -0.34602277117E+03 -0.14726329025E+03 -0.70912687320E+03  0.80836210247E+03  0.95760803984E+02 0.  0.
          2    1    3    3  502    0  0.41038171076E+03 -0.53796790996E+02 -0.13503297994E+03  0.43536323791E+03  0.00000000000E+00 0. -1.
         -1    1    3    3    0  502 -0.59466047005E+00 -0.84446055126E+01  0.15350424657E+01  0.86035654649E+01  0.00000000000E+00 0.  1.
         13    1    5    5    0    0  0.13062365331E+02 -0.85555697097E+00  0.14827650878E+02  0.19779196049E+02  0.00000000000E+00 0. -1.
        -13    1    5    5    0    0 -0.76826644453E+02  0.21036024373E+03  0.16393756827E+03  0.27754151352E+03  0.00000000000E+00 0.  1.
          1    1    6    6  503    0  0.58854549982E+01 -0.24962195437E+01 -0.21960537272E+02  0.22872142222E+02  0.00000000000E+00 0. -1.
         -1    1    6    6    0  503 -0.35190822617E+03 -0.14476707071E+03 -0.68716633593E+03  0.78548996025E+03  0.00000000000E+00 0.  1.
<mgrwt>
<rscale>  0 0.14002515E+04</rscale>
<asrwt>0</asrwt>
<pdfrwt beam="1">  1        2 0.68137695E-01 0.14002515E+04</pdfrwt>
<pdfrwt beam="2">  1       -1 0.17026994E+00 0.14002515E+04</pdfrwt>
<totfact> 0.19312588E+01</totfact>
</mgrwt>
</event>
<event>
12    7  0.1544987E-007  0.1941987E+04  0.7818608E-02  0.8634235E-01
         -1   -1    0    0    0  501 -0.00000000000E+00  0.00000000000E+00  0.54228681008E+03  0.54228681008E+03  0.00000000000E+00 0.  1.
          2   -1    0    0  501    0  0.00000000000E+00 -0.00000000000E+00 -0.17386154315E+04  0.17386154315E+04  0.00000000000E+00 0. -1.
         24    2    1    2    0    0 -0.41938478996E+02  0.49942207535E+03  0.20813760451E+03  0.54864383200E+03  0.80669366029E+02 0.  0.
        254    2    1    2    0    0  0.41938478996E+02 -0.49942207535E+03 -0.14044662260E+04  0.17322584096E+04  0.88148316627E+03 0.  0.
         23    2    4    4    0    0  0.43811152751E+03 -0.13036376583E+03 -0.64551448189E+03  0.79628875787E+03  0.91926152920E+02 0.  0.
         23    2    4    4    0    0 -0.39617304852E+03 -0.36905830952E+03 -0.75895174407E+03  0.93596965174E+03  0.82911512799E+02 0.  0.
          2    1    3    3  502    0 -0.53845708755E+02  0.38877532525E+03  0.18938509011E+03  0.43578931404E+03  0.00000000000E+00 0. -1.
         -1    1    3    3    0  502  0.11907229759E+02  0.11064675010E+03  0.18752514398E+02  0.11285451796E+03  0.00000000000E+00 0.  1.
         13    1    5    5    0    0  0.21532305147E+03 -0.26139777997E+02 -0.35056010184E+03  0.41223741884E+03  0.00000000000E+00 0.  1.
        -13    1    5    5    0    0  0.22278847604E+03 -0.10422398784E+03 -0.29495438005E+03  0.38405133903E+03  0.00000000000E+00 0. -1.
          2    1    6    6  503    0 -0.20342113768E+03 -0.24480261640E+03 -0.45115761470E+03  0.55213374607E+03  0.00000000000E+00 0.  1.
         -2    1    6    6    0  503 -0.19275191084E+03 -0.12425569312E+03 -0.30779412937E+03  0.38383590567E+03  0.00000000000E+00 0. -1.
<mgrwt>
<rscale>  0 0.19419868E+04</rscale>
<asrwt>0</asrwt>
<pdfrwt beam="1">  1        2 0.26747929E+00 0.19419868E+04</pdfrwt>
<pdfrwt beam="2">  1       -1 0.83428741E-01 0.19419868E+04</pdfrwt>
<totfact> 0.14144468E+01</totfact>
</mgrwt>
</event>
<event>
12    7  0.1544987E-007  0.1974564E+04  0.7818608E-02  0.8618606E-01
         -1   -1    0    0    0  501 -0.00000000000E+00  0.00000000000E+00  0.34930757034E+03  0.34930757034E+03  0.00000000000E+00 0.  1.
          2   -1    0    0  501    0  0.00000000000E+00 -0.00000000000E+00 -0.27904508612E+04  0.27904508612E+04  0.00000000000E+00 0. -1.
         24    2    1    2    0    0 -0.18385162514E+02  0.24001837599E+03 -0.21433230967E+04  0.21575570836E+04  0.57199972691E+02 0.  0.
        254    2    1    2    0    0  0.18385162514E+02 -0.24001837599E+03 -0.29782019410E+03  0.98220134795E+03  0.90447541972E+03 0.  0.
         23    2    4    4    0    0 -0.34503577897E+03 -0.30942805995E+03  0.38441412317E+02  0.47377403539E+03  0.90491333156E+02 0.  0.
         23    2    4    4    0    0  0.36342094149E+03  0.69409683961E+02 -0.33626160642E+03  0.50842731255E+03  0.92379539186E+02 0.  0.
          4    1    3    3  502    0  0.15963877257E+02  0.15196033134E+03 -0.12930927125E+04  0.13020889182E+04  0.00000000000E+00 0. -1.
         -3    1    3    3    0  502 -0.34349039771E+02  0.88058044648E+02 -0.85023038420E+03  0.85546816538E+03  0.00000000000E+00 0.  1.
         13    1    5    5    0    0 -0.29604380601E+03 -0.28855931471E+03  0.57127664733E+02  0.41733917053E+03  0.00000000000E+00 0.  1.
        -13    1    5    5    0    0 -0.48991972964E+02 -0.20868745245E+02 -0.18686252417E+02  0.56434864865E+02  0.00000000000E+00 0. -1.
          2    1    6    6  503    0  0.20792805638E+03  0.76747546780E+02 -0.16054996477E+03  0.27367965536E+03  0.00000000000E+00 0.  1.
         -2    1    6    6    0  503  0.15549288510E+03 -0.73378628199E+01 -0.17571164165E+03  0.23474765720E+03  0.00000000000E+00 0. -1.
<mgrwt>
<rscale>  0 0.19745639E+04</rscale>
<asrwt>0</asrwt>
<pdfrwt beam="1">  1        2 0.42930012E+00 0.19745639E+04</pdfrwt>
<pdfrwt beam="2">  1       -1 0.53739628E-01 0.19745639E+04</pdfrwt>
<totfact> 0.86922063E+00</totfact>
</mgrwt>
</event>
<event>
12    7  0.1544987E-007  0.1843269E+04  0.7818608E-02  0.8683622E-01
         -1   -1    0    0    0  501 -0.00000000000E+00  0.00000000000E+00  0.78154275980E+03  0.78154275980E+03  0.00000000000E+00 0.  1.
          2   -1    0    0  501    0  0.00000000000E+00 -0.00000000000E+00 -0.10868377485E+04  0.10868377485E+04  0.00000000000E+00 0. -1.
         24    2    1    2    0    0 -0.55360271465E+03 -0.41509058618E+02  0.31558419095E+03  0.64358023589E+03  0.80019815248E+02 0.  0.
        254    2    1    2    0    0  0.55360271465E+03  0.41509058618E+02 -0.62087917965E+03  0.12248002724E+04  0.89802326471E+03 0.  0.
         23    2    4    4    0    0  0.15163965270E+03  0.21926810547E+03  0.16051615711E+03  0.32366518420E+03  0.88997912476E+02 0.  0.
         23    2    4    4    0    0  0.40196306195E+03 -0.17775904685E+03 -0.78139533677E+03  0.90113508821E+03  0.91066969705E+02 0.  0.
          4    1    3    3  502    0 -0.12196198593E+03  0.15356699728E+02  0.44606749884E+02  0.13076817799E+03  0.00000000000E+00 0. -1.
         -3    1    3    3    0  502 -0.43164072872E+03 -0.56865758346E+02  0.27097744107E+03  0.51281205790E+03  0.00000000000E+00 0.  1.
         13    1    5    5    0    0  0.36421650030E+02  0.13082175786E+03  0.76212698084E+02  0.15572168850E+03  0.00000000000E+00 0.  1.
        -13    1    5    5    0    0  0.11521800267E+03  0.88446347606E+02  0.84303459029E+02  0.16794349570E+03  0.00000000000E+00 0. -1.
          3    1    6    6  503    0  0.78570325066E+02 -0.63508051839E+02 -0.23794616293E+03  0.25850521287E+03  0.00000000000E+00 0. -1.
         -3    1    6    6    0  503  0.32339273689E+03 -0.11425099501E+03 -0.54344917383E+03  0.64262987534E+03  0.00000000000E+00 0.  1.
<mgrwt>
<rscale>  0 0.18432690E+04</rscale>
<asrwt>0</asrwt>
<pdfrwt beam="1">  1        2 0.16720581E+00 0.18432690E+04</pdfrwt>
<pdfrwt beam="2">  1       -1 0.12023735E+00 0.18432690E+04</pdfrwt>
<totfact> 0.14677486E+01</totfact>
</mgrwt>
</event>
<event>
12    7  0.1544987E-007  0.1457904E+04  0.7818608E-02  0.8912939E-01
          2   -1    0    0  501    0  0.00000000000E+00  0.00000000000E+00  0.16448332523E+04  0.16448332523E+04  0.00000000000E+00 0. -1.
         -1   -1    0    0    0  501 -0.00000000000E+00 -0.00000000000E+00 -0.32305465502E+03  0.32305465502E+03  0.00000000000E+00 0.  1.
         24    2    1    2    0    0 -0.28056648605E+03 -0.21912084168E+03  0.43881864035E+02  0.36630409454E+03  0.74307303398E+02 0.  0.
        254    2    1    2    0    0  0.28056648605E+03  0.21912084168E+03  0.12778967332E+04  0.16015838128E+04  0.89739576115E+03 0.  0.
         23    2    4    4    0    0  0.51021173399E+02 -0.28564939347E+02 -0.11950926968E+03  0.16113021970E+03  0.90892058334E+02 0.  0.
         23    2    4    4    0    0  0.22954531265E+03  0.24768578102E+03  0.13974060029E+04  0.14404535930E+04  0.90131681987E+02 0.  0.
          4    1    3    3  502    0 -0.54698406955E+01 -0.60684086068E+00  0.12410715246E+02  0.13576202192E+02  0.00000000000E+00 0. -1.
         -3    1    3    3    0  502 -0.27509664535E+03 -0.21851400082E+03  0.31471148790E+02  0.35272789235E+03  0.00000000000E+00 0.  1.
         13    1    5    5    0    0  0.51590047951E+02  0.21645215389E+02 -0.77950345559E+02  0.95949490721E+02  0.00000000000E+00 0.  1.
        -13    1    5    5    0    0 -0.56887455160E+00 -0.50210154737E+02 -0.41558924117E+02  0.65180728983E+02  0.00000000000E+00 0. -1.
          4    1    6    6  503    0  0.78273243175E+02  0.12306729570E+03  0.45210931776E+03  0.47505272873E+03  0.00000000000E+00 0. -1.
         -4    1    6    6    0  503  0.15127206947E+03  0.12461848533E+03  0.94529668514E+03  0.96540086432E+03  0.00000000000E+00 0.  1.
<mgrwt>
<rscale>  0 0.14579040E+04</rscale>
<asrwt>0</asrwt>
<pdfrwt beam="1">  1        2 0.25305126E+00 0.14579040E+04</pdfrwt>
<pdfrwt beam="2">  1       -1 0.49700717E-01 0.14579040E+04</pdfrwt>
<totfact> 0.47189831E+01</totfact>
</mgrwt>
</event>
<event>
12    7  0.1544987E-007  0.2007866E+04  0.7818608E-02  0.8602952E-01
          2   -1    0    0  501    0  0.00000000000E+00  0.00000000000E+00  0.42186652650E+03  0.42186652650E+03  0.00000000000E+00 0. -1.
         -1   -1    0    0    0  501 -0.00000000000E+00 -0.00000000000E+00 -0.23890995015E+04  0.23890995015E+04  0.00000000000E+00 0.  1.
         24    2    1    2    0    0 -0.17798637138E+03 -0.25138065840E+03  0.24728890007E+03  0.40285557340E+03  0.79179726603E+02 0.  0.
        254    2    1    2    0    0  0.17798637138E+03  0.25138065840E+03 -0.22145218750E+04  0.24081104546E+04  0.89443694163E+03 0.  0.
         23    2    4    4    0    0  0.52226476024E+03  0.40209015540E+02 -0.12952624992E+04  0.14000346316E+04  0.89525320774E+02 0.  0.
         23    2    4    4    0    0 -0.34427838886E+03  0.21117164286E+03 -0.91925937582E+03  0.10080758230E+04  0.89766324700E+02 0.  0.
          2    1    3    3  502    0 -0.83555580687E+02 -0.15287507948E+03  0.18073746153E+03  0.25103456931E+03  0.00000000000E+00 0. -1.
         -1    1    3    3    0  502 -0.94430790690E+02 -0.98505578924E+02  0.66551438537E+02  0.15182100408E+03  0.00000000000E+00 0.  1.
         13    1    5    5    0    0  0.16804997912E+03 -0.28641079790E+02 -0.42758604224E+03  0.46031612014E+03  0.00000000000E+00 0.  1.
        -13    1    5    5    0    0  0.35421478111E+03  0.68850095330E+02 -0.86767645697E+03  0.93971851145E+03  0.00000000000E+00 0. -1.
          3    1    6    6  503    0 -0.25969861726E+03  0.12396912041E+03 -0.57458538694E+03  0.64261970209E+03  0.00000000000E+00 0. -1.
         -3    1    6    6    0  503 -0.84579771595E+02  0.87202522457E+02 -0.34467398888E+03  0.36545612089E+03  0.00000000000E+00 0.  1.
<mgrwt>
<rscale>  0 0.20078656E+04</rscale>
<asrwt>0</asrwt>
<pdfrwt beam="1">  1        2 0.64902543E-01 0.20078656E+04</pdfrwt>
<pdfrwt beam="2">  1       -1 0.36755377E+00 0.20078656E+04</pdfrwt>
<totfact> 0.94421847E-01</totfact>
</mgrwt>
</event>
<event>
12    7  0.1544987E-007  0.1400239E+04  0.7818608E-02  0.8953645E-01
         -1   -1    0    0    0  501 -0.00000000000E+00  0.00000000000E+00  0.31730177978E+03  0.31730177978E+03  0.00000000000E+00 0.  1.
          2   -1    0    0  501    0  0.00000000000E+00 -0.00000000000E+00 -0.15447991487E+04  0.15447991487E+04  0.00000000000E+00 0. -1.
         24    2    1    2    0    0  0.21328682474E+03  0.33195505046E+03 -0.49171531631E+03  0.63561397809E+03  0.80843996139E+02 0.  0.
        254    2    1    2    0    0 -0.21328682474E+03 -0.33195505046E+03 -0.73578205265E+03  0.12264869504E+04  0.89844843227E+03 0.  0.
         23    2    4    4    0    0  0.23729236955E+03 -0.71270880169E+02  0.60059617661E+02  0.27102086322E+03  0.91967079015E+02 0.  0.
         23    2    4    4    0    0 -0.45057919429E+03 -0.26068417029E+03 -0.79584167031E+03  0.95546608721E+03  0.92593912505E+02 0.  0.
          2    1    3    3  502    0  0.18237998564E+03  0.27827351700E+03 -0.36083888727E+03  0.49081902162E+03  0.00000000000E+00 0. -1.
         -1    1    3    3    0  502  0.30906839103E+02  0.53681533463E+02 -0.13087642904E+03  0.14479495646E+03  0.00000000000E+00 0.  1.
         13    1    5    5    0    0  0.95018003794E+02 -0.49592910111E+02  0.67920398407E+02  0.12688994561E+03  0.00000000000E+00 0. -1.
        -13    1    5    5    0    0  0.14227436576E+03 -0.21677970058E+02 -0.78607807457E+01  0.14413091761E+03  0.00000000000E+00 0.  1.
          3    1    6    6  503    0 -0.10301302612E+02  0.69886089399E+01 -0.29392446251E+02  0.31919796162E+02  0.00000000000E+00 0. -1.
         -3    1    6    6    0  503 -0.44027789168E+03 -0.26767277923E+03 -0.76644922406E+03  0.92354629104E+03  0.00000000000E+00 0.  1.
<mgrwt>
<rscale>  0 0.14002393E+04</rscale>
<asrwt>0</asrwt>
<pdfrwt beam="1">  1        2 0.23766141E+00 0.14002393E+04</pdfrwt>
<pdfrwt beam="2">  1       -1 0.48815658E-01 0.14002393E+04</pdfrwt>
<totfact> 0.55792169E+01</totfact>
</mgrwt>
</event>
<event>
12    7  0.1544987E-007  0.1692373E+04  0.7818608E-02  0.8765726E-01
         -1   -1    0    0    0  501 -0.00000000000E+00  0.00000000000E+00  0.25151244843E+03  0.25151244843E+03  0.00000000000E+00 0.  1.
          2   -1    0    0  501    0  0.00000000000E+00 -0.00000000000E+00 -0.28469032022E+04  0.28469032022E+04  0.00000000000E+00 0. -1.
         24    2    1    2    0    0  0.28670787333E+03 -0.52791386129E+03 -0.87381036456E+03  0.10634004126E+04  0.79883882452E+02 0.  0.
        254    2    1    2    0    0 -0.28670787333E+03  0.52791386129E+03 -0.17215803892E+04  0.20350152381E+04  0.90363351701E+03 0.  0.
         23    2    4    4    0    0  0.73719476517E+02  0.59989126538E+03 -0.62420606680E+03  0.87388192054E+03  0.93446806928E+02 0.  0.
         23    2    4    4    0    0 -0.36042734984E+03 -0.71977404093E+02 -0.10973743224E+04  0.11611333175E+04  0.94401039949E+02 0.  0.
          2    1    3    3  502    0  0.24613527115E+03 -0.46536072250E+03 -0.80553015907E+03  0.96230037458E+03  0.00000000000E+00 0. -1.
         -1    1    3    3    0  502  0.40572602175E+02 -0.62553138788E+02 -0.68280205492E+02  0.10110003799E+03  0.00000000000E+00 0.  1.
         13    1    5    5    0    0  0.81122921151E+02  0.53286912572E+03 -0.51471535553E+03  0.74529345274E+03  0.00000000000E+00 0. -1.
        -13    1    5    5    0    0 -0.74034446341E+01  0.67022139663E+02 -0.10949071127E+03  0.12858846781E+03  0.00000000000E+00 0.  1.
          4    1    6    6  503    0 -0.31199448078E+03 -0.85665770121E+02 -0.86892131222E+03  0.92720193434E+03  0.00000000000E+00 0. -1.
         -4    1    6    6    0  503 -0.48432869059E+02  0.13688366028E+02 -0.22845301021E+03  0.23393138320E+03  0.00000000000E+00 0.  1.
<mgrwt>
<rscale>  0 0.16923730E+04</rscale>
<asrwt>0</asrwt>
<pdfrwt beam="1">  1        2 0.43798510E+00 0.16923730E+04</pdfrwt>
<pdfrwt beam="2">  1       -1 0.38694224E-01 0.16923730E+04</pdfrwt>
<totfact> 0.15250272E+01</totfact>
</mgrwt>
</event>
<event>
12    7  0.1544987E-007  0.1897915E+04  0.7818608E-02  0.8655895E-01
         -1   -1    0    0    0  501 -0.00000000000E+00  0.00000000000E+00  0.71903509189E+03  0.71903509189E+03  0.00000000000E+00 0.  1.
          2   -1    0    0  501    0  0.00000000000E+00 -0.00000000000E+00 -0.12524014646E+04  0.12524014646E+04  0.00000000000E+00 0. -1.
         24    2    1    2    0    0 -0.30000421649E+03 -0.47064602148E+03  0.28956360823E+03  0.63309959606E+03  0.73876977971E+02 0.  0.
        254    2    1    2    0    0  0.30000421649E+03  0.47064602148E+03 -0.82292998089E+03  0.13383369604E+04  0.89578002806E+03 0.  0.
         23    2    4    4    0    0 -0.21029735483E+03  0.44033311761E+02 -0.57806922878E+03  0.62370827184E+03  0.93188331401E+02 0.  0.
         23    2    4    4    0    0  0.51030157132E+03  0.42661270972E+03 -0.24486075211E+03  0.71462868855E+03  0.91275828087E+02 0.  0.
          4    1    3    3  502    0 -0.25351150698E+02 -0.15456086446E+02  0.27141718411E+02  0.40227407675E+02  0.00000000000E+00 0. -1.
         -3    1    3    3    0  502 -0.27465306579E+03 -0.45518993503E+03  0.26242188982E+03  0.59287218838E+03  0.00000000000E+00 0.  1.
         13    1    5    5    0    0 -0.11730437701E+03  0.25092029653E+02 -0.44077294908E+03  0.45680490306E+03  0.00000000000E+00 0.  1.
        -13    1    5    5    0    0 -0.92992977820E+02  0.18941282108E+02 -0.13729627970E+03  0.16690336878E+03  0.00000000000E+00 0. -1.
          2    1    6    6  503    0  0.18230529110E+03  0.10127522416E+03 -0.92839806615E+02  0.22827860146E+03  0.00000000000E+00 0. -1.
         -2    1    6    6    0  503  0.32799628022E+03  0.32533748555E+03 -0.15202094550E+03  0.48635008709E+03  0.00000000000E+00 0.  1.
<mgrwt>
<rscale>  0 0.18979153E+04</rscale>
<asrwt>0</asrwt>
<pdfrwt beam="1">  1        2 0.19267715E+00 0.18979153E+04</pdfrwt>
<pdfrwt beam="2">  1       -1 0.11062078E+00 0.18979153E+04</pdfrwt>
<totfact> 0.14179658E+01</totfact>
</mgrwt>
</event>
<event>
12    7  0.1544987E-007  0.1429246E+04  0.7818608E-02  0.8932917E-01
         -1   -1    0    0    0  501 -0.00000000000E+00  0.00000000000E+00  0.28244677691E+03  0.28244677691E+03  0.00000000000E+00 0.  1.
          2   -1    0    0  501    0  0.00000000000E+00 -0.00000000000E+00 -0.18080784152E+04  0.18080784152E+04  0.00000000000E+00 0. -1.
         24    2    1    2    0    0  0.60532359097E+02 -0.24417065843E+03  0.38779357615E+02  0.26569598565E+03  0.76203945282E+02 0.  0.
        254    2    1    2    0    0 -0.60532359097E+02  0.24417065843E+03 -0.15644109959E+04  0.18248292065E+04  0.90517202328E+03 0.  0.
         23    2    4    4    0    0  0.34726417391E+03  0.58839214937E+02 -0.27755840525E+03  0.45914742936E+03  0.98606459597E+02 0.  0.
         23    2    4    4    0    0 -0.40779653300E+03  0.18533144349E+03 -0.12868525907E+04  0.13656817771E+04  0.91931332811E+02 0.  0.
          4    1    3    3  502    0  0.30135818455E+01 -0.41144895124E+02 -0.21114376547E+02  0.46344373631E+02  0.00000000000E+00 0. -1.
         -3    1    3    3    0  502  0.57518777251E+02 -0.20302576330E+03  0.59893734162E+02  0.21935161201E+03  0.00000000000E+00 0.  1.
         13    1    5    5    0    0  0.20924804405E+02 -0.13539215811E+02 -0.46611411818E+02  0.52856234408E+02  0.00000000000E+00 0. -1.
        -13    1    5    5    0    0  0.32633936950E+03  0.72378430748E+02 -0.23094699343E+03  0.40629119496E+03  0.00000000000E+00 0.  1.
          2    1    6    6  503    0 -0.31762938412E+03  0.15290202366E+03 -0.88640571384E+03  0.95393005196E+03  0.00000000000E+00 0.  1.
         -2    1    6    6    0  503 -0.90167148884E+02  0.32429419829E+02 -0.40044687683E+03  0.41175172516E+03  0.00000000000E+00 0. -1.
<mgrwt>
<rscale>  0 0.14292458E+04</rscale>
<asrwt>0</asrwt>
<pdfrwt beam="1">  1        2 0.27816591E+00 0.14292458E+04</pdfrwt>
<pdfrwt beam="2">  1       -1 0.43453350E-01 0.14292458E+04</pdfrwt>
<totfact> 0.49399355E+01</totfact>
</mgrwt>
</event>
<event>
12    7  0.1544987E-007  0.1696636E+04  0.7818608E-02  0.8763285E-01
          2   -1    0    0  501    0  0.00000000000E+00  0.00000000000E+00  0.27581648791E+04  0.27581648791E+04  0.00000000000E+00 0. -1.
         -1   -1    0    0    0  501 -0.00000000000E+00 -0.00000000000E+00 -0.26091386077E+03  0.26091386077E+03  0.00000000000E+00 0.  1.
         24    2    1    2    0    0  0.33221760335E+03 -0.17105393824E+03  0.47963241285E+02  0.38545063937E+03  0.81509122881E+02 0.  0.
        254    2    1    2    0    0 -0.33221760335E+03  0.17105393824E+03  0.24492877770E+04  0.26336281005E+04  0.89294925455E+03 0.  0.
         23    2    4    4    0    0 -0.65654360564E+02  0.11691306663E+03  0.23077984832E+04  0.23134763749E+04  0.90884201079E+02 0.  0.
         23    2    4    4    0    0 -0.26656324279E+03  0.54140871607E+02  0.14148929385E+03  0.32015172560E+03  0.92145052734E+02 0.  0.
          2    1    3    3  502    0  0.12664942911E+03 -0.79865333755E+02  0.57433001708E+02  0.16036551722E+03  0.00000000000E+00 0. -1.
         -1    1    3    3    0  502  0.20556817424E+03 -0.91188604483E+02 -0.94697604230E+01  0.22508512215E+03  0.00000000000E+00 0.  1.
         13    1    5    5    0    0  0.21658035091E+02  0.20971885497E+02  0.60073534428E+03  0.60149135018E+03  0.00000000000E+00 0. -1.
        -13    1    5    5    0    0 -0.87312395655E+02  0.95941181135E+02  0.17070631389E+04  0.17119850247E+04  0.00000000000E+00 0.  1.
          3    1    6    6  503    0 -0.40399103406E+01  0.17808223346E+02  0.24239793194E+02  0.30348332218E+02  0.00000000000E+00 0. -1.
         -3    1    6    6    0  503 -0.26252333245E+03  0.36332648260E+02  0.11724950066E+03  0.28980339338E+03  0.00000000000E+00 0.  1.
<mgrwt>
<rscale>  0 0.16966360E+04</rscale>
<asrwt>0</asrwt>
<pdfrwt beam="1">  1        2 0.42433304E+00 0.16966360E+04</pdfrwt>
<pdfrwt beam="2">  1       -1 0.40140596E-01 0.16966360E+04</pdfrwt>
<totfact> 0.16124422E+01</totfact>
</mgrwt>
</event>
<event>
12    7  0.1544987E-007  0.2417244E+04  0.7818608E-02  0.8433076E-01
          2   -1    0    0  501    0  0.00000000000E+00  0.00000000000E+00  0.10737247634E+04  0.10737247634E+04  0.00000000000E+00 0. -1.
         -1   -1    0    0    0  501 -0.00000000000E+00 -0.00000000000E+00 -0.13604669706E+04  0.13604669706E+04  0.00000000000E+00 0.  1.
         24    2    1    2    0    0 -0.51781673818E+03  0.57460320048E+03  0.57720453975E+03  0.96846951339E+03  0.80405878688E+02 0.  0.
        254    2    1    2    0    0  0.51781673818E+03 -0.57460320048E+03 -0.86394674701E+03  0.14657222206E+04  0.89645671064E+03 0.  0.
         23    2    4    4    0    0  0.59119760564E+03 -0.38525198685E+03 -0.98333849372E+03  0.12137290980E+04  0.90829663220E+02 0.  0.
         23    2    4    4    0    0 -0.73380867457E+02 -0.18935121363E+03  0.11939174671E+03  0.25199312267E+03  0.89484696350E+02 0.  0.
          2    1    3    3  502    0 -0.34596388941E+03  0.41097785613E+03  0.43974400837E+03  0.69423958682E+03  0.00000000000E+00 0. -1.
         -1    1    3    3    0  502 -0.17185284878E+03  0.16362534434E+03  0.13746053138E+03  0.27422992658E+03  0.00000000000E+00 0.  1.
         13    1    5    5    0    0  0.13624857047E+03 -0.52477842441E+02 -0.16887930068E+03  0.22324384673E+03  0.00000000000E+00 0.  1.
        -13    1    5    5    0    0  0.45494903517E+03 -0.33277414441E+03 -0.81445919303E+03  0.99048525123E+03  0.00000000000E+00 0. -1.
          3    1    6    6  503    0 -0.53594193949E+02 -0.84836866556E+02  0.10399274903E+03  0.14451340216E+03  0.00000000000E+00 0. -1.
         -3    1    6    6    0  503 -0.19786673507E+02 -0.10451434707E+03  0.15398997679E+02  0.10747972051E+03  0.00000000000E+00 0.  1.
<mgrwt>
<rscale>  0 0.24172439E+04</rscale>
<asrwt>0</asrwt>
<pdfrwt beam="1">  1        2 0.16518843E+00 0.24172439E+04</pdfrwt>
<pdfrwt beam="2">  1       -1 0.20930261E+00 0.24172439E+04</pdfrwt>
<totfact> 0.30095933E+00</totfact>
</mgrwt>
</event>
<event>
12    7  0.1544987E-007  0.2045290E+04  0.7818608E-02  0.8585734E-01
          2   -1    0    0  501    0  0.00000000000E+00  0.00000000000E+00  0.18375924475E+04  0.18375924475E+04  0.00000000000E+00 0. -1.
         -1   -1    0    0    0  501 -0.00000000000E+00 -0.00000000000E+00 -0.56911590376E+03  0.56911590376E+03  0.00000000000E+00 0.  1.
         24    2    1    2    0    0  0.21747547627E+03  0.36651672578E+02 -0.41002167149E+03  0.47390748949E+03  0.88496381948E+02 0.  0.
        254    2    1    2    0    0 -0.21747547627E+03 -0.36651672578E+02  0.16784982152E+04  0.19328008617E+04  0.93258993391E+03 0.  0.
         23    2    4    4    0    0  0.30635519205E+03 -0.22750271636E+03  0.74204839824E+03  0.83927811073E+03  0.90227114371E+02 0.  0.
         23    2    4    4    0    0 -0.52383066833E+03  0.19085104378E+03  0.93644981696E+03  0.10935227510E+04  0.89616166534E+02 0.  0.
          2    1    3    3  502    0  0.56997695225E+02  0.50563064141E+02 -0.11966549500E+03  0.14186328422E+03  0.00000000000E+00 0. -1.
         -1    1    3    3    0  502  0.16047778105E+03 -0.13911391563E+02 -0.29035617649E+03  0.33204420526E+03  0.00000000000E+00 0.  1.
         13    1    5    5    0    0  0.28011056189E+03 -0.17184240356E+03  0.59185221407E+03  0.67696438742E+03  0.00000000000E+00 0. -1.
        -13    1    5    5    0    0  0.26244630169E+02 -0.55660312799E+02  0.15019618417E+03  0.16231372330E+03  0.00000000000E+00 0.  1.
          1    1    6    6  503    0 -0.41148881836E+03  0.13482897230E+03  0.65308272289E+03  0.78359360790E+03  0.00000000000E+00 0. -1.
         -1    1    6    6    0  503 -0.11234184996E+03  0.56022071478E+02  0.28336709407E+03  0.30992914311E+03  0.00000000000E+00 0.  1.
<mgrwt>
<rscale>  0 0.20452903E+04</rscale>
<asrwt>0</asrwt>
<pdfrwt beam="1">  1        2 0.28270653E+00 0.20452903E+04</pdfrwt>
<pdfrwt beam="2">  1       -1 0.87556294E-01 0.20452903E+04</pdfrwt>
<totfact> 0.11124232E+01</totfact>
</mgrwt>
</event>
<event>
12    7  0.1544987E-007  0.1425281E+04  0.7818608E-02  0.8935719E-01
         -1   -1    0    0    0  501 -0.00000000000E+00  0.00000000000E+00  0.12045804176E+04  0.12045804176E+04  0.00000000000E+00 0.  1.
          2   -1    0    0  501    0  0.00000000000E+00 -0.00000000000E+00 -0.42160471094E+03  0.42160471094E+03  0.00000000000E+00 0. -1.
         24    2    1    2    0    0  0.29784415540E+03 -0.24815699117E+03  0.52961273815E+03  0.66194690174E+03  0.85971013326E+02 0.  0.
        254    2    1    2    0    0 -0.29784415540E+03  0.24815699117E+03  0.25336296847E+03  0.96423822677E+03  0.84573608826E+03 0.  0.
         23    2    4    4    0    0 -0.34265928862E+02  0.35318890629E+03  0.47031837083E+03  0.59573160250E+03  0.88205526277E+02 0.  0.
         23    2    4    4    0    0 -0.26357822654E+03 -0.10503191512E+03 -0.21695540236E+03  0.36850662427E+03  0.90676903428E+02 0.  0.
          4    1    3    3  502    0  0.40850139041E+02 -0.68995281368E+02  0.14694200438E+03  0.16739484867E+03  0.00000000000E+00 0. -1.
         -3    1    3    3    0  502  0.25699401636E+03 -0.17916170981E+03  0.38267073376E+03  0.49455205306E+03  0.00000000000E+00 0.  1.
         13    1    5    5    0    0  0.22095588040E+02  0.20155241789E+03  0.28452208154E+03  0.34937717019E+03  0.00000000000E+00 0. -1.
        -13    1    5    5    0    0 -0.56361516902E+02  0.15163648840E+03  0.18579628930E+03  0.24635443231E+03  0.00000000000E+00 0.  1.
          1    1    6    6  503    0 -0.13608159164E+03 -0.69809928320E+02 -0.16869511202E+03  0.22770521842E+03  0.00000000000E+00 0. -1.
         -1    1    6    6    0  503 -0.12749663490E+03 -0.35221986795E+02 -0.48260290339E+02  0.14080140585E+03  0.00000000000E+00 0.  1.
<mgrwt>
<rscale>  0 0.14252814E+04</rscale>
<asrwt>0</asrwt>
<pdfrwt beam="1">  1        2 0.64862264E-01 0.14252814E+04</pdfrwt>
<pdfrwt beam="2">  1       -1 0.18532006E+00 0.14252814E+04</pdfrwt>
<totfact> 0.15874288E+01</totfact>
</mgrwt>
</event>
<event>
12    7  0.1544987E-007  0.1625031E+04  0.7818608E-02  0.8805317E-01
         -1   -1    0    0    0  501 -0.00000000000E+00  0.00000000000E+00  0.14737555153E+03  0.14737555153E+03  0.00000000000E+00 0.  1.
          2   -1    0    0  501    0  0.00000000000E+00 -0.00000000000E+00 -0.44795839370E+04  0.44795839370E+04  0.00000000000E+00 0. -1.
         24    2    1    2    0    0  0.27581344524E+03 -0.23852102832E+03 -0.27080927199E+04  0.27337199669E+04  0.80581265277E+02 0.  0.
        254    2    1    2    0    0 -0.27581344524E+03  0.23852102832E+03 -0.16241156656E+04  0.18932395217E+04  0.90201931998E+03 0.  0.
         23    2    4    4    0    0 -0.59140256770E+03  0.84224988494E+02 -0.92305013544E+03  0.11038052664E+04  0.97538032481E+02 0.  0.
         23    2    4    4    0    0  0.31558912246E+03  0.15429603982E+03 -0.70106553017E+03  0.78943425529E+03  0.91158124814E+02 0.  0.
          2    1    3    3  502    0  0.22056738984E+03 -0.17972092910E+03 -0.23161160718E+04  0.23335259252E+04  0.00000000000E+00 0. -1.
         -1    1    3    3    0  502  0.55246055397E+02 -0.58800099222E+02 -0.39197664812E+03  0.40019404166E+03  0.00000000000E+00 0.  1.
         13    1    5    5    0    0 -0.54623841009E+03  0.10354360607E+03 -0.84025898316E+03  0.10075380081E+04  0.00000000000E+00 0.  1.
        -13    1    5    5    0    0 -0.45164157611E+02 -0.19318617577E+02 -0.82791152280E+02  0.96267258264E+02  0.00000000000E+00 0. -1.
          2    1    6    6  503    0  0.17942135454E+03  0.38363988850E+02 -0.33210188340E+03  0.37941465320E+03  0.00000000000E+00 0.  1.
         -2    1    6    6    0  503  0.13616776792E+03  0.11593205097E+03 -0.36896364677E+03  0.41001960209E+03  0.00000000000E+00 0. -1.
<mgrwt>
<rscale>  0 0.16250306E+04</rscale>
<asrwt>0</asrwt>
<pdfrwt beam="1">  1        2 0.68916683E+00 0.16250306E+04</pdfrwt>
<pdfrwt beam="2">  1       -1 0.22673160E-01 0.16250306E+04</pdfrwt>
<totfact> 0.23927157E+00</totfact>
</mgrwt>
</event>
<event>
12    7  0.1544987E-007  0.2076850E+04  0.7818608E-02  0.8571510E-01
          2   -1    0    0  501    0  0.00000000000E+00  0.00000000000E+00  0.20093176827E+04  0.20093176827E+04  0.00000000000E+00 0. -1.
         -1   -1    0    0    0  501 -0.00000000000E+00 -0.00000000000E+00 -0.53666322190E+03  0.53666322190E+03  0.00000000000E+00 0.  1.
         24    2    1    2    0    0  0.19166815227E+03  0.71298883576E+03  0.12081194501E+03  0.75184838378E+03  0.74771021289E+02 0.  0.
        254    2    1    2    0    0 -0.19166815227E+03 -0.71298883576E+03  0.13518425158E+04  0.17941325208E+04  0.91996932246E+03 0.  0.
         23    2    4    4    0    0 -0.12092498593E+03 -0.82634807785E+03  0.13930188878E+04  0.16266993967E+04  0.90417406237E+02 0.  0.
         23    2    4    4    0    0 -0.70743166339E+02  0.11335924209E+03 -0.41176372021E+02  0.16743312415E+03  0.92105613824E+02 0.  0.
          2    1    3    3  502    0  0.13448958290E+03  0.43234260158E+03  0.10619172520E+03  0.46506371128E+03  0.00000000000E+00 0. -1.
         -1    1    3    3    0  502  0.57178569373E+02  0.28064623418E+03  0.14620219816E+02  0.28678467250E+03  0.00000000000E+00 0.  1.
         13    1    5    5    0    0 -0.95671460701E+02 -0.72010834574E+03  0.12619655049E+04  0.14561133176E+04  0.00000000000E+00 0. -1.
        -13    1    5    5    0    0 -0.25253525230E+02 -0.10623973211E+03  0.13105338285E+03  0.17058607907E+03  0.00000000000E+00 0.  1.
          1    1    6    6  503    0 -0.43796861849E+02  0.77736967244E+02 -0.70743453137E+02  0.11386763081E+03  0.00000000000E+00 0. -1.
         -1    1    6    6    0  503 -0.26946304490E+02  0.35622274850E+02  0.29567081116E+02  0.53565493341E+02  0.00000000000E+00 0.  1.
<mgrwt>
<rscale>  0 0.20768504E+04</rscale>
<asrwt>0</asrwt>
<pdfrwt beam="1">  1        2 0.30912579E+00 0.20768504E+04</pdfrwt>
<pdfrwt beam="2">  1       -1 0.82563574E-01 0.20768504E+04</pdfrwt>
<totfact> 0.10116504E+01</totfact>
</mgrwt>
</event>
<event>
12    7  0.1544987E-007  0.1771238E+04  0.7818608E-02  0.8721746E-01
          2   -1    0    0  501    0  0.00000000000E+00  0.00000000000E+00  0.13593753987E+04  0.13593753987E+04  0.00000000000E+00 0. -1.
         -1   -1    0    0    0  501 -0.00000000000E+00 -0.00000000000E+00 -0.57697189196E+03  0.57697189196E+03  0.00000000000E+00 0.  1.
         24    2    1    2    0    0  0.28990995885E+03 -0.57764034328E+03  0.41944562979E+03  0.77474192285E+03  0.81081812073E+02 0.  0.
        254    2    1    2    0    0 -0.28990995885E+03  0.57764034328E+03  0.36295787696E+03  0.11616053678E+04  0.89435589096E+03 0.  0.
         23    2    4    4    0    0 -0.41261753097E+03  0.52061768684E+03 -0.94956377478E+02  0.67637929442E+03  0.84712653020E+02 0.  0.
         23    2    4    4    0    0  0.12270757213E+03  0.57022656447E+02  0.45791425444E+03  0.48522607341E+03  0.86314229944E+02 0.  0.
          4    1    3    3  502    0  0.14299839725E+03 -0.30595763986E+03  0.26579437827E+03  0.42977351073E+03  0.00000000000E+00 0. -1.
         -3    1    3    3    0  502  0.14691156159E+03 -0.27168270342E+03  0.15365125153E+03  0.34496841213E+03  0.00000000000E+00 0.  1.
         13    1    5    5    0    0 -0.22724260169E+03  0.22758915005E+03 -0.66945647092E+02  0.32850835744E+03  0.00000000000E+00 0. -1.
        -13    1    5    5    0    0 -0.18537492929E+03  0.29302853679E+03 -0.28010730386E+02  0.34787093698E+03  0.00000000000E+00 0.  1.
          3    1    6    6  503    0 -0.11581217363E+02 -0.48646999992E+01  0.32142728090E+02  0.34510069122E+02  0.00000000000E+00 0.  1.
         -3    1    6    6    0  503  0.13428878949E+03  0.61887356446E+02  0.42577152635E+03  0.45071600429E+03  0.00000000000E+00 0. -1.
<mgrwt>
<rscale>  0 0.17712384E+04</rscale>
<asrwt>0</asrwt>
<pdfrwt beam="1">  1        2 0.20913468E+00 0.17712384E+04</pdfrwt>
<pdfrwt beam="2">  1       -1 0.88764907E-01 0.17712384E+04</pdfrwt>
<totfact> 0.20510845E+01</totfact>
</mgrwt>
</event>
<event>
12    7  0.1544987E-007  0.1447827E+04  0.7818608E-02  0.8919908E-01
          2   -1    0    0  501    0  0.00000000000E+00  0.00000000000E+00  0.60528550021E+03  0.60528550021E+03  0.00000000000E+00 0. -1.
         -1   -1    0    0    0  501 -0.00000000000E+00 -0.00000000000E+00 -0.86579083783E+03  0.86579083783E+03  0.00000000000E+00 0.  1.
         24    2    1    2    0    0  0.19683808130E+03  0.26171187114E+03  0.19361170806E+03  0.38877452834E+03  0.80136175585E+02 0.  0.
        254    2    1    2    0    0 -0.19683808130E+03 -0.26171187114E+03 -0.45411704569E+03  0.10823018097E+04  0.92623786489E+03 0.  0.
         23    2    4    4    0    0 -0.16085980047E+03 -0.57845106590E+03 -0.44149149777E+03  0.75065125020E+03  0.89894637008E+02 0.  0.
         23    2    4    4    0    0 -0.35978280828E+02  0.31673919476E+03 -0.12625547917E+02  0.33165055951E+03  0.90634071816E+02 0.  0.
          2    1    3    3  502    0  0.15302029509E+03  0.24731357466E+03  0.17148866754E+03  0.33762046445E+03  0.00000000000E+00 0. -1.
         -1    1    3    3    0  502  0.43817786214E+02  0.14398296480E+02  0.22123040528E+02  0.51154063890E+02  0.00000000000E+00 0.  1.
         13    1    5    5    0    0 -0.28574709743E+02 -0.50405703460E+02 -0.17121261778E+02  0.60418429167E+02  0.00000000000E+00 0.  1.
        -13    1    5    5    0    0 -0.13228509073E+03 -0.52804536244E+03 -0.42437023600E+03  0.69023282103E+03  0.00000000000E+00 0. -1.
          2    1    6    6  503    0  0.80564876475E+01  0.24727928501E+03 -0.24229142156E+02  0.24859405287E+03  0.00000000000E+00 0. -1.
         -2    1    6    6    0  503 -0.44034768476E+02  0.69459909744E+02  0.11603594239E+02  0.83056506642E+02  0.00000000000E+00 0.  1.
<mgrwt>
<rscale>  0 0.14478268E+04</rscale>
<asrwt>0</asrwt>
<pdfrwt beam="1">  1        2 0.93120847E-01 0.14478268E+04</pdfrwt>
<pdfrwt beam="2">  1       -1 0.13319859E+00 0.14478268E+04</pdfrwt>
<totfact> 0.25935935E+01</totfact>
</mgrwt>
</event>
<event>
12    7  0.1694971E-007  0.2253298E+04  0.7818608E-02  0.8496566E-01
         -1   -1    0    0    0  501 -0.00000000000E+00  0.00000000000E+00  0.82261984881E+03  0.82261984881E+03  0.00000000000E+00 0.  1.
          2   -1    0    0  501    0  0.00000000000E+00 -0.00000000000E+00 -0.15430429966E+04  0.15430429966E+04  0.00000000000E+00 0. -1.
         24    2    1    2    0    0 -0.46653757237E+02  0.85522802906E+03  0.11573459306E+03  0.86801465682E+03  0.80395234071E+02 0.  0.
        254    2    1    2    0    0  0.46653757237E+02 -0.85522802906E+03 -0.83615774085E+03  0.14976481886E+04  0.90011042349E+03 0.  0.
         23    2    4    4    0    0  0.45559992669E+03 -0.57292391766E+03 -0.49904660095E+03  0.89039885812E+03  0.89160013410E+02 0.  0.
         23    2    4    4    0    0 -0.40894616945E+03 -0.28230411140E+03 -0.33711113990E+03  0.60724933048E+03  0.90417077464E+02 0.  0.
          2    1    3    3  502    0  0.88006291758E+01  0.10569186596E+02  0.28190943518E+01  0.14039447003E+02  0.00000000000E+00 0. -1.
         -1    1    3    3    0  502 -0.55454386412E+02  0.84465884246E+03  0.11291549871E+03  0.85397520981E+03  0.00000000000E+00 0.  1.
         13    1    5    5    0    0  0.55213850240E+02 -0.87666650510E+02 -0.10797736274E+03  0.14964331503E+03  0.00000000000E+00 0. -1.
        -13    1    5    5    0    0  0.40038607645E+03 -0.48525726715E+03 -0.39106923821E+03  0.74075554308E+03  0.00000000000E+00 0.  1.
          2    1    6    6  503    0 -0.11653401311E+03 -0.52427861548E+02 -0.49366040511E+02  0.13698855001E+03  0.00000000000E+00 0. -1.
         -2    1    6    6    0  503 -0.29241215634E+03 -0.22987624985E+03 -0.28774509939E+03  0.47026078047E+03  0.00000000000E+00 0.  1.
<mgrwt>
<rscale>  0 0.22532978E+04</rscale>
<asrwt>0</asrwt>
<pdfrwt beam="1">  1        2 0.23739123E+00 0.22532978E+04</pdfrwt>
<pdfrwt beam="2">  1       -1 0.12655690E+00 0.22532978E+04</pdfrwt>
<totfact> 0.67519329E+00</totfact>
</mgrwt>
</event>
<event>
12    7  0.1544987E-007  0.2285317E+04  0.7818608E-02  0.8483733E-01
          2   -1    0    0  501    0  0.00000000000E+00  0.00000000000E+00  0.15408983628E+04  0.15408983628E+04  0.00000000000E+00 0. -1.
         -1   -1    0    0    0  501 -0.00000000000E+00 -0.00000000000E+00 -0.84734257235E+03  0.84734257235E+03  0.00000000000E+00 0.  1.
         24    2    1    2    0    0 -0.47442466482E+03 -0.84562934257E+03  0.30941904997E+03  0.10198670656E+04  0.64968726464E+02 0.  0.
        254    2    1    2    0    0  0.47442466482E+03  0.84562934257E+03  0.38413674052E+03  0.13683738696E+04  0.88584325020E+03 0.  0.
         23    2    4    4    0    0 -0.23830770686E+03  0.90834339466E+02  0.91509265507E+02  0.28627616443E+03  0.92404849820E+02 0.  0.
         23    2    4    4    0    0  0.71273237168E+03  0.75479500310E+03  0.29262747501E+03  0.10820977052E+04  0.87187579499E+02 0.  0.
          2    1    3    3  502    0 -0.21054422141E+03 -0.40594749023E+03  0.17606455647E+03  0.49002138937E+03  0.00000000000E+00 0. -1.
         -1    1    3    3    0  502 -0.26388044342E+03 -0.43968185234E+03  0.13335449350E+03  0.52984567624E+03  0.00000000000E+00 0.  1.
         13    1    5    5    0    0 -0.17391911646E+03  0.77118156117E+02  0.23623024628E+02  0.19171102307E+03  0.00000000000E+00 0.  1.
        -13    1    5    5    0    0 -0.64388590395E+02  0.13716183349E+02  0.67886240879E+02  0.94565141355E+02  0.00000000000E+00 0. -1.
          1    1    6    6  503    0  0.41782901751E+01  0.24747267303E+01  0.93229695945E+01  0.10511904834E+02  0.00000000000E+00 0. -1.
         -1    1    6    6    0  503  0.70855408151E+03  0.75232027637E+03  0.28330450542E+03  0.10715858003E+04  0.00000000000E+00 0.  1.
<mgrwt>
<rscale>  0 0.22853173E+04</rscale>
<asrwt>0</asrwt>
<pdfrwt beam="1">  1        2 0.23706129E+00 0.22853173E+04</pdfrwt>
<pdfrwt beam="2">  1       -1 0.13036040E+00 0.22853173E+04</pdfrwt>
<totfact> 0.62677897E+00</totfact>
</mgrwt>
</event>
<event>
12    7  0.1544987E-007  0.2590757E+04  0.7818608E-02  0.8371348E-01
          2   -1    0    0  501    0  0.00000000000E+00  0.00000000000E+00  0.10178357701E+04  0.10178357701E+04  0.00000000000E+00 0. -1.
         -1   -1    0    0    0  501 -0.00000000000E+00 -0.00000000000E+00 -0.16486013466E+04  0.16486013466E+04  0.00000000000E+00 0.  1.
         24    2    1    2    0    0  0.86519231665E+02 -0.10400807264E+03 -0.14355790403E+04  0.14442802145E+04  0.82188201661E+02 0.  0.
        254    2    1    2    0    0 -0.86519231665E+02  0.10400807264E+03  0.80481346383E+03  0.12221569021E+04  0.90974695669E+03 0.  0.
         23    2    4    4    0    0  0.36284710729E+03  0.38469077407E+02  0.11792495894E+03  0.39360569153E+03  0.88776411705E+02 0.  0.
         23    2    4    4    0    0 -0.44936633896E+03  0.65538995236E+02  0.68688850489E+03  0.82855121059E+03  0.91955554075E+02 0.  0.
          2    1    3    3  502    0  0.81824044227E+01  0.24864103919E+01 -0.42553828093E+03  0.42562420339E+03  0.00000000000E+00 0. -1.
         -1    1    3    3    0  502  0.78336827242E+02 -0.10649448304E+03 -0.10100407594E+04  0.10186560111E+04  0.00000000000E+00 0.  1.
         13    1    5    5    0    0  0.15879050162E+03 -0.12961485196E+02  0.17016993159E+02  0.16022484689E+03  0.00000000000E+00 0. -1.
        -13    1    5    5    0    0  0.20405660567E+03  0.51430562604E+02  0.10090796578E+03  0.23338084464E+03  0.00000000000E+00 0.  1.
          4    1    6    6  503    0 -0.31813456854E+03  0.54082812641E+02  0.55593179313E+03  0.64280223470E+03  0.00000000000E+00 0. -1.
         -4    1    6    6    0  503 -0.13123177042E+03  0.11456182595E+02  0.13095671176E+03  0.18574897588E+03  0.00000000000E+00 0.  1.
<mgrwt>
<rscale>  0 0.25907570E+04</rscale>
<asrwt>0</asrwt>
<pdfrwt beam="1">  1        2 0.15659012E+00 0.25907570E+04</pdfrwt>
<pdfrwt beam="2">  1       -1 0.25363097E+00 0.25907570E+04</pdfrwt>
<totfact> 0.16343341E+00</totfact>
</mgrwt>
</event>
<event>
12    7  0.1544987E-007  0.1138799E+04  0.7818608E-02  0.9168180E-01
          2   -1    0    0  501    0  0.00000000000E+00  0.00000000000E+00  0.26811801100E+04  0.26811801100E+04  0.00000000000E+00 0. -1.
         -1   -1    0    0    0  501 -0.00000000000E+00 -0.00000000000E+00 -0.12092272882E+03  0.12092272882E+03  0.00000000000E+00 0.  1.
         24    2    1    2    0    0  0.19325184683E+03  0.36420243533E+02  0.36954538862E+03  0.42655246136E+03  0.81917626895E+02 0.  0.
        254    2    1    2    0    0 -0.19325184683E+03 -0.36420243533E+02  0.21907119925E+04  0.23755503774E+04  0.89741175111E+03 0.  0.
         23    2    4    4    0    0 -0.10383793538E+03  0.28662242036E+03  0.18885631131E+04  0.19151045163E+04  0.89554159338E+02 0.  0.
         23    2    4    4    0    0 -0.89413911453E+02 -0.32304266390E+03  0.30214887941E+03  0.46044586112E+03  0.91460567652E+02 0.  0.
          2    1    3    3  502    0  0.45853400485E+02 -0.24385656978E+01  0.16613165687E+03  0.17236069260E+03  0.00000000000E+00 0. -1.
         -1    1    3    3    0  502  0.14739844634E+03  0.38858809231E+02  0.20341373175E+03  0.25419176876E+03  0.00000000000E+00 0.  1.
         13    1    5    5    0    0 -0.96690838955E+02  0.26157730277E+03  0.18284056358E+04  0.18495510192E+04  0.00000000000E+00 0.  1.
        -13    1    5    5    0    0 -0.71470964204E+01  0.25045117598E+02  0.60157477297E+02  0.65553497065E+02  0.00000000000E+00 0. -1.
          2    1    6    6  503    0 -0.81843163913E+02 -0.13571453124E+03  0.15966535437E+03  0.22496613713E+03  0.00000000000E+00 0. -1.
         -2    1    6    6    0  503 -0.75707475402E+01 -0.18732813266E+03  0.14248352504E+03  0.23547972399E+03  0.00000000000E+00 0.  1.
<mgrwt>
<rscale>  0 0.11387987E+04</rscale>
<asrwt>0</asrwt>
<pdfrwt beam="1">  1        2 0.41248920E+00 0.11387987E+04</pdfrwt>
<pdfrwt beam="2">  1       -1 0.18603499E-01 0.11387987E+04</pdfrwt>
<totfact> 0.71734906E+01</totfact>
</mgrwt>
</event>
<event>
12    7  0.1544987E-007  0.1139825E+04  0.7818608E-02  0.9167222E-01
          2   -1    0    0  501    0  0.00000000000E+00  0.00000000000E+00  0.13605029438E+04  0.13605029438E+04  0.00000000000E+00 0. -1.
         -1   -1    0    0    0  501 -0.00000000000E+00 -0.00000000000E+00 -0.23873535093E+03  0.23873535093E+03  0.00000000000E+00 0.  1.
         24    2    1    2    0    0 -0.13320745438E+03  0.15515765047E+03  0.23044704509E+03  0.31803036574E+03  0.78862859070E+02 0.  0.
        254    2    1    2    0    0  0.13320745438E+03 -0.15515765047E+03  0.89132054774E+03  0.12812079290E+04  0.89734236274E+03 0.  0.
         23    2    4    4    0    0  0.42644539270E+03 -0.30202891339E+03  0.33026551988E+03  0.62497245467E+03  0.91859229242E+02 0.  0.
         23    2    4    4    0    0 -0.29323793832E+03  0.14687126292E+03  0.56105502786E+03  0.65623547428E+03  0.91118587970E+02 0.  0.
          2    1    3    3  502    0 -0.70245795462E+02  0.91356169450E+02  0.18390972001E+03  0.21703273161E+03  0.00000000000E+00 0. -1.
         -1    1    3    3    0  502 -0.62961658918E+02  0.63801481018E+02  0.46537325080E+02  0.10099763413E+03  0.00000000000E+00 0.  1.
         13    1    5    5    0    0  0.50723955929E+02 -0.17117913046E+02  0.87132537334E+01  0.54238947655E+02  0.00000000000E+00 0. -1.
        -13    1    5    5    0    0  0.37572143677E+03 -0.28491100034E+03  0.32155226615E+03  0.57073350702E+03  0.00000000000E+00 0.  1.
          4    1    6    6  503    0 -0.52935840080E+02  0.29419208616E+02  0.46638201537E+02  0.76438307433E+02  0.00000000000E+00 0. -1.
         -4    1    6    6    0  503 -0.24030209824E+03  0.11745205430E+03  0.51441682632E+03  0.57979716685E+03  0.00000000000E+00 0.  1.
<mgrwt>
<rscale>  0 0.11398248E+04</rscale>
<asrwt>0</asrwt>
<pdfrwt beam="1">  1        2 0.20930814E+00 0.11398248E+04</pdfrwt>
<pdfrwt beam="2">  1       -1 0.36728517E-01 0.11398248E+04</pdfrwt>
<totfact> 0.12234932E+02</totfact>
</mgrwt>
</event>
<event>
12    7  0.1544987E-007  0.3850659E+04  0.7818608E-02  0.8035370E-01
          2   -1    0    0  501    0  0.00000000000E+00  0.00000000000E+00  0.16981864729E+04  0.16981864729E+04  0.00000000000E+00 0. -1.
         -1   -1    0    0    0  501 -0.00000000000E+00 -0.00000000000E+00 -0.21828540613E+04  0.21828540613E+04  0.00000000000E+00 0.  1.
         24    2    1    2    0    0 -0.67614716625E+03 -0.15664708708E+04 -0.86878103400E+03  0.19164674750E+04  0.84030458178E+02 0.  0.
        254    2    1    2    0    0  0.67614716625E+03  0.15664708708E+04  0.38411344556E+03  0.19645730593E+04  0.89498502028E+03 0.  0.
         23    2    4    4    0    0  0.38473001379E+02  0.10770395808E+04  0.32058998638E+02  0.10820397756E+04  0.91037718635E+02 0.  0.
         23    2    4    4    0    0  0.63767416487E+03  0.48943129006E+03  0.35205444693E+03  0.88253328365E+03  0.93548569872E+02 0.  0.
          2    1    3    3  502    0 -0.30705995075E+03 -0.81533434466E+03 -0.43389756793E+03  0.97330519694E+03  0.00000000000E+00 0. -1.
         -1    1    3    3    0  502 -0.36908721549E+03 -0.75113652619E+03 -0.43488346607E+03  0.94316227802E+03  0.00000000000E+00 0.  1.
         13    1    5    5    0    0  0.31466744459E+02  0.32508565221E+03  0.46599508864E+02  0.32991264224E+03  0.00000000000E+00 0. -1.
        -13    1    5    5    0    0  0.70062569205E+01  0.75195392857E+03 -0.14540510225E+02  0.75212713338E+03  0.00000000000E+00 0.  1.
          1    1    6    6  503    0  0.34852075174E+03  0.29249117836E+03  0.15305096666E+03  0.48004416693E+03  0.00000000000E+00 0. -1.
         -1    1    6    6    0  503  0.28915341313E+03  0.19694011170E+03  0.19900348026E+03  0.40248911672E+03  0.00000000000E+00 0.  1.
<mgrwt>
<rscale>  0 0.38506588E+04</rscale>
<asrwt>0</asrwt>
<pdfrwt beam="1">  1        2 0.26125946E+00 0.38506588E+04</pdfrwt>
<pdfrwt beam="2">  1       -1 0.33582370E+00 0.38506588E+04</pdfrwt>
<totfact> 0.17218313E-01</totfact>
</mgrwt>
</event>
<event>
12    7  0.1544987E-007  0.1195839E+04  0.7818608E-02  0.9116507E-01
         -1   -1    0    0    0  501 -0.00000000000E+00  0.00000000000E+00  0.20160459151E+03  0.20160459151E+03  0.00000000000E+00 0.  1.
          2   -1    0    0  501    0  0.00000000000E+00 -0.00000000000E+00 -0.17733104760E+04  0.17733104760E+04  0.00000000000E+00 0. -1.
         24    2    1    2    0    0 -0.19818353906E+03  0.12100178017E+02 -0.57429942601E+03  0.61287979420E+03  0.79866651062E+02 0.  0.
        254    2    1    2    0    0  0.19818353906E+03 -0.12100178017E+02 -0.99740645847E+03  0.13620352733E+04  0.90603383651E+03 0.  0.
         23    2    4    4    0    0 -0.45123044440E+02 -0.72547249774E+02 -0.10766108577E+04  0.10839654538E+04  0.92687504582E+02 0.  0.
         23    2    4    4    0    0  0.24330658350E+03  0.60447071757E+02  0.79204399199E+02  0.27806981956E+03  0.90540298414E+02 0.  0.
          2    1    3    3  502    0 -0.18037560216E+03 -0.14973028697E+02 -0.46927391385E+03  0.50296874223E+03  0.00000000000E+00 0. -1.
         -1    1    3    3    0  502 -0.17807936899E+02  0.27073206714E+02 -0.10502551217E+03  0.10991105197E+03  0.00000000000E+00 0.  1.
         13    1    5    5    0    0  0.72065733224E+01  0.11384093468E+02 -0.32525806500E+02  0.35205970681E+02  0.00000000000E+00 0.  1.
        -13    1    5    5    0    0 -0.52329617762E+02 -0.83931343241E+02 -0.10440850512E+04  0.10487594831E+04  0.00000000000E+00 0. -1.
          4    1    6    6  503    0  0.17007116325E+03  0.63763912672E+02  0.92077489679E+02  0.20363767145E+03  0.00000000000E+00 0. -1.
         -4    1    6    6    0  503  0.73235420251E+02 -0.33168409158E+01 -0.12873090481E+02  0.74432148105E+02  0.00000000000E+00 0.  1.
<mgrwt>
<rscale>  0 0.11958387E+04</rscale>
<asrwt>0</asrwt>
<pdfrwt beam="1">  1        2 0.27281699E+00 0.11958387E+04</pdfrwt>
<pdfrwt beam="2">  1       -1 0.31016092E-01 0.11958387E+04</pdfrwt>
<totfact> 0.96616301E+01</totfact>
</mgrwt>
</event>
<event>
12    7  0.1544987E-007  0.2162466E+04  0.7818608E-02  0.8534215E-01
         -1   -1    0    0    0  501 -0.00000000000E+00  0.00000000000E+00  0.11551843577E+04  0.11551843577E+04  0.00000000000E+00 0.  1.
          2   -1    0    0  501    0  0.00000000000E+00 -0.00000000000E+00 -0.10120159799E+04  0.10120159799E+04  0.00000000000E+00 0. -1.
         24    2    1    2    0    0 -0.27995742044E+03 -0.37015719343E+03  0.81834586490E+03  0.94437543296E+03  0.82234412901E+02 0.  0.
        254    2    1    2    0    0  0.27995742044E+03  0.37015719343E+03 -0.67517748705E+03  0.12228249047E+04  0.90776847455E+03 0.  0.
         23    2    4    4    0    0 -0.27737756709E+03 -0.48803543487E+02 -0.31811039475E+03  0.43366989439E+03  0.86920961023E+02 0.  0.
         23    2    4    4    0    0  0.55733498753E+03  0.41896073692E+03 -0.35706709229E+03  0.78915501029E+03  0.95489970475E+02 0.  0.
          2    1    3    3  502    0 -0.43573749961E+02 -0.22682234707E+02  0.61855747394E+02  0.78989169780E+02  0.00000000000E+00 0. -1.
         -1    1    3    3    0  502 -0.23638367048E+03 -0.34747495873E+03  0.75649011751E+03  0.86538626318E+03  0.00000000000E+00 0.  1.
         13    1    5    5    0    0 -0.22057128485E+03 -0.73411920530E+02 -0.24210120953E+03  0.33563968393E+03  0.00000000000E+00 0.  1.
        -13    1    5    5    0    0 -0.56806282240E+02  0.24608377044E+02 -0.76009185230E+02  0.98030210455E+02  0.00000000000E+00 0. -1.
          3    1    6    6  503    0  0.22212048075E+03  0.13758695277E+03 -0.17872537325E+03  0.31656032061E+03  0.00000000000E+00 0. -1.
         -3    1    6    6    0  503  0.33521450679E+03  0.28137378415E+03 -0.17834171904E+03  0.47259468968E+03  0.00000000000E+00 0.  1.
<mgrwt>
<rscale>  0 0.21624662E+04</rscale>
<asrwt>0</asrwt>
<pdfrwt beam="1">  1        2 0.15569477E+00 0.21624662E+04</pdfrwt>
<pdfrwt beam="2">  1       -1 0.17772067E+00 0.21624662E+04</pdfrwt>
<totfact> 0.55925434E+00</totfact>
</mgrwt>
</event>
<event>
12    7  0.1544987E-007  0.2323321E+04  0.7818608E-02  0.8468782E-01
         -1   -1    0    0    0  501 -0.00000000000E+00  0.00000000000E+00  0.80377187391E+03  0.80377187391E+03  0.00000000000E+00 0.  1.
          2   -1    0    0  501    0  0.00000000000E+00 -0.00000000000E+00 -0.16789027808E+04  0.16789027808E+04  0.00000000000E+00 0. -1.
         24    2    1    2    0    0  0.36430990208E+03  0.53087120608E+03  0.43275545306E+03  0.77975974813E+03  0.78753034562E+02 0.  0.
        254    2    1    2    0    0 -0.36430990208E+03 -0.53087120608E+03 -0.13078863599E+04  0.17029149066E+04  0.88023093917E+03 0.  0.
         23    2    4    4    0    0 -0.60596865326E+03 -0.15255105768E+03 -0.73801979809E+03  0.97151871924E+03  0.93303620074E+02 0.  0.
         23    2    4    4    0    0  0.24165875118E+03 -0.37832014840E+03 -0.56986656185E+03  0.73139618733E+03  0.93098860454E+02 0.  0.
          2    1    3    3  502    0  0.15953441398E+02  0.51795180955E+02  0.19885097778E+02  0.57729283525E+02  0.00000000000E+00 0. -1.
         -1    1    3    3    0  502  0.34835646068E+03  0.47907602512E+03  0.41287035528E+03  0.72203046461E+03  0.00000000000E+00 0.  1.
         13    1    5    5    0    0 -0.33610704909E+02 -0.25190685451E+02 -0.27099519336E+02  0.49986338796E+02  0.00000000000E+00 0. -1.
        -13    1    5    5    0    0 -0.57235794835E+03 -0.12736037223E+03 -0.71092027876E+03  0.92153238044E+03  0.00000000000E+00 0.  1.
          1    1    6    6  503    0  0.43969064752E+01 -0.56699080296E+02 -0.95054235758E+02  0.11076744210E+03  0.00000000000E+00 0. -1.
         -1    1    6    6    0  503  0.23726184470E+03 -0.32162106811E+03 -0.47481232610E+03  0.62062874524E+03  0.00000000000E+00 0.  1.
<mgrwt>
<rscale>  0 0.23233208E+04</rscale>
<asrwt>0</asrwt>
<pdfrwt beam="1">  1        2 0.25829273E+00 0.23233208E+04</pdfrwt>
<pdfrwt beam="2">  1       -1 0.12365721E+00 0.23233208E+04</pdfrwt>
<totfact> 0.59683950E+00</totfact>
</mgrwt>
</event>
<event>
12    7  0.1544987E-007  0.2492626E+04  0.7818608E-02  0.8405617E-01
         -1   -1    0    0    0  501 -0.00000000000E+00  0.00000000000E+00  0.55255021845E+03  0.55255021845E+03  0.00000000000E+00 0.  1.
          2   -1    0    0  501    0  0.00000000000E+00 -0.00000000000E+00 -0.28111402714E+04  0.28111402714E+04  0.00000000000E+00 0. -1.
         24    2    1    2    0    0 -0.36205087962E+03  0.87144080621E+03 -0.17089148231E+04  0.19537945299E+04  0.80207695224E+02 0.  0.
        254    2    1    2    0    0  0.36205087962E+03 -0.87144080621E+03 -0.54967522981E+03  0.14098959599E+04  0.89172520501E+03 0.  0.
         23    2    4    4    0    0  0.16628391779E+03  0.89562291117E+02 -0.34496880202E+03  0.40399752346E+03  0.92405515462E+02 0.  0.
         23    2    4    4    0    0  0.19576696183E+03 -0.96100309733E+03 -0.20470642779E+03  0.10058984364E+04  0.89862597318E+02 0.  0.
          2    1    3    3  502    0 -0.26999532301E+03  0.55473249520E+03 -0.11367058417E+04  0.12933390067E+04  0.00000000000E+00 0. -1.
         -1    1    3    3    0  502 -0.92055556610E+02  0.31670831102E+03 -0.57220898136E+03  0.66045552319E+03  0.00000000000E+00 0.  1.
         13    1    5    5    0    0  0.66508502577E+01 -0.12956385535E+02 -0.59354657134E+02  0.61115276803E+02  0.00000000000E+00 0. -1.
        -13    1    5    5    0    0  0.15963306753E+03  0.10251867665E+03 -0.28561414489E+03  0.34288224666E+03  0.00000000000E+00 0.  1.
          4    1    6    6  503    0  0.17398472502E+03 -0.93442567938E+03 -0.19772985093E+03  0.97083424372E+03  0.00000000000E+00 0.  1.
         -4    1    6    6    0  503  0.21782236811E+02 -0.26577417948E+02 -0.69765768593E+01  0.35064192703E+02  0.00000000000E+00 0. -1.
<mgrwt>
<rscale>  0 0.24926261E+04</rscale>
<asrwt>0</asrwt>
<pdfrwt beam="1">  1        2 0.43248313E+00 0.24926261E+04</pdfrwt>
<pdfrwt beam="2">  1       -1 0.85007724E-01 0.24926261E+04</pdfrwt>
<totfact> 0.31628833E+00</totfact>
</mgrwt>
</event>
<event>
12    7  0.1544987E-007  0.1879215E+04  0.7818608E-02  0.8665272E-01
          2   -1    0    0  501    0  0.00000000000E+00  0.00000000000E+00  0.22311934676E+04  0.22311934676E+04  0.00000000000E+00 0. -1.
         -1   -1    0    0    0  501 -0.00000000000E+00 -0.00000000000E+00 -0.39569074159E+03  0.39569074159E+03  0.00000000000E+00 0.  1.
         24    2    1    2    0    0  0.26781460365E+03  0.57579484038E+03  0.11914653401E+04  0.13523731450E+04  0.77840262733E+02 0.  0.
        254    2    1    2    0    0 -0.26781460365E+03 -0.57579484038E+03  0.64403738591E+03  0.12745110642E+04  0.89795876195E+03 0.  0.
         23    2    4    4    0    0  0.90724649426E+02 -0.82651427958E+02  0.64192343515E+03  0.65847353912E+03  0.80370918675E+02 0.  0.
         23    2    4    4    0    0 -0.35853925307E+03 -0.49314341242E+03  0.21139507670E+01  0.61603752508E+03  0.88073505130E+02 0.  0.
          2    1    3    3  502    0  0.10543286635E+03  0.30280281131E+03  0.64502292320E+03  0.72031951472E+03  0.00000000000E+00 0. -1.
         -1    1    3    3    0  502  0.16238173729E+03  0.27299202907E+03  0.54644241687E+03  0.63205363024E+03  0.00000000000E+00 0.  1.
         13    1    5    5    0    0  0.52409283262E+02 -0.91974718058E+02  0.42428145264E+03  0.43728804327E+03  0.00000000000E+00 0.  1.
        -13    1    5    5    0    0  0.38315366164E+02  0.93232900999E+01  0.21764198251E+03  0.22118549585E+03  0.00000000000E+00 0. -1.
          1    1    6    6  503    0 -0.35294391867E+03 -0.48911046402E+03 -0.86899810470E+01  0.60321967102E+03  0.00000000000E+00 0. -1.
         -1    1    6    6    0  503 -0.55953344007E+01 -0.40329484039E+01  0.10803931814E+02  0.12817854053E+02  0.00000000000E+00 0.  1.
<mgrwt>
<rscale>  0 0.18792154E+04</rscale>
<asrwt>0</asrwt>
<pdfrwt beam="1">  1        2 0.34326053E+00 0.18792154E+04</pdfrwt>
<pdfrwt beam="2">  1       -1 0.60875500E-01 0.18792154E+04</pdfrwt>
<totfact> 0.14498980E+01</totfact>
</mgrwt>
</event>
<event>
12    7  0.1544987E-007  0.1217296E+04  0.7818608E-02  0.9097851E-01
         -1   -1    0    0    0  501 -0.00000000000E+00  0.00000000000E+00  0.11345465675E+04  0.11345465675E+04  0.00000000000E+00 0.  1.
          2   -1    0    0  501    0  0.00000000000E+00 -0.00000000000E+00 -0.32652005064E+03  0.32652005064E+03  0.00000000000E+00 0. -1.
         24    2    1    2    0    0 -0.16433159995E+03 -0.10193956011E+03  0.39495970431E+03  0.44642701971E+03  0.76859399163E+02 0.  0.
        254    2    1    2    0    0  0.16433159995E+03  0.10193956011E+03  0.41306681251E+03  0.10146395984E+04  0.90635135261E+03 0.  0.
         23    2    4    4    0    0  0.40512284356E+03  0.32640348923E+03  0.41654151038E+03  0.67346548551E+03  0.96877108494E+02 0.  0.
         23    2    4    4    0    0 -0.24079124360E+03 -0.22446392912E+03 -0.34746978755E+01  0.34117411288E+03  0.89572447251E+02 0.  0.
          2    1    3    3  502    0 -0.67647477177E+01 -0.20232402111E+02  0.12343894494E+02  0.24647183168E+02  0.00000000000E+00 0. -1.
         -1    1    3    3    0  502 -0.15756685224E+03 -0.81707158004E+02  0.38261580982E+03  0.42177983655E+03  0.00000000000E+00 0.  1.
         13    1    5    5    0    0  0.29905453342E+03  0.18848961221E+03  0.30415198787E+03  0.46633719517E+03  0.00000000000E+00 0.  1.
        -13    1    5    5    0    0  0.10606831014E+03  0.13791387703E+03  0.11238952251E+03  0.20712829035E+03  0.00000000000E+00 0. -1.
          3    1    6    6  503    0 -0.88492241454E+02 -0.43569023965E+02 -0.30305573677E+02  0.10318703621E+03  0.00000000000E+00 0. -1.
         -3    1    6    6    0  503 -0.15229900215E+03 -0.18089490515E+03  0.26830875802E+02  0.23798707667E+03  0.00000000000E+00 0.  1.
<mgrwt>
<rscale>  0 0.12172957E+04</rscale>
<asrwt>0</asrwt>
<pdfrwt beam="1">  1        2 0.50233854E-01 0.12172957E+04</pdfrwt>
<pdfrwt beam="2">  1       -1 0.17454562E+00 0.12172957E+04</pdfrwt>
<totfact> 0.25699356E+01</totfact>
</mgrwt>
</event>
<event>
12    7  0.1544987E-007  0.2246351E+04  0.7818608E-02  0.8499380E-01
         -1   -1    0    0    0  501 -0.00000000000E+00  0.00000000000E+00  0.85482286165E+03  0.85482286165E+03  0.00000000000E+00 0.  1.
          2   -1    0    0  501    0  0.00000000000E+00 -0.00000000000E+00 -0.14757712071E+04  0.14757712071E+04  0.00000000000E+00 0. -1.
         24    2    1    2    0    0 -0.60936734343E+02  0.47124345734E+03 -0.10743771367E+04  0.11774630252E+04  0.79682257953E+02 0.  0.
        254    2    1    2    0    0  0.60936734343E+02 -0.47124345734E+03  0.45342879125E+03  0.11531310435E+04  0.94780264460E+03 0.  0.
         23    2    4    4    0    0  0.23532037662E+03  0.21747613349E+03  0.75654567908E+02  0.34225888781E+03  0.93519967639E+02 0.  0.
         23    2    4    4    0    0 -0.17438364228E+03 -0.68871959083E+03  0.37777422334E+03  0.81087215572E+03  0.10027940767E+03 0.  0.
          2    1    3    3  502    0 -0.72364289967E+02  0.44955840779E+03 -0.10392649472E+04  0.11346413455E+04  0.00000000000E+00 0. -1.
         -1    1    3    3    0  502  0.11427555624E+02  0.21685049549E+02 -0.35112189482E+02  0.42821679693E+02  0.00000000000E+00 0.  1.
         13    1    5    5    0    0  0.11413036801E+03  0.16626189532E+03  0.36065609797E+02  0.20486455757E+03  0.00000000000E+00 0. -1.
        -13    1    5    5    0    0  0.12119000860E+03  0.51214238172E+02  0.39588958111E+02  0.13739433024E+03  0.00000000000E+00 0.  1.
          1    1    6    6  503    0 -0.17632010271E+03 -0.61137050955E+03  0.30899229440E+03  0.70734639079E+03  0.00000000000E+00 0. -1.
         -1    1    6    6    0  503  0.19364604310E+01 -0.77349081287E+02  0.68781928944E+02  0.10352576493E+03  0.00000000000E+00 0.  1.
<mgrwt>
<rscale>  0 0.22463508E+04</rscale>
<asrwt>0</asrwt>
<pdfrwt beam="1">  1        2 0.22704172E+00 0.22463508E+04</pdfrwt>
<pdfrwt beam="2">  1       -1 0.13151121E+00 0.22463508E+04</pdfrwt>
<totfact> 0.66937495E+00</totfact>
</mgrwt>
</event>
<event>
12    7  0.1544987E-007  0.1264325E+04  0.7818608E-02  0.9058344E-01
         -1   -1    0    0    0  501 -0.00000000000E+00  0.00000000000E+00  0.27943011469E+03  0.27943011469E+03  0.00000000000E+00 0.  1.
          2   -1    0    0  501    0  0.00000000000E+00 -0.00000000000E+00 -0.14301592651E+04  0.14301592651E+04  0.00000000000E+00 0. -1.
         24    2    1    2    0    0 -0.31005077160E+03 -0.14050738919E+02 -0.21648397712E+03  0.38667006236E+03  0.79495412050E+02 0.  0.
        254    2    1    2    0    0  0.31005077160E+03  0.14050738919E+02 -0.93424517327E+03  0.13229193174E+04  0.88372652579E+03 0.  0.
         23    2    4    4    0    0  0.24009537028E+03  0.40995202962E+03 -0.31018299153E+03  0.57441769920E+03  0.89642353245E+02 0.  0.
         23    2    4    4    0    0  0.69955401326E+02 -0.39590129070E+03 -0.62406218174E+03  0.74850161823E+03  0.95757379106E+02 0.  0.
          4    1    3    3  502    0 -0.13019686072E+03 -0.53153288885E+00 -0.13874853186E+03  0.19026996653E+03  0.00000000000E+00 0. -1.
         -3    1    3    3    0  502 -0.17985391089E+03 -0.13519206030E+02 -0.77735445256E+02  0.19640009583E+03  0.00000000000E+00 0.  1.
         13    1    5    5    0    0  0.71660867085E+02  0.20597733981E+03 -0.15718829470E+03  0.26883099594E+03  0.00000000000E+00 0.  1.
        -13    1    5    5    0    0  0.16843450319E+03  0.20397468981E+03 -0.15299469683E+03  0.30558670326E+03  0.00000000000E+00 0. -1.
          1    1    6    6  503    0  0.85655438865E+02 -0.24336427767E+03 -0.42571415576E+03  0.49779068720E+03  0.00000000000E+00 0. -1.
         -1    1    6    6    0  503 -0.15700037539E+02 -0.15253701303E+03 -0.19834802599E+03  0.25071093102E+03  0.00000000000E+00 0.  1.
<mgrwt>
<rscale>  0 0.12643252E+04</rscale>
<asrwt>0</asrwt>
<pdfrwt beam="1">  1        2 0.22002450E+00 0.12643252E+04</pdfrwt>
<pdfrwt beam="2">  1       -1 0.42989248E-01 0.12643252E+04</pdfrwt>
<totfact> 0.83008646E+01</totfact>
</mgrwt>
</event>
<event>
12    7  0.1544987E-007  0.2534257E+04  0.7818608E-02  0.8390882E-01
          2   -1    0    0  501    0  0.00000000000E+00  0.00000000000E+00  0.12752530203E+04  0.12752530203E+04  0.00000000000E+00 0. -1.
         -1   -1    0    0    0  501 -0.00000000000E+00 -0.00000000000E+00 -0.12590561824E+04  0.12590561824E+04  0.00000000000E+00 0.  1.
         24    2    1    2    0    0 -0.56098747327E+03 -0.94021674385E+03 -0.15942061566E+03  0.11098653980E+04  0.87588803358E+02 0.  0.
        254    2    1    2    0    0  0.56098747327E+03  0.94021674385E+03  0.17561745354E+03  0.14244438046E+04  0.89413879902E+03 0.  0.
         23    2    4    4    0    0 -0.76894139804E+02  0.10987666603E+03 -0.24486419063E+03  0.29234389164E+03  0.86723057204E+02 0.  0.
         23    2    4    4    0    0  0.63788161307E+03  0.83034007782E+03  0.42048164417E+03  0.11320999130E+04  0.92129271868E+02 0.  0.
          4    1    3    3  502    0 -0.10958032563E+03 -0.13127695266E+03 -0.42040650993E+02  0.17609344792E+03  0.00000000000E+00 0. -1.
         -3    1    3    3    0  502 -0.45140714764E+03 -0.80893979119E+03 -0.11737996466E+03  0.93377195011E+03  0.00000000000E+00 0.  1.
         13    1    5    5    0    0 -0.76751687735E+02  0.10800766139E+03 -0.25213750408E+03  0.28483292902E+03  0.00000000000E+00 0. -1.
        -13    1    5    5    0    0 -0.14245206831E+00  0.18690046410E+01  0.72733134499E+01  0.75109626200E+01  0.00000000000E+00 0.  1.
          2    1    6    6  503    0  0.60109805369E+03  0.78972244942E+03  0.41899335801E+03  0.10772816954E+04  0.00000000000E+00 0. -1.
         -2    1    6    6    0  503  0.36783559388E+02  0.40617628403E+02  0.14882861567E+01  0.54818217538E+02  0.00000000000E+00 0.  1.
<mgrwt>
<rscale>  0 0.25342574E+04</rscale>
<asrwt>0</asrwt>
<pdfrwt beam="1">  1        2 0.19619277E+00 0.25342574E+04</pdfrwt>
<pdfrwt beam="2">  1       -1 0.19370095E+00 0.25342574E+04</pdfrwt>
<totfact> 0.28833904E+00</totfact>
</mgrwt>
</event>
<event>
12    7  0.1544987E-007  0.1704140E+04  0.7818608E-02  0.8759007E-01
         -1   -1    0    0    0  501 -0.00000000000E+00  0.00000000000E+00  0.35762018125E+03  0.35762018125E+03  0.00000000000E+00 0.  1.
          2   -1    0    0  501    0  0.00000000000E+00 -0.00000000000E+00 -0.20301520612E+04  0.20301520612E+04  0.00000000000E+00 0. -1.
         24    2    1    2    0    0 -0.41689088526E+03  0.20935882631E+03 -0.49595687516E+02  0.47583128540E+03  0.79539622709E+02 0.  0.
        254    2    1    2    0    0  0.41689088526E+03 -0.20935882631E+03 -0.16229361924E+04  0.19119409570E+04  0.89664218623E+03 0.  0.
         23    2    4    4    0    0 -0.84797591968E+02 -0.22269032543E+03 -0.12632410032E+04  0.12887088749E+04  0.90615227374E+02 0.  0.
         23    2    4    4    0    0  0.50168847723E+03  0.13331499122E+02 -0.35969518924E+03  0.62323208215E+03  0.84667242806E+02 0.  0.
          4    1    3    3  502    0 -0.13989112697E+00 -0.47178670913E+01 -0.55905757940E+00  0.47529343353E+01  0.00000000000E+00 0. -1.
         -3    1    3    3    0  502 -0.41675099414E+03  0.21407669340E+03 -0.49036629937E+02  0.47107835107E+03  0.00000000000E+00 0.  1.
         13    1    5    5    0    0 -0.26642575363E+02 -0.86602927970E+02 -0.71967999379E+03  0.72536141848E+03  0.00000000000E+00 0.  1.
        -13    1    5    5    0    0 -0.58155016605E+02 -0.13608739746E+03 -0.54356100938E+03  0.56334745639E+03  0.00000000000E+00 0. -1.
          4    1    6    6  503    0  0.51076462148E+02 -0.77882937045E+01 -0.10402335959E+02  0.52703615604E+02  0.00000000000E+00 0. -1.
         -4    1    6    6    0  503  0.45061201508E+03  0.21119792826E+02 -0.34929285329E+03  0.57052846655E+03  0.00000000000E+00 0.  1.
<mgrwt>
<rscale>  0 0.17041401E+04</rscale>
<asrwt>0</asrwt>
<pdfrwt beam="1">  1        2 0.31233108E+00 0.17041401E+04</pdfrwt>
<pdfrwt beam="2">  1       -1 0.55018490E-01 0.17041401E+04</pdfrwt>
<totfact> 0.23255125E+01</totfact>
</mgrwt>
</event>
<event>
12    7  0.1544987E-007  0.1757308E+04  0.7818608E-02  0.8729338E-01
         -1   -1    0    0    0  501 -0.00000000000E+00  0.00000000000E+00  0.31177828157E+03  0.31177828157E+03  0.00000000000E+00 0.  1.
          2   -1    0    0  501    0  0.00000000000E+00 -0.00000000000E+00 -0.24762238356E+04  0.24762238356E+04  0.00000000000E+00 0. -1.
         24    2    1    2    0    0 -0.59330738152E+03 -0.99506470533E+02 -0.11871835631E+04  0.13333558866E+04  0.80733642521E+02 0.  0.
        254    2    1    2    0    0  0.59330738152E+03  0.99506470533E+02 -0.97726199092E+03  0.14546462306E+04  0.89389007755E+03 0.  0.
         23    2    4    4    0    0  0.15562139228E+03 -0.10738344750E+03  0.12741572942E+03  0.24508795084E+03  0.89911695628E+02 0.  0.
         23    2    4    4    0    0  0.43768598923E+03  0.20688991803E+03 -0.11046777203E+04  0.12095582798E+04  0.91355914061E+02 0.  0.
          4    1    3    3  502    0 -0.40366895811E+03 -0.44532960986E+02 -0.73011360528E+03  0.83546255988E+03  0.00000000000E+00 0. -1.
         -3    1    3    3    0  502 -0.18963842341E+03 -0.54973509547E+02 -0.45706995786E+03  0.49789332669E+03  0.00000000000E+00 0.  1.
         13    1    5    5    0    0  0.11059291645E+02 -0.32659976629E+02  0.59463855478E+02  0.68738141621E+02  0.00000000000E+00 0. -1.
        -13    1    5    5    0    0  0.14456210064E+03 -0.74723470873E+02  0.67951873940E+02  0.17634980922E+03  0.00000000000E+00 0.  1.
          3    1    6    6  503    0  0.27380387103E+03  0.16883359610E+03 -0.78402051582E+03  0.84744410564E+03  0.00000000000E+00 0. -1.
         -3    1    6    6    0  503  0.16388211820E+03  0.38056321932E+02 -0.32065720451E+03  0.36211417414E+03  0.00000000000E+00 0.  1.
<mgrwt>
<rscale>  0 0.17573080E+04</rscale>
<asrwt>0</asrwt>
<pdfrwt beam="1">  1        2 0.38095751E+00 0.17573080E+04</pdfrwt>
<pdfrwt beam="2">  1       -1 0.47965890E-01 0.17573080E+04</pdfrwt>
<totfact> 0.16855292E+01</totfact>
</mgrwt>
</event>
<event>
12    7  0.1544987E-007  0.2058734E+04  0.7818608E-02  0.8579643E-01
         -1   -1    0    0    0  501 -0.00000000000E+00  0.00000000000E+00  0.97275438636E+03  0.97275438636E+03  0.00000000000E+00 0.  1.
          2   -1    0    0  501    0  0.00000000000E+00 -0.00000000000E+00 -0.10892740312E+04  0.10892740312E+04  0.00000000000E+00 0. -1.
         24    2    1    2    0    0  0.79553014848E+03 -0.11602751475E+03 -0.25596091980E+03  0.84736632336E+03  0.78632640640E+02 0.  0.
        254    2    1    2    0    0 -0.79553014848E+03  0.11602751475E+03  0.13944127499E+03  0.12146620942E+04  0.89979416120E+03 0.  0.
         23    2    4    4    0    0 -0.76284237516E+03 -0.16322264568E+03  0.34059198071E+03  0.85737039854E+03  0.10252307822E+03 0.  0.
         23    2    4    4    0    0 -0.32687773322E+02  0.27925016043E+03 -0.20115070572E+03  0.35729169563E+03  0.90258554918E+02 0.  0.
          4    1    3    3  502    0  0.77547701479E+03 -0.11912619592E+03 -0.23698247597E+03  0.81958303115E+03  0.00000000000E+00 0. -1.
         -3    1    3    3    0  502  0.20053133685E+02  0.30986811702E+01 -0.18978443835E+02  0.27783292209E+02  0.00000000000E+00 0.  1.
         13    1    5    5    0    0 -0.67529168752E+03 -0.14100469482E+03  0.26298325744E+03  0.73828272422E+03  0.00000000000E+00 0. -1.
        -13    1    5    5    0    0 -0.87550687640E+02 -0.22217950857E+02  0.77608723269E+02  0.11908767432E+03  0.00000000000E+00 0.  1.
          3    1    6    6  503    0  0.76376906227E+01  0.15179144653E+03 -0.15174559911E+03  0.21476895587E+03  0.00000000000E+00 0. -1.
         -3    1    6    6    0  503 -0.40325463945E+02  0.12745871389E+03 -0.49405106609E+02  0.14252273976E+03  0.00000000000E+00 0.  1.
<mgrwt>
<rscale>  0 0.20587337E+04</rscale>
<asrwt>0</asrwt>
<pdfrwt beam="1">  1        2 0.16758062E+00 0.20587337E+04</pdfrwt>
<pdfrwt beam="2">  1       -1 0.14965452E+00 0.20587337E+04</pdfrwt>
<totfact> 0.81901158E+00</totfact>
</mgrwt>
</event>
<event>
12    7  0.1865641E-007  0.1757339E+04  0.7818608E-02  0.8729321E-01
          2   -1    0    0  501    0  0.00000000000E+00  0.00000000000E+00  0.18285990424E+04  0.18285990424E+04  0.00000000000E+00 0. -1.
         -1   -1    0    0    0  501 -0.00000000000E+00 -0.00000000000E+00 -0.42221388588E+03  0.42221388588E+03  0.00000000000E+00 0.  1.
         24    2    1    2    0    0  0.42665731808E+03  0.37098885279E+03  0.90850999832E+03  0.10730323020E+04  0.79616004798E+02 0.  0.
        254    2    1    2    0    0 -0.42665731808E+03 -0.37098885279E+03  0.49787515823E+03  0.11777806263E+04  0.90532774974E+03 0.  0.
         23    2    4    4    0    0 -0.29700550788E+03 -0.66349371184E+03  0.35320726789E+03  0.81432986008E+03  0.99707419841E+02 0.  0.
         23    2    4    4    0    0 -0.12965181021E+03  0.29250485906E+03  0.14466789034E+03  0.36345076618E+03  0.93802859645E+02 0.  0.
          4    1    3    3  502    0  0.27048567498E+03  0.23034318046E+03  0.49655476284E+03  0.61056294815E+03  0.00000000000E+00 0. -1.
         -3    1    3    3    0  502  0.15617164311E+03  0.14064567232E+03  0.41195523548E+03  0.46246935390E+03  0.00000000000E+00 0.  1.
         13    1    5    5    0    0 -0.17842283090E+03 -0.48167892376E+03  0.28140613528E+03  0.58569506158E+03  0.00000000000E+00 0. -1.
        -13    1    5    5    0    0 -0.11858267698E+03 -0.18181478809E+03  0.71801132602E+02  0.22863479851E+03  0.00000000000E+00 0.  1.
          3    1    6    6  503    0 -0.13342119770E+03  0.25046060780E+03  0.97289508955E+02  0.29999496763E+03  0.00000000000E+00 0. -1.
         -3    1    6    6    0  503  0.37693874905E+01  0.42044251261E+02  0.47378381387E+02  0.63455798545E+02  0.00000000000E+00 0.  1.
<mgrwt>
<rscale>  0 0.17573388E+04</rscale>
<asrwt>0</asrwt>
<pdfrwt beam="1">  1        2 0.28132292E+00 0.17573388E+04</pdfrwt>
<pdfrwt beam="2">  1       -1 0.64955984E-01 0.17573388E+04</pdfrwt>
<totfact> 0.21567579E+01</totfact>
</mgrwt>
</event>
<event>
12    7  0.1544987E-007  0.3714966E+04  0.7818608E-02  0.8064653E-01
          2   -1    0    0  501    0  0.00000000000E+00  0.00000000000E+00  0.23550218571E+04  0.23550218571E+04  0.00000000000E+00 0. -1.
         -1   -1    0    0    0  501 -0.00000000000E+00 -0.00000000000E+00 -0.14650581560E+04  0.14650581560E+04  0.00000000000E+00 0.  1.
         24    2    1    2    0    0 -0.11801728000E+04  0.26119364132E+03 -0.87925899047E+03  0.14968540555E+04  0.80285334560E+02 0.  0.
        254    2    1    2    0    0  0.11801728000E+04 -0.26119364132E+03  0.17692226916E+04  0.23232259575E+04  0.89788638548E+03 0.  0.
         23    2    4    4    0    0  0.12556403631E+04 -0.15782082633E+03  0.17525512961E+04  0.21636553542E+04  0.91805838224E+02 0.  0.
         23    2    4    4    0    0 -0.75467563084E+02 -0.10337281499E+03  0.16671395530E+02  0.15957060331E+03  0.93827235145E+02 0.  0.
          4    1    3    3  502    0 -0.22819871042E+03  0.80564847463E+02 -0.19189700190E+03  0.30885240071E+03  0.00000000000E+00 0. -1.
         -3    1    3    3    0  502 -0.95197408960E+03  0.18062879386E+03 -0.68736198857E+03  0.11880016548E+04  0.00000000000E+00 0.  1.
         13    1    5    5    0    0  0.10892708922E+04 -0.14524942159E+03  0.15695935573E+04  0.19160460344E+04  0.00000000000E+00 0.  1.
        -13    1    5    5    0    0  0.16636947095E+03 -0.12571404740E+02  0.18295773877E+03  0.24760931981E+03  0.00000000000E+00 0. -1.
          1    1    6    6  503    0 -0.39882814895E+01 -0.42995759580E+02  0.44447190922E+02  0.61968496125E+02  0.00000000000E+00 0. -1.
         -1    1    6    6    0  503 -0.71479281594E+02 -0.60377055411E+02 -0.27775795392E+02  0.97602107185E+02  0.00000000000E+00 0.  1.
<mgrwt>
<rscale>  0 0.37149665E+04</rscale>
<asrwt>0</asrwt>
<pdfrwt beam="1">  1        2 0.36231106E+00 0.37149665E+04</pdfrwt>
<pdfrwt beam="2">  1       -1 0.22539356E+00 0.37149665E+04</pdfrwt>
<totfact> 0.39213995E-01</totfact>
</mgrwt>
</event>
<event>
12    7  0.1544987E-007  0.1329971E+04  0.7818608E-02  0.9006130E-01
          2   -1    0    0  501    0  0.00000000000E+00  0.00000000000E+00  0.15178376805E+04  0.15178376805E+04  0.00000000000E+00 0. -1.
         -1   -1    0    0    0  501 -0.00000000000E+00 -0.00000000000E+00 -0.29133909216E+03  0.29133909216E+03  0.00000000000E+00 0.  1.
         24    2    1    2    0    0 -0.19663789795E+03  0.19717107499E+03  0.56139581244E+03  0.63231990134E+03  0.84381891943E+02 0.  0.
        254    2    1    2    0    0  0.19663789795E+03 -0.19717107499E+03  0.66510277588E+03  0.11768568713E+04  0.93010079953E+03 0.  0.
         23    2    4    4    0    0  0.55869994320E+03 -0.56163848937E+02  0.41821637124E+03  0.70640870134E+03  0.93852627608E+02 0.  0.
         23    2    4    4    0    0 -0.36206204525E+03 -0.14100722606E+03  0.24688640464E+03  0.47044816994E+03  0.96936171750E+02 0.  0.
          4    1    3    3  502    0 -0.13474113195E+03  0.16462626663E+03  0.47986126889E+03  0.52490362705E+03  0.00000000000E+00 0. -1.
         -3    1    3    3    0  502 -0.61896765997E+02  0.32544808367E+02  0.81534543541E+02  0.10741627429E+03  0.00000000000E+00 0.  1.
         13    1    5    5    0    0  0.50506773726E+03 -0.78612847476E+02  0.37705186804E+03  0.63517045759E+03  0.00000000000E+00 0.  1.
        -13    1    5    5    0    0  0.53632205938E+02  0.22448998539E+02  0.41164503204E+02  0.71238243754E+02  0.00000000000E+00 0. -1.
          1    1    6    6  503    0  0.32762144258E+01 -0.11634730316E+02  0.13114524655E+02  0.17835113888E+02  0.00000000000E+00 0. -1.
         -1    1    6    6    0  503 -0.36533825967E+03 -0.12937249574E+03  0.23377187998E+03  0.45261305605E+03  0.00000000000E+00 0.  1.
<mgrwt>
<rscale>  0 0.13299706E+04</rscale>
<asrwt>0</asrwt>
<pdfrwt beam="1">  1        2 0.23351349E+00 0.13299706E+04</pdfrwt>
<pdfrwt beam="2">  1       -1 0.44821399E-01 0.13299706E+04</pdfrwt>
<totfact> 0.68189341E+01</totfact>
</mgrwt>
</event>
<event>
12    7  0.1544987E-007  0.2902832E+04  0.7818608E-02  0.8272035E-01
         -1   -1    0    0    0  501 -0.00000000000E+00  0.00000000000E+00  0.75042055326E+03  0.75042055326E+03  0.00000000000E+00 0.  1.
          2   -1    0    0  501    0  0.00000000000E+00 -0.00000000000E+00 -0.28072372858E+04  0.28072372858E+04  0.00000000000E+00 0. -1.
         24    2    1    2    0    0 -0.10029412964E+04  0.81027077311E+03 -0.12876358042E+04  0.18240084273E+04  0.81060525531E+02 0.  0.
        254    2    1    2    0    0  0.10029412964E+04 -0.81027077311E+03 -0.76918092840E+03  0.17336494118E+04  0.86687427725E+03 0.  0.
         23    2    4    4    0    0 -0.11098704339E+03 -0.22739890726E+03 -0.25891104069E+03  0.37376632923E+03  0.92940599580E+02 0.  0.
         23    2    4    4    0    0  0.11139283398E+04 -0.58287186585E+03 -0.51026988771E+03  0.13598830826E+04  0.91272568143E+02 0.  0.
          2    1    3    3  502    0 -0.89225275236E+03  0.69082787786E+03 -0.11435743500E+04  0.16065865756E+04  0.00000000000E+00 0. -1.
         -1    1    3    3    0  502 -0.11068854406E+03  0.11944289525E+03 -0.14406145418E+03  0.21742185169E+03  0.00000000000E+00 0.  1.
         13    1    5    5    0    0 -0.31751895582E+02 -0.10743308250E+03 -0.17354384502E+03  0.20656116826E+03  0.00000000000E+00 0. -1.
        -13    1    5    5    0    0 -0.79235147809E+02 -0.11996582476E+03 -0.85367195677E+02  0.16720516097E+03  0.00000000000E+00 0.  1.
          3    1    6    6  503    0  0.94007952244E+03 -0.48654481553E+03 -0.39307410098E+03  0.11291512808E+04  0.00000000000E+00 0. -1.
         -3    1    6    6    0  503  0.17384881738E+03 -0.96327050321E+02 -0.11719578673E+03  0.23073180179E+03  0.00000000000E+00 0.  1.
<mgrwt>
<rscale>  0 0.29028321E+04</rscale>
<asrwt>0</asrwt>
<pdfrwt beam="1">  1        2 0.43188266E+00 0.29028321E+04</pdfrwt>
<pdfrwt beam="2">  1       -1 0.11544932E+00 0.29028321E+04</pdfrwt>
<totfact> 0.15257945E+00</totfact>
</mgrwt>
</event>
<event>
12    7  0.1544987E-007  0.1631959E+04  0.7818608E-02  0.8801151E-01
         -1   -1    0    0    0  501 -0.00000000000E+00  0.00000000000E+00  0.58901699958E+03  0.58901699958E+03  0.00000000000E+00 0.  1.
          2   -1    0    0  501    0  0.00000000000E+00 -0.00000000000E+00 -0.11303966417E+04  0.11303966417E+04  0.00000000000E+00 0. -1.
         24    2    1    2    0    0 -0.23479300718E+02  0.31190491788E+03  0.30441515273E+03  0.44330657508E+03  0.77564031223E+02 0.  0.
        254    2    1    2    0    0  0.23479300718E+02 -0.31190491788E+03 -0.84579479481E+03  0.12761070662E+04  0.90290888467E+03 0.  0.
         23    2    4    4    0    0  0.43197814659E+03 -0.58358373113E+02 -0.27689083145E+03  0.52564904459E+03  0.98120164592E+02 0.  0.
         23    2    4    4    0    0 -0.40849884587E+03 -0.25354654477E+03 -0.56890396336E+03  0.75045802157E+03  0.91533410135E+02 0.  0.
          2    1    3    3  502    0  0.28452632043E+02  0.94519878689E+02  0.96854396089E+02  0.13829075811E+03  0.00000000000E+00 0. -1.
         -1    1    3    3    0  502 -0.51931932761E+02  0.21738503919E+03  0.20756075664E+03  0.30501581697E+03  0.00000000000E+00 0.  1.
         13    1    5    5    0    0  0.42053437091E+03 -0.54032291541E+02 -0.28508631106E+03  0.51092352696E+03  0.00000000000E+00 0. -1.
        -13    1    5    5    0    0  0.11443775674E+02 -0.43260815716E+01  0.81954796118E+01  0.14725517631E+02  0.00000000000E+00 0.  1.
          2    1    6    6  503    0 -0.38763859015E+03 -0.23291907179E+03 -0.55999551686E+03  0.71979854785E+03  0.00000000000E+00 0. -1.
         -2    1    6    6    0  503 -0.20860255718E+02 -0.20627472975E+02 -0.89084465018E+01  0.30659473724E+02  0.00000000000E+00 0.  1.
<mgrwt>
<rscale>  0 0.16319594E+04</rscale>
<asrwt>0</asrwt>
<pdfrwt beam="1">  1        2 0.17390717E+00 0.16319594E+04</pdfrwt>
<pdfrwt beam="2">  1       -1 0.90618000E-01 0.16319594E+04</pdfrwt>
<totfact> 0.27092581E+01</totfact>
</mgrwt>
</event>
<event>
12    7  0.1544987E-007  0.1726072E+04  0.7818608E-02  0.8746633E-01
          2   -1    0    0  501    0  0.00000000000E+00  0.00000000000E+00  0.48870645484E+03  0.48870645484E+03  0.00000000000E+00 0. -1.
         -1   -1    0    0    0  501 -0.00000000000E+00 -0.00000000000E+00 -0.15240875307E+04  0.15240875307E+04  0.00000000000E+00 0.  1.
         24    2    1    2    0    0  0.53854177869E+01 -0.56680494452E+03 -0.68123896254E+03  0.89017875250E+03  0.83873949806E+02 0.  0.
        254    2    1    2    0    0 -0.53854177869E+01  0.56680494452E+03 -0.35414211336E+03  0.11226152331E+04  0.90197088493E+03 0.  0.
         23    2    4    4    0    0 -0.43186907629E+03  0.38326846719E+03 -0.12974255708E+03  0.59899673254E+03  0.92511283029E+02 0.  0.
         23    2    4    4    0    0  0.42648365850E+03  0.18353647733E+03 -0.22439955628E+03  0.52361850055E+03  0.90814226726E+02 0.  0.
          2    1    3    3  502    0 -0.89123118553E+01 -0.52541644378E+03 -0.65253492890E+03  0.83782080550E+03  0.00000000000E+00 0. -1.
         -1    1    3    3    0  502  0.14297729642E+02 -0.41388500742E+02 -0.28704033648E+02  0.52357947002E+02  0.00000000000E+00 0.  1.
         13    1    5    5    0    0 -0.33014932443E+03  0.27626781713E+03 -0.13531510518E+03  0.45125675717E+03  0.00000000000E+00 0.  1.
        -13    1    5    5    0    0 -0.10171975186E+03  0.10700065006E+03  0.55725481027E+01  0.14773997537E+03  0.00000000000E+00 0. -1.
          2    1    6    6  503    0  0.75915215746E+02  0.20691149583E+02 -0.42969558676E+01  0.78801697206E+02  0.00000000000E+00 0. -1.
         -2    1    6    6    0  503  0.35056844275E+03  0.16284532775E+03 -0.22010260042E+03  0.44481680334E+03  0.00000000000E+00 0.  1.
<mgrwt>
<rscale>  0 0.17260723E+04</rscale>
<asrwt>0</asrwt>
<pdfrwt beam="1">  1        2 0.75185607E-01 0.17260723E+04</pdfrwt>
<pdfrwt beam="2">  1       -1 0.23447501E+00 0.17260723E+04</pdfrwt>
<totfact> 0.60512944E+00</totfact>
</mgrwt>
</event>
<event>
12    7  0.1544987E-007  0.1416480E+04  0.7818608E-02  0.8941975E-01
          2   -1    0    0  501    0  0.00000000000E+00  0.00000000000E+00  0.26411504259E+04  0.26411504259E+04  0.00000000000E+00 0. -1.
         -1   -1    0    0    0  501 -0.00000000000E+00 -0.00000000000E+00 -0.18991883410E+03  0.18991883410E+03  0.00000000000E+00 0.  1.
         24    2    1    2    0    0  0.31781539977E+03 -0.31689152131E+02  0.13018340837E+04  0.13428963857E+04  0.81165820598E+02 0.  0.
        254    2    1    2    0    0 -0.31781539977E+03  0.31689152131E+02  0.11493975081E+04  0.14881728743E+04  0.88968142701E+03 0.  0.
         23    2    4    4    0    0 -0.44166978745E+03 -0.28702827058E+03  0.92614991386E+03  0.10694618517E+04  0.92398917482E+02 0.  0.
         23    2    4    4    0    0  0.12385438768E+03  0.31871742271E+03  0.22324759419E+03  0.41871102263E+03  0.92513389686E+02 0.  0.
          4    1    3    3  502    0  0.17207613352E+03  0.96003038840E+01  0.81577548025E+03  0.83378174346E+03  0.00000000000E+00 0. -1.
         -3    1    3    3    0  502  0.14573926625E+03 -0.41289456015E+02  0.48605860349E+03  0.50911464223E+03  0.00000000000E+00 0.  1.
         13    1    5    5    0    0 -0.40490882042E+03 -0.28961569908E+03  0.85666953762E+03  0.99081335412E+03  0.00000000000E+00 0.  1.
        -13    1    5    5    0    0 -0.36760967030E+02  0.25874285017E+01  0.69480376246E+02  0.78648497548E+02  0.00000000000E+00 0. -1.
          2    1    6    6  503    0  0.52680739066E+02  0.23056355363E+03  0.18089365542E+03  0.29775380283E+03  0.00000000000E+00 0.  1.
         -2    1    6    6    0  503  0.71173648617E+02  0.88153869087E+02  0.42353938776E+02  0.12095721980E+03  0.00000000000E+00 0. -1.
<mgrwt>
<rscale>  0 0.14164804E+04</rscale>
<asrwt>0</asrwt>
<pdfrwt beam="1">  1        2 0.40633081E+00 0.14164804E+04</pdfrwt>
<pdfrwt beam="2">  1       -1 0.29218284E-01 0.14164804E+04</pdfrwt>
<totfact> 0.34217798E+01</totfact>
</mgrwt>
</event>
<event>
12    7  0.1544987E-007  0.1503709E+04  0.7818608E-02  0.8881990E-01
          2   -1    0    0  501    0  0.00000000000E+00  0.00000000000E+00  0.70372257654E+03  0.70372257654E+03  0.00000000000E+00 0. -1.
         -1   -1    0    0    0  501 -0.00000000000E+00 -0.00000000000E+00 -0.80327830313E+03  0.80327830313E+03  0.00000000000E+00 0.  1.
         24    2    1    2    0    0  0.11445666196E+03 -0.34125738445E+03  0.27768434905E+03  0.45911651894E+03  0.64206310848E+02 0.  0.
        254    2    1    2    0    0 -0.11445666196E+03  0.34125738445E+03 -0.37724007563E+03  0.10478843607E+04  0.90895248990E+03 0.  0.
         23    2    4    4    0    0  0.31363060476E+03  0.23804488798E+03  0.74340449766E+02  0.41028495910E+03  0.88191384265E+02 0.  0.
         23    2    4    4    0    0 -0.42808726672E+03  0.10321249647E+03 -0.45158052540E+03  0.63759940163E+03  0.93255019635E+02 0.  0.
          4    1    3    3  502    0  0.23157638503E+02 -0.14315904064E+03  0.13740673366E+03  0.19977837119E+03  0.00000000000E+00 0. -1.
         -1    1    3    3    0  502  0.91299023456E+02 -0.19809834380E+03  0.14027761538E+03  0.25933814775E+03  0.00000000000E+00 0.  1.
         13    1    5    5    0    0  0.12626629482E+03  0.13979134680E+03  0.79219160757E+01  0.18854059140E+03  0.00000000000E+00 0. -1.
        -13    1    5    5    0    0  0.18736430994E+03  0.98253541173E+02  0.66418533690E+02  0.22174436770E+03  0.00000000000E+00 0.  1.
          3    1    6    6  503    0 -0.26235772597E+02 -0.87501176522E+01 -0.57173330555E+02  0.63511180507E+02  0.00000000000E+00 0. -1.
         -3    1    6    6    0  503 -0.40185149412E+03  0.11196261412E+03 -0.39440719484E+03  0.57408822112E+03  0.00000000000E+00 0.  1.
<mgrwt>
<rscale>  0 0.15037089E+04</rscale>
<asrwt>0</asrwt>
<pdfrwt beam="1">  1        2 0.10826501E+00 0.15037089E+04</pdfrwt>
<pdfrwt beam="2">  1       -1 0.12358128E+00 0.15037089E+04</pdfrwt>
<totfact> 0.25857632E+01</totfact>
</mgrwt>
</event>
<event>
12    7  0.1544987E-007  0.1880638E+04  0.7818608E-02  0.8664554E-01
         -1   -1    0    0    0  501 -0.00000000000E+00  0.00000000000E+00  0.21279918664E+04  0.21279918664E+04  0.00000000000E+00 0.  1.
          2   -1    0    0  501    0  0.00000000000E+00 -0.00000000000E+00 -0.41550921634E+03  0.41550921634E+03  0.00000000000E+00 0. -1.
         24    2    1    2    0    0  0.14501485588E+03 -0.70579305669E+03  0.70848326217E+03  0.10138095612E+04  0.81781088263E+02 0.  0.
        254    2    1    2    0    0 -0.14501485588E+03  0.70579305669E+03  0.10039993879E+04  0.15296915215E+04  0.90153659539E+03 0.  0.
         23    2    4    4    0    0 -0.23289652488E+03  0.14413941838E+03 -0.80923083819E+02  0.30147480874E+03  0.96548182665E+02 0.  0.
         23    2    4    4    0    0  0.87881669003E+02  0.56165363831E+03  0.10849224717E+04  0.12282167128E+04  0.91002894213E+02 0.  0.
          2    1    3    3  502    0  0.31973356646E+02 -0.13607952024E+03  0.18519243499E+03  0.23202622555E+03  0.00000000000E+00 0. -1.
         -1    1    3    3    0  502  0.11304149923E+03 -0.56971353645E+03  0.52329082718E+03  0.78178333569E+03  0.00000000000E+00 0.  1.
         13    1    5    5    0    0 -0.47429787635E+02  0.78610663504E+02 -0.99009958513E+01  0.92343115014E+02  0.00000000000E+00 0.  1.
        -13    1    5    5    0    0 -0.18546673724E+03  0.65528754874E+02 -0.71022087968E+02  0.20913169372E+03  0.00000000000E+00 0. -1.
          3    1    6    6  503    0  0.31296603436E+02  0.43809839825E+03  0.85205415761E+03  0.95859583320E+03  0.00000000000E+00 0. -1.
         -3    1    6    6    0  503  0.56585065567E+02  0.12355524006E+03  0.23286831414E+03  0.26962087961E+03  0.00000000000E+00 0.  1.
<mgrwt>
<rscale>  0 0.18806384E+04</rscale>
<asrwt>0</asrwt>
<pdfrwt beam="1">  1        2 0.63924496E-01 0.18806384E+04</pdfrwt>
<pdfrwt beam="2">  1       -1 0.32738336E+00 0.18806384E+04</pdfrwt>
<totfact> 0.17913055E+00</totfact>
</mgrwt>
</event>
<event>
12    7  0.1544987E-007  0.2298903E+04  0.7818608E-02  0.8478354E-01
         -1   -1    0    0    0  501 -0.00000000000E+00  0.00000000000E+00  0.89514456159E+03  0.89514456159E+03  0.00000000000E+00 0.  1.
          2   -1    0    0  501    0  0.00000000000E+00 -0.00000000000E+00 -0.14760064990E+04  0.14760064990E+04  0.00000000000E+00 0. -1.
         24    2    1    2    0    0  0.81817392182E+03 -0.34464914218E+03 -0.64637511226E+03  0.11008213165E+04  0.76257376851E+02 0.  0.
        254    2    1    2    0    0 -0.81817392182E+03  0.34464914218E+03  0.65513174872E+02  0.12703297441E+04  0.90623070191E+03 0.  0.
         23    2    4    4    0    0 -0.50895243890E+01  0.10982851352E+03  0.34561299995E+03  0.37415492168E+03  0.91952999115E+02 0.  0.
         23    2    4    4    0    0 -0.81308439743E+03  0.23482062866E+03 -0.28009982508E+03  0.89617482241E+03  0.91795617103E+02 0.  0.
          4    1    3    3  502    0  0.39155456921E+03 -0.16747831647E+03 -0.35712680995E+03  0.55579090092E+03  0.00000000000E+00 0. -1.
         -3    1    3    3    0  502  0.42661935260E+03 -0.17717082572E+03 -0.28924830231E+03  0.54503041557E+03  0.00000000000E+00 0.  1.
         13    1    5    5    0    0  0.23856213297E+01  0.11072466726E+03  0.20219541000E+03  0.23053985980E+03  0.00000000000E+00 0. -1.
        -13    1    5    5    0    0 -0.74751457187E+01 -0.89615373880E+00  0.14341758995E+03  0.14361506189E+03  0.00000000000E+00 0.  1.
          4    1    6    6  503    0 -0.80062189845E+03  0.22484869565E+03 -0.28563140087E+03  0.87928246735E+03  0.00000000000E+00 0. -1.
         -4    1    6    6    0  503 -0.12462498978E+02  0.99719330110E+01  0.55315757955E+01  0.16892355062E+02  0.00000000000E+00 0.  1.
<mgrwt>
<rscale>  0 0.22989034E+04</rscale>
<asrwt>0</asrwt>
<pdfrwt beam="1">  1        2 0.22707792E+00 0.22989034E+04</pdfrwt>
<pdfrwt beam="2">  1       -1 0.13771455E+00 0.22989034E+04</pdfrwt>
<totfact> 0.59196255E+00</totfact>
</mgrwt>
</event>
<event>
12    7  0.1544987E-007  0.2811289E+04  0.7818608E-02  0.8299772E-01
         -1   -1    0    0    0  501 -0.00000000000E+00  0.00000000000E+00  0.74642869485E+03  0.74642869485E+03  0.00000000000E+00 0.  1.
          2   -1    0    0  501    0  0.00000000000E+00 -0.00000000000E+00 -0.26470538740E+04  0.26470538740E+04  0.00000000000E+00 0. -1.
         24    2    1    2    0    0 -0.16753518476E+03  0.32414954697E+03 -0.22945860009E+04  0.23248256002E+04  0.80920881879E+02 0.  0.
        254    2    1    2    0    0  0.16753518476E+03 -0.32414954697E+03  0.39396082171E+03  0.10686569686E+04  0.92394892751E+03 0.  0.
         23    2    4    4    0    0  0.38545388511E+03 -0.50201940149E+03  0.43110377595E+03  0.77117857125E+03  0.90927147273E+02 0.  0.
         23    2    4    4    0    0 -0.21791870035E+03  0.17786985452E+03 -0.37142954237E+02  0.29747839738E+03  0.89373109779E+02 0.  0.
          2    1    3    3  502    0 -0.15450882241E+03  0.24783797557E+03 -0.19422099364E+04  0.19640458435E+04  0.00000000000E+00 0. -1.
         -1    1    3    3    0  502 -0.13026362348E+02  0.76311571397E+02 -0.35237606448E+03  0.36077975673E+03  0.00000000000E+00 0.  1.
         13    1    5    5    0    0  0.29032044629E+03 -0.32097840456E+03  0.32152137969E+03  0.53915591003E+03  0.00000000000E+00 0.  1.
        -13    1    5    5    0    0  0.95133438817E+02 -0.18104099693E+03  0.10958239626E+03  0.23202266122E+03  0.00000000000E+00 0. -1.
          2    1    6    6  503    0 -0.14778604708E+02 -0.37616120043E+01  0.13436418737E+02  0.20324719689E+02  0.00000000000E+00 0. -1.
         -2    1    6    6    0  503 -0.20314009564E+03  0.18163146653E+03 -0.50579372974E+02  0.27715367770E+03  0.00000000000E+00 0.  1.
<mgrwt>
<rscale>  0 0.28112894E+04</rscale>
<asrwt>0</asrwt>
<pdfrwt beam="1">  1        2 0.40723906E+00 0.28112894E+04</pdfrwt>
<pdfrwt beam="2">  1       -1 0.11483518E+00 0.28112894E+04</pdfrwt>
<totfact> 0.19425649E+00</totfact>
</mgrwt>
</event>
<event>
12    7  0.1544987E-007  0.2409275E+04  0.7818608E-02  0.8436039E-01
         -1   -1    0    0    0  501 -0.00000000000E+00  0.00000000000E+00  0.14792349814E+04  0.14792349814E+04  0.00000000000E+00 0.  1.
          2   -1    0    0  501    0  0.00000000000E+00 -0.00000000000E+00 -0.98101494785E+03  0.98101494785E+03  0.00000000000E+00 0. -1.
         24    2    1    2    0    0 -0.43584393803E+03 -0.40893472359E+03 -0.64825266723E+03  0.88609358634E+03  0.87993049132E+02 0.  0.
        254    2    1    2    0    0  0.43584393803E+03  0.40893472359E+03  0.11464727008E+04  0.15741563429E+04  0.89798718910E+03 0.  0.
         23    2    4    4    0    0 -0.41886994002E+02  0.41744282562E+03  0.96253154189E+03  0.10539155605E+04  0.90873575315E+02 0.  0.
         23    2    4    4    0    0  0.47773093203E+03 -0.85081020291E+01  0.18394115889E+03  0.52024078236E+03  0.92287000591E+02 0.  0.
          4    1    3    3  502    0 -0.43800256668E+03 -0.40929002527E+03 -0.64925818258E+03  0.88368589490E+03  0.00000000000E+00 0. -1.
         -3    1    3    3    0  502  0.21586286503E+01  0.35530168570E+00  0.10055153416E+01  0.24076914337E+01  0.00000000000E+00 0.  1.
         13    1    5    5    0    0  0.15194587976E+02  0.24173873160E+03  0.59943868613E+03  0.64652550475E+03  0.00000000000E+00 0. -1.
        -13    1    5    5    0    0 -0.57081581978E+02  0.17570409401E+03  0.36309285576E+03  0.40739005579E+03  0.00000000000E+00 0.  1.
          3    1    6    6  503    0  0.43909731591E+03  0.11205094799E+02  0.18558485668E+03  0.47683723220E+03  0.00000000000E+00 0. -1.
         -3    1    6    6    0  503  0.38633616123E+02 -0.19713196828E+02 -0.16436977862E+01  0.43403550158E+02  0.00000000000E+00 0.  1.
<mgrwt>
<rscale>  0 0.24092751E+04</rscale>
<asrwt>0</asrwt>
<pdfrwt beam="1">  1        2 0.15092538E+00 0.24092751E+04</pdfrwt>
<pdfrwt beam="2">  1       -1 0.22757461E+00 0.24092751E+04</pdfrwt>
<totfact> 0.26003981E+00</totfact>
</mgrwt>
</event>
<event>
12    7  0.1544987E-007  0.2703040E+04  0.7818608E-02  0.8334019E-01
          2   -1    0    0  501    0  0.00000000000E+00  0.00000000000E+00  0.19072705394E+04  0.19072705394E+04  0.00000000000E+00 0. -1.
         -1   -1    0    0    0  501 -0.00000000000E+00 -0.00000000000E+00 -0.95770703429E+03  0.95770703429E+03  0.00000000000E+00 0.  1.
         24    2    1    2    0    0  0.38051198986E+03 -0.62869554810E+03  0.14261851650E+04  0.16064326858E+04  0.81082565708E+02 0.  0.
        254    2    1    2    0    0 -0.38051198986E+03  0.62869554810E+03 -0.47662165992E+03  0.12585448879E+04  0.90372537946E+03 0.  0.
         23    2    4    4    0    0 -0.71302398693E+01 -0.17754678481E+03  0.70023398713E+02  0.21133703436E+03  0.90478531185E+02 0.  0.
         23    2    4    4    0    0 -0.37338174999E+03  0.80624233291E+03 -0.54664505863E+03  0.10472078535E+04  0.91557838301E+02 0.  0.
          2    1    3    3  502    0  0.35364381495E+03 -0.54024632637E+03  0.12155358015E+04  0.13763928675E+04  0.00000000000E+00 0. -1.
         -1    1    3    3    0  502  0.26868174905E+02 -0.88449221730E+02  0.21064936350E+03  0.23003981827E+03  0.00000000000E+00 0.  1.
         13    1    5    5    0    0 -0.11520815268E+02 -0.17755320867E+02 -0.18935151020E+02  0.28399305408E+02  0.00000000000E+00 0. -1.
        -13    1    5    5    0    0  0.43905753986E+01 -0.15979146395E+03  0.88958549733E+02  0.18293772895E+03  0.00000000000E+00 0.  1.
          3    1    6    6  503    0 -0.39874731503E+02  0.90465275424E+02 -0.29092051574E+02  0.10305487730E+03  0.00000000000E+00 0. -1.
         -3    1    6    6    0  503 -0.33350701848E+03  0.71577705748E+03 -0.51755300706E+03  0.94415297622E+03  0.00000000000E+00 0.  1.
<mgrwt>
<rscale>  0 0.27030401E+04</rscale>
<asrwt>0</asrwt>
<pdfrwt beam="1">  1        2 0.29342624E+00 0.27030401E+04</pdfrwt>
<pdfrwt beam="2">  1       -1 0.14733954E+00 0.27030401E+04</pdfrwt>
<totfact> 0.27487993E+00</totfact>
</mgrwt>
</event>
<event>
12    7  0.1544987E-007  0.2069104E+04  0.7818608E-02  0.8574977E-01
         -1   -1    0    0    0  501 -0.00000000000E+00  0.00000000000E+00  0.62827664093E+03  0.62827664093E+03  0.00000000000E+00 0.  1.
          2   -1    0    0  501    0  0.00000000000E+00 -0.00000000000E+00 -0.17035453742E+04  0.17035453742E+04  0.00000000000E+00 0. -1.
         24    2    1    2    0    0 -0.18609703892E+03 -0.54978288950E+03  0.24634441503E+03  0.63539094018E+03  0.78375650345E+02 0.  0.
        254    2    1    2    0    0  0.18609703892E+03  0.54978288950E+03 -0.13216131483E+04  0.16964310750E+04  0.89124841925E+03 0.  0.
         23    2    4    4    0    0  0.28688446892E+03  0.93539630423E+02 -0.26062922899E+02  0.31618203735E+03  0.90771382216E+02 0.  0.
         23    2    4    4    0    0 -0.10078742999E+03  0.45624325908E+03 -0.12955502254E+04  0.13802490376E+04  0.91219524945E+02 0.  0.
          2    1    3    3  502    0 -0.36295236235E+01 -0.36476985909E+02 -0.19369158268E+01  0.36708249558E+02  0.00000000000E+00 0. -1.
         -1    1    3    3    0  502 -0.18246751530E+03 -0.51330590359E+03  0.24828133086E+03  0.59868269063E+03  0.00000000000E+00 0.  1.
         13    1    5    5    0    0  0.24667429692E+03  0.66560122244E+02 -0.52760593355E+02  0.26088721480E+03  0.00000000000E+00 0.  1.
        -13    1    5    5    0    0  0.40210171997E+02  0.26979508180E+02  0.26697670456E+02  0.55294822555E+02  0.00000000000E+00 0. -1.
          1    1    6    6  503    0 -0.37276791935E+02  0.44398042094E+02 -0.12655063319E+03  0.13919701189E+03  0.00000000000E+00 0. -1.
         -1    1    6    6    0  503 -0.63510638059E+02  0.41184521698E+03 -0.11689995923E+04  0.12410520257E+04  0.00000000000E+00 0.  1.
<mgrwt>
<rscale>  0 0.20691039E+04</rscale>
<asrwt>0</asrwt>
<pdfrwt beam="1">  1        2 0.26208390E+00 0.20691039E+04</pdfrwt>
<pdfrwt beam="2">  1       -1 0.96657944E-01 0.20691039E+04</pdfrwt>
<totfact> 0.10577381E+01</totfact>
</mgrwt>
</event>
<event>
12    7  0.1544987E-007  0.1588748E+04  0.7818608E-02  0.8827490E-01
         -1   -1    0    0    0  501 -0.00000000000E+00  0.00000000000E+00  0.58031227533E+03  0.58031227533E+03  0.00000000000E+00 0.  1.
          2   -1    0    0  501    0  0.00000000000E+00 -0.00000000000E+00 -0.10873975312E+04  0.10873975312E+04  0.00000000000E+00 0. -1.
         24    2    1    2    0    0 -0.14788705656E+03 -0.36566527281E+03 -0.55817914074E+03  0.68804928066E+03  0.79159245940E+02 0.  0.
        254    2    1    2    0    0  0.14788705656E+03  0.36566527281E+03  0.51093884843E+02  0.97966052590E+03  0.89528905260E+03 0.  0.
         23    2    4    4    0    0 -0.22348911102E+03  0.44950772298E+03  0.21731662062E+03  0.55441286189E+03  0.90235979896E+02 0.  0.
         23    2    4    4    0    0  0.37137616759E+03 -0.83842450168E+02 -0.16622273578E+03  0.42524766401E+03  0.90861232396E+02 0.  0.
          4    1    3    3  502    0 -0.13413192225E+03 -0.26495442989E+03 -0.37273447117E+03  0.47657445219E+03  0.00000000000E+00 0. -1.
         -3    1    3    3    0  502 -0.13755134310E+02 -0.10071084292E+03 -0.18544466958E+03  0.21147482847E+03  0.00000000000E+00 0.  1.
         13    1    5    5    0    0 -0.17803416290E+03  0.28207626369E+03  0.17103006295E+03  0.37485258986E+03  0.00000000000E+00 0.  1.
        -13    1    5    5    0    0 -0.45454948126E+02  0.16743145929E+03  0.46286557673E+02  0.17956027203E+03  0.00000000000E+00 0. -1.
          1    1    6    6  503    0  0.30432767657E+02 -0.35951276124E+02 -0.21471368278E+02  0.51765502586E+02  0.00000000000E+00 0. -1.
         -1    1    6    6    0  503  0.34094339993E+03 -0.47891174043E+02 -0.14475136750E+03  0.37348216142E+03  0.00000000000E+00 0.  1.
<mgrwt>
<rscale>  0 0.15887481E+04</rscale>
<asrwt>0</asrwt>
<pdfrwt beam="1">  1        2 0.16729193E+00 0.15887481E+04</pdfrwt>
<pdfrwt beam="2">  1       -1 0.89278812E-01 0.15887481E+04</pdfrwt>
<totfact> 0.29862829E+01</totfact>
</mgrwt>
</event>
<event>
12    7  0.1544987E-007  0.2486554E+04  0.7818608E-02  0.8407791E-01
          2   -1    0    0  501    0  0.00000000000E+00  0.00000000000E+00  0.13526508231E+04  0.13526508231E+04  0.00000000000E+00 0. -1.
         -1   -1    0    0    0  501 -0.00000000000E+00 -0.00000000000E+00 -0.11427471793E+04  0.11427471793E+04  0.00000000000E+00 0.  1.
         24    2    1    2    0    0 -0.14760592511E+03 -0.86287783714E+03 -0.54126882081E+03  0.10319419396E+04  0.74743289762E+02 0.  0.
        254    2    1    2    0    0  0.14760592511E+03  0.86287783714E+03  0.75117246454E+03  0.14634560628E+04  0.90060974089E+03 0.  0.
         23    2    4    4    0    0 -0.18650108991E+03  0.71115331229E+03  0.78985190908E+03  0.10821683890E+04  0.81857766036E+02 0.  0.
         23    2    4    4    0    0  0.33410701502E+03  0.15172452486E+03 -0.38679444543E+02  0.38128767378E+03  0.96105992616E+02 0.  0.
          2    1    3    3  502    0 -0.14060754814E+02 -0.56345938291E+02 -0.58961912844E+02  0.82759149066E+02  0.00000000000E+00 0. -1.
         -1    1    3    3    0  502 -0.13354517029E+03 -0.80653189885E+03 -0.48230690797E+03  0.94918279053E+03  0.00000000000E+00 0.  1.
         13    1    5    5    0    0 -0.61224932269E+02  0.12177485456E+03  0.16702606861E+03  0.21558134226E+03  0.00000000000E+00 0.  1.
        -13    1    5    5    0    0 -0.12527615764E+03  0.58937845772E+03  0.62282584047E+03  0.86658704679E+03  0.00000000000E+00 0. -1.
          1    1    6    6  503    0  0.21810829302E+03  0.14319029772E+03 -0.45179173461E+02  0.26479397002E+03  0.00000000000E+00 0. -1.
         -1    1    6    6    0  503  0.11599872200E+03  0.85342271314E+01  0.64997289181E+01  0.11649370375E+03  0.00000000000E+00 0.  1.
<mgrwt>
<rscale>  0 0.24865542E+04</rscale>
<asrwt>0</asrwt>
<pdfrwt beam="1">  1        2 0.20810013E+00 0.24865542E+04</pdfrwt>
<pdfrwt beam="2">  1       -1 0.17580726E+00 0.24865542E+04</pdfrwt>
<totfact> 0.34977856E+00</totfact>
</mgrwt>
</event>
<event>
12    7  0.1544987E-007  0.2015149E+04  0.7818608E-02  0.8599571E-01
         -1   -1    0    0    0  501 -0.00000000000E+00  0.00000000000E+00  0.33495323620E+03  0.33495323620E+03  0.00000000000E+00 0.  1.
          2   -1    0    0  501    0  0.00000000000E+00 -0.00000000000E+00 -0.30308884436E+04  0.30308884436E+04  0.00000000000E+00 0. -1.
         24    2    1    2    0    0 -0.66868300382E+03 -0.36423713024E+03 -0.61160920882E+03  0.98000330034E+03  0.80839332705E+02 0.  0.
        254    2    1    2    0    0  0.66868300382E+03  0.36423713024E+03 -0.20843259986E+04  0.23858383795E+04  0.87635852134E+03 0.  0.
         23    2    4    4    0    0  0.54336243320E+03  0.56648392893E+03 -0.10134146947E+04  0.12851151291E+04  0.91459148860E+02 0.  0.
         23    2    4    4    0    0  0.12532057062E+03 -0.20224679869E+03 -0.10709113039E+04  0.11007232504E+04  0.90175607804E+02 0.  0.
          4    1    3    3  502    0 -0.28723787343E+03 -0.19741378963E+03 -0.30191995099E+03  0.46112195467E+03  0.00000000000E+00 0. -1.
         -3    1    3    3    0  502 -0.38144513038E+03 -0.16682334062E+03 -0.30968925783E+03  0.51888134567E+03  0.00000000000E+00 0.  1.
         13    1    5    5    0    0  0.31993487582E+03  0.39488008250E+03 -0.66930084202E+03  0.84038813738E+03  0.00000000000E+00 0. -1.
        -13    1    5    5    0    0  0.22342755738E+03  0.17160384643E+03 -0.34411385270E+03  0.44472699168E+03  0.00000000000E+00 0.  1.
          3    1    6    6  503    0  0.13673874884E+03 -0.20068422603E+03 -0.10164785569E+04  0.10450838725E+04  0.00000000000E+00 0. -1.
         -3    1    6    6    0  503 -0.11418178219E+02 -0.15625726631E+01 -0.54432746981E+02  0.55639377881E+02  0.00000000000E+00 0.  1.
<mgrwt>
<rscale>  0 0.20151485E+04</rscale>
<asrwt>0</asrwt>
<pdfrwt beam="1">  1        2 0.46629054E+00 0.20151485E+04</pdfrwt>
<pdfrwt beam="2">  1       -1 0.51531266E-01 0.20151485E+04</pdfrwt>
<totfact> 0.66788893E+00</totfact>
</mgrwt>
</event>
<event>
12    7  0.1544987E-007  0.1585214E+04  0.7818608E-02  0.8829684E-01
          2   -1    0    0  501    0  0.00000000000E+00  0.00000000000E+00  0.10290339589E+04  0.10290339589E+04  0.00000000000E+00 0. -1.
         -1   -1    0    0    0  501 -0.00000000000E+00 -0.00000000000E+00 -0.61050043721E+03  0.61050043721E+03  0.00000000000E+00 0.  1.
         24    2    1    2    0    0  0.57094637609E+02 -0.31423735591E+03 -0.30099156536E+03  0.44610532200E+03  0.80056994744E+02 0.  0.
        254    2    1    2    0    0 -0.57094637609E+02  0.31423735591E+03  0.71952508708E+03  0.11934290741E+04  0.89696805437E+03 0.  0.
         23    2    4    4    0    0  0.39559799720E+03  0.21575687504E+03  0.48359316225E+03  0.66747918249E+03  0.92829456358E+02 0.  0.
         23    2    4    4    0    0 -0.45269263481E+03  0.98480480863E+02  0.23593192483E+03  0.52594989164E+03  0.79563739477E+02 0.  0.
          4    1    3    3  502    0  0.44142945757E+02 -0.83335758951E+02 -0.58302389079E+02  0.11087207472E+03  0.00000000000E+00 0. -1.
         -3    1    3    3    0  502  0.12951691851E+02 -0.23090159696E+03 -0.24268917628E+03  0.33523324728E+03  0.00000000000E+00 0.  1.
         13    1    5    5    0    0  0.38462968489E+03  0.21583423899E+03  0.44179328213E+03  0.62426414069E+03  0.00000000000E+00 0. -1.
        -13    1    5    5    0    0  0.10968312318E+02 -0.77363944002E-01  0.41799880116E+02  0.43215041802E+02  0.00000000000E+00 0.  1.
          3    1    6    6  503    0 -0.45261906898E+03  0.97033340836E+02  0.24015011740E+03  0.52148975994E+03  0.00000000000E+00 0. -1.
         -3    1    6    6    0  503 -0.73565836937E-01  0.14471400271E+01 -0.42181925747E+01  0.44601317007E+01  0.00000000000E+00 0.  1.
<mgrwt>
<rscale>  0 0.15852138E+04</rscale>
<asrwt>0</asrwt>
<pdfrwt beam="1">  1        2 0.15831292E+00 0.15852138E+04</pdfrwt>
<pdfrwt beam="2">  1       -1 0.93923144E-01 0.15852138E+04</pdfrwt>
<totfact> 0.29042388E+01</totfact>
</mgrwt>
</event>
<event>
12    7  0.1544987E-007  0.1511983E+04  0.7818608E-02  0.8876523E-01
         -1   -1    0    0    0  501 -0.00000000000E+00  0.00000000000E+00  0.26892889005E+03  0.26892889005E+03  0.00000000000E+00 0.  1.
          2   -1    0    0  501    0  0.00000000000E+00 -0.00000000000E+00 -0.21251841132E+04  0.21251841132E+04  0.00000000000E+00 0. -1.
         24    2    1    2    0    0  0.11293581347E+03  0.13434062256E+03 -0.13459077596E+04  0.13596365395E+04  0.79636180918E+02 0.  0.
        254    2    1    2    0    0 -0.11293581347E+03 -0.13434062256E+03 -0.51034746347E+03  0.10344764637E+04  0.88254468422E+03 0.  0.
         23    2    4    4    0    0 -0.11510503249E+03  0.13115603790E+03 -0.67783590024E+03  0.70570767175E+03  0.90059622039E+02 0.  0.
         23    2    4    4    0    0  0.21692190242E+01 -0.26549666046E+03  0.16748843677E+03  0.32876879195E+03  0.97690121731E+02 0.  0.
          2    1    3    3  502    0  0.11421771608E+02  0.13939910535E+02 -0.42336683620E+03  0.42375022828E+03  0.00000000000E+00 0. -1.
         -1    1    3    3    0  502  0.10151404186E+03  0.12040071203E+03 -0.92254092343E+03  0.93588631124E+03  0.00000000000E+00 0.  1.
         13    1    5    5    0    0 -0.15377104931E+02  0.52523560883E+02 -0.34781079976E+03  0.35209023308E+03  0.00000000000E+00 0.  1.
        -13    1    5    5    0    0 -0.99727927561E+02  0.78632477014E+02 -0.33002510048E+03  0.35361743866E+03  0.00000000000E+00 0. -1.
          1    1    6    6  503    0  0.43669364980E+02 -0.10937774112E+03  0.45149926726E+02  0.12613096200E+03  0.00000000000E+00 0. -1.
         -1    1    6    6    0  503 -0.41500145956E+02 -0.15611891933E+03  0.12233851004E+03  0.20263782995E+03  0.00000000000E+00 0.  1.
<mgrwt>
<rscale>  0 0.15119833E+04</rscale>
<asrwt>0</asrwt>
<pdfrwt beam="1">  1        2 0.32695140E+00 0.15119833E+04</pdfrwt>
<pdfrwt beam="2">  1       -1 0.41373675E-01 0.15119833E+04</pdfrwt>
<totfact> 0.35828063E+01</totfact>
</mgrwt>
</event>
<event>
12    7  0.1544987E-007  0.2093497E+04  0.7818608E-02  0.8564113E-01
         -1   -1    0    0    0  501 -0.00000000000E+00  0.00000000000E+00  0.78387172713E+03  0.78387172713E+03  0.00000000000E+00 0.  1.
          2   -1    0    0  501    0  0.00000000000E+00 -0.00000000000E+00 -0.13977831216E+04  0.13977831216E+04  0.00000000000E+00 0. -1.
         24    2    1    2    0    0 -0.59032941775E+02  0.60313067128E+03  0.35332518420E+03  0.70611464105E+03  0.80670351850E+02 0.  0.
        254    2    1    2    0    0  0.59032941775E+02 -0.60313067128E+03 -0.96723657868E+03  0.14755402077E+04  0.93510470565E+03 0.  0.
         23    2    4    4    0    0 -0.15037599062E+03  0.19190541207E+03 -0.38503094083E+03  0.46412979440E+03  0.87903440849E+02 0.  0.
         23    2    4    4    0    0  0.20940893239E+03 -0.79503608335E+03 -0.58220563785E+03  0.10114104133E+04  0.89739314640E+02 0.  0.
          2    1    3    3  502    0 -0.33294657482E+02  0.77903231474E+02  0.61702253635E+02  0.10480751783E+03  0.00000000000E+00 0. -1.
         -1    1    3    3    0  502 -0.25738284293E+02  0.52522743981E+03  0.29162293056E+03  0.60130712322E+03  0.00000000000E+00 0.  1.
         13    1    5    5    0    0 -0.64641358424E+01  0.48100515654E+01 -0.70094566898E+02  0.70556147549E+02  0.00000000000E+00 0.  1.
        -13    1    5    5    0    0 -0.14391185477E+03  0.18709536050E+03 -0.31493637393E+03  0.39357364685E+03  0.00000000000E+00 0. -1.
          2    1    6    6  503    0  0.79080228710E+02 -0.34553229023E+03 -0.30384421485E+03  0.46686995305E+03  0.00000000000E+00 0. -1.
         -2    1    6    6    0  503  0.13032870368E+03 -0.44950379312E+03 -0.27836142300E+03  0.54454046024E+03  0.00000000000E+00 0.  1.
<mgrwt>
<rscale>  0 0.20934972E+04</rscale>
<asrwt>0</asrwt>
<pdfrwt beam="1">  1        2 0.21504356E+00 0.20934972E+04</pdfrwt>
<pdfrwt beam="2">  1       -1 0.12059565E+00 0.20934972E+04</pdfrwt>
<totfact> 0.93268480E+00</totfact>
</mgrwt>
</event>
<event>
12    7  0.1544987E-007  0.1129414E+04  0.7818608E-02  0.9176988E-01
         -1   -1    0    0    0  501 -0.00000000000E+00  0.00000000000E+00  0.41928612540E+03  0.41928612540E+03  0.00000000000E+00 0.  1.
          2   -1    0    0  501    0  0.00000000000E+00 -0.00000000000E+00 -0.76056396609E+03  0.76056396609E+03  0.00000000000E+00 0. -1.
         24    2    1    2    0    0  0.79518012513E+02  0.98505455022E+02 -0.21450550987E+03  0.26444559167E+03  0.88839283017E+02 0.  0.
        254    2    1    2    0    0 -0.79518012513E+02 -0.98505455022E+02 -0.12677233082E+03  0.91540449983E+03  0.89770136207E+03 0.  0.
         23    2    4    4    0    0 -0.40422939648E+03  0.19354869169E+03 -0.10216703749E+03  0.46895293775E+03  0.92823775192E+02 0.  0.
         23    2    4    4    0    0  0.32471138396E+03 -0.29205414672E+03 -0.24605293338E+02  0.44645156208E+03  0.89333472627E+02 0.  0.
          2    1    3    3  502    0  0.96951019121E+02  0.95928303985E+02 -0.18153466634E+03  0.22706072910E+03  0.00000000000E+00 0. -1.
         -1    1    3    3    0  502 -0.17433006608E+02  0.25771510376E+01 -0.32970843523E+02  0.37384862571E+02  0.00000000000E+00 0.  1.
         13    1    5    5    0    0 -0.14491676848E+03  0.11124398644E+03 -0.67180215202E+02  0.19465167767E+03  0.00000000000E+00 0. -1.
        -13    1    5    5    0    0 -0.25931262800E+03  0.82304705256E+02 -0.34986822284E+02  0.27430126008E+03  0.00000000000E+00 0.  1.
          2    1    6    6  503    0  0.18426689987E+03 -0.21290711946E+03  0.92444973632E+01  0.28172538515E+03  0.00000000000E+00 0. -1.
         -2    1    6    6    0  503  0.14044448409E+03 -0.79147027255E+02 -0.33849790701E+02  0.16472617693E+03  0.00000000000E+00 0.  1.
<mgrwt>
<rscale>  0 0.11294139E+04</rscale>
<asrwt>0</asrwt>
<pdfrwt beam="1">  1        2 0.11700984E+00 0.11294139E+04</pdfrwt>
<pdfrwt beam="2">  1       -1 0.64505558E-01 0.11294139E+04</pdfrwt>
<totfact> 0.10156897E+02</totfact>
</mgrwt>
</event>
<event>
12    7  0.1544987E-007  0.1420554E+04  0.7818608E-02  0.8939073E-01
          2   -1    0    0  501    0  0.00000000000E+00  0.00000000000E+00  0.18025761051E+04  0.18025761051E+04  0.00000000000E+00 0. -1.
         -1   -1    0    0    0  501 -0.00000000000E+00 -0.00000000000E+00 -0.27987370411E+03  0.27987370411E+03  0.00000000000E+00 0.  1.
         24    2    1    2    0    0  0.36299246381E+03 -0.20665460727E+03  0.22143715868E+03  0.47796236212E+03  0.70313219729E+02 0.  0.
        254    2    1    2    0    0 -0.36299246381E+03  0.20665460727E+03  0.13012652423E+04  0.16044874471E+04  0.84060637731E+03 0.  0.
         23    2    4    4    0    0 -0.28015326270E+03 -0.29783304893E+03  0.54969217518E+03  0.69090156889E+03  0.89404221413E+02 0.  0.
         23    2    4    4    0    0 -0.82839201107E+02  0.50448765620E+03  0.75157306716E+03  0.91358587823E+03  0.91689438465E+02 0.  0.
          2    1    3    3  502    0  0.29021280329E+03 -0.17137530537E+03  0.20778443903E+03  0.39593855532E+03  0.00000000000E+00 0. -1.
         -1    1    3    3    0  502  0.72779660523E+02 -0.35279301893E+02  0.13652719647E+02  0.82023806798E+02  0.00000000000E+00 0.  1.
         13    1    5    5    0    0 -0.21264284678E+03 -0.25867103715E+03  0.39654661209E+03  0.51901531896E+03  0.00000000000E+00 0. -1.
        -13    1    5    5    0    0 -0.67510415919E+02 -0.39162011780E+02  0.15314556308E+03  0.17188624993E+03  0.00000000000E+00 0.  1.
          1    1    6    6  503    0 -0.68240135920E+02  0.39915088124E+03  0.52263649480E+03  0.66115584233E+03  0.00000000000E+00 0. -1.
         -1    1    6    6    0  503 -0.14599065188E+02  0.10533677496E+03  0.22893657236E+03  0.25243003591E+03  0.00000000000E+00 0.  1.
<mgrwt>
<rscale>  0 0.14205543E+04</rscale>
<asrwt>0</asrwt>
<pdfrwt beam="1">  1        2 0.27731939E+00 0.14205543E+04</pdfrwt>
<pdfrwt beam="2">  1       -1 0.43057494E-01 0.14205543E+04</pdfrwt>
<totfact> 0.50632981E+01</totfact>
</mgrwt>
</event>
<event>
12    7  0.1544987E-007  0.1362741E+04  0.7818608E-02  0.8981239E-01
          2   -1    0    0  501    0  0.00000000000E+00  0.00000000000E+00  0.25453998217E+04  0.25453998217E+04  0.00000000000E+00 0. -1.
         -1   -1    0    0    0  501 -0.00000000000E+00 -0.00000000000E+00 -0.18239407857E+03  0.18239407857E+03  0.00000000000E+00 0.  1.
         24    2    1    2    0    0 -0.16463460501E+03  0.17482392515E+03  0.12310534838E+04  0.12570476068E+04  0.83714083604E+02 0.  0.
        254    2    1    2    0    0  0.16463460501E+03 -0.17482392515E+03  0.11319522593E+04  0.14707462934E+04  0.90780547717E+03 0.  0.
         23    2    4    4    0    0 -0.15294603633E+03 -0.19049421294E+03 -0.31670743152E+02  0.26104830800E+03  0.86386619022E+02 0.  0.
         23    2    4    4    0    0  0.31758064134E+03  0.15670287793E+02  0.11636230024E+04  0.12096979854E+04  0.90816862334E+02 0.  0.
          4    1    3    3  502    0 -0.11299644494E+03  0.12046786584E+03  0.62822461111E+03  0.64957437240E+03  0.00000000000E+00 0. -1.
         -3    1    3    3    0  502 -0.51638160075E+02  0.54356059310E+02  0.60282887271E+03  0.60747323442E+03  0.00000000000E+00 0.  1.
         13    1    5    5    0    0 -0.14875168113E+03 -0.19636716948E+03 -0.40489620884E+02  0.24965283353E+03  0.00000000000E+00 0.  1.
        -13    1    5    5    0    0 -0.41943551983E+01  0.58729565395E+01  0.88188777317E+01  0.11395474474E+02  0.00000000000E+00 0. -1.
          1    1    6    6  503    0  0.10630327436E+03 -0.28155379723E+01  0.24807462518E+03  0.26990615601E+03  0.00000000000E+00 0. -1.
         -1    1    6    6    0  503  0.21127736699E+03  0.18485825765E+02  0.91554837727E+03  0.93979182944E+03  0.00000000000E+00 0.  1.
<mgrwt>
<rscale>  0 0.13627411E+04</rscale>
<asrwt>0</asrwt>
<pdfrwt beam="1">  1        2 0.39159995E+00 0.13627411E+04</pdfrwt>
<pdfrwt beam="2">  1       -1 0.28060629E-01 0.13627411E+04</pdfrwt>
<totfact> 0.41948991E+01</totfact>
</mgrwt>
</event>
<event>
12    7  0.1544987E-007  0.2024894E+04  0.7818608E-02  0.8595070E-01
          2   -1    0    0  501    0  0.00000000000E+00  0.00000000000E+00  0.17105262018E+04  0.17105262018E+04  0.00000000000E+00 0. -1.
         -1   -1    0    0    0  501 -0.00000000000E+00 -0.00000000000E+00 -0.59925946841E+03  0.59925946841E+03  0.00000000000E+00 0.  1.
         24    2    1    2    0    0  0.27977322198E+03  0.29112102258E+03 -0.36008335927E+03  0.54650654778E+03  0.77361977867E+02 0.  0.
        254    2    1    2    0    0 -0.27977322198E+03 -0.29112102258E+03  0.14713500926E+04  0.17632791224E+04  0.88388781123E+03 0.  0.
         23    2    4    4    0    0  0.84717543342E+02  0.25969408962E+03  0.30157335758E+03  0.41697669331E+03  0.91131720217E+02 0.  0.
         23    2    4    4    0    0 -0.36449076532E+03 -0.55081511220E+03  0.11697767350E+04  0.13463024291E+04  0.88892152857E+02 0.  0.
          2    1    3    3  502    0  0.51335406049E+02  0.96927167314E+02 -0.11844871302E+03  0.16143202066E+03  0.00000000000E+00 0. -1.
         -1    1    3    3    0  502  0.22843781593E+03  0.19419385527E+03 -0.24163464625E+03  0.38507452712E+03  0.00000000000E+00 0.  1.
         13    1    5    5    0    0  0.85372126875E+01  0.13355410017E+03  0.18878539960E+03  0.23140766793E+03  0.00000000000E+00 0.  1.
        -13    1    5    5    0    0  0.76180330654E+02  0.12613998945E+03  0.11278795798E+03  0.18556902539E+03  0.00000000000E+00 0. -1.
          1    1    6    6  503    0 -0.20778269067E+03 -0.23486056152E+03  0.53477189120E+03  0.61993072638E+03  0.00000000000E+00 0. -1.
         -1    1    6    6    0  503 -0.15670807465E+03 -0.31595455068E+03  0.63500484385E+03  0.72637170269E+03  0.00000000000E+00 0.  1.
<mgrwt>
<rscale>  0 0.20248941E+04</rscale>
<asrwt>0</asrwt>
<pdfrwt beam="1">  1        2 0.26315788E+00 0.20248941E+04</pdfrwt>
<pdfrwt beam="2">  1       -1 0.92193765E-01 0.20248941E+04</pdfrwt>
<totfact> 0.11699213E+01</totfact>
</mgrwt>
</event>
<event>
12    7  0.1544987E-007  0.1357159E+04  0.7818608E-02  0.8985427E-01
         -1   -1    0    0    0  501 -0.00000000000E+00  0.00000000000E+00  0.19363859726E+03  0.19363859726E+03  0.00000000000E+00 0.  1.
          2   -1    0    0  501    0  0.00000000000E+00 -0.00000000000E+00 -0.23779870031E+04  0.23779870031E+04  0.00000000000E+00 0. -1.
         24    2    1    2    0    0  0.34108448397E+03  0.11160315523E+02 -0.32839741946E+03  0.48030431376E+03  0.79901131815E+02 0.  0.
        254    2    1    2    0    0 -0.34108448397E+03 -0.11160315523E+02 -0.18559509864E+04  0.20913212866E+04  0.90144743724E+03 0.  0.
         23    2    4    4    0    0  0.17795482556E+03  0.18373049872E+03 -0.18380363458E+03  0.32727440049E+03  0.88881612453E+02 0.  0.
         23    2    4    4    0    0 -0.51903930953E+03 -0.19489081424E+03 -0.16721473518E+04  0.17640468861E+04  0.91653783076E+02 0.  0.
          4    1    3    3  502    0  0.37118744616E+02 -0.23215258505E+02 -0.30840354983E+02  0.53552562261E+02  0.00000000000E+00 0. -1.
         -3    1    3    3    0  502  0.30396573935E+03  0.34375574028E+02 -0.29755706448E+03  0.42675175150E+03  0.00000000000E+00 0.  1.
         13    1    5    5    0    0  0.42402472850E+02  0.42316659126E+02 -0.18747162023E+01  0.59934830476E+02  0.00000000000E+00 0. -1.
        -13    1    5    5    0    0  0.13555235271E+03  0.14141383959E+03 -0.18192891838E+03  0.26733957001E+03  0.00000000000E+00 0.  1.
          2    1    6    6  503    0 -0.35270408456E+01 -0.32054992449E+01 -0.12062518429E+01  0.49163285127E+01  0.00000000000E+00 0. -1.
         -2    1    6    6    0  503 -0.51551226868E+03 -0.19168531500E+03 -0.16709411000E+04  0.17591305576E+04  0.00000000000E+00 0.  1.
<mgrwt>
<rscale>  0 0.13571589E+04</rscale>
<asrwt>0</asrwt>
<pdfrwt beam="1">  1        2 0.36584417E+00 0.13571589E+04</pdfrwt>
<pdfrwt beam="2">  1       -1 0.29790553E-01 0.13571589E+04</pdfrwt>
<totfact> 0.47154414E+01</totfact>
</mgrwt>
</event>
<event>
12    7  0.1544987E-007  0.1288906E+04  0.7818608E-02  0.9038409E-01
         -1   -1    0    0    0  501 -0.00000000000E+00  0.00000000000E+00  0.56176611107E+03  0.56176611107E+03  0.00000000000E+00 0.  1.
          2   -1    0    0  501    0  0.00000000000E+00 -0.00000000000E+00 -0.73931113762E+03  0.73931113762E+03  0.00000000000E+00 0. -1.
         24    2    1    2    0    0 -0.66386933825E+02  0.41559699138E+02 -0.36891681265E+03  0.38542579279E+03  0.79492097212E+02 0.  0.
        254    2    1    2    0    0  0.66386933825E+02 -0.41559699138E+02  0.19137178610E+03  0.91565145589E+03  0.89199775481E+03 0.  0.
         23    2    4    4    0    0 -0.31529134668E+03 -0.30758445405E+02 -0.17992763862E+03  0.37530915879E+03  0.90157053394E+02 0.  0.
         23    2    4    4    0    0  0.38167828051E+03 -0.10801253733E+02  0.37129942472E+03  0.54034229711E+03  0.91167748415E+02 0.  0.
          2    1    3    3  502    0 -0.23358914614E+02  0.13401562502E+02 -0.28991091646E+03  0.29115902915E+03  0.00000000000E+00 0. -1.
         -1    1    3    3    0  502 -0.43028019211E+02  0.28158136636E+02 -0.79005896189E+02  0.94266763648E+02  0.00000000000E+00 0.  1.
         13    1    5    5    0    0 -0.59196513279E+02  0.29510214820E+01 -0.77198139772E+02  0.97326710088E+02  0.00000000000E+00 0. -1.
        -13    1    5    5    0    0 -0.25609483340E+03 -0.33709466887E+02 -0.10272949885E+03  0.27798244870E+03  0.00000000000E+00 0.  1.
          2    1    6    6  503    0  0.83031781526E+01  0.16031628100E+02  0.20586555892E+02  0.27381785012E+02  0.00000000000E+00 0. -1.
         -2    1    6    6    0  503  0.37337510235E+03 -0.26832881833E+02  0.35071286883E+03  0.51296051209E+03  0.00000000000E+00 0.  1.
<mgrwt>
<rscale>  0 0.12889064E+04</rscale>
<asrwt>0</asrwt>
<pdfrwt beam="1">  1        2 0.11374018E+00 0.12889064E+04</pdfrwt>
<pdfrwt beam="2">  1       -1 0.86425555E-01 0.12889064E+04</pdfrwt>
<totfact> 0.56535991E+01</totfact>
</mgrwt>
</event>
<event>
12    7  0.1544987E-007  0.3353623E+04  0.7818608E-02  0.8149384E-01
          2   -1    0    0  501    0  0.00000000000E+00  0.00000000000E+00  0.28760961895E+04  0.28760961895E+04  0.00000000000E+00 0. -1.
         -1   -1    0    0    0  501 -0.00000000000E+00 -0.00000000000E+00 -0.97760859442E+03  0.97760859442E+03  0.00000000000E+00 0.  1.
         24    2    1    2    0    0 -0.14782676490E+04  0.43641555073E+03  0.11228489624E+04  0.19078017295E+04  0.56425808229E+02 0.  0.
        254    2    1    2    0    0  0.14782676490E+04 -0.43641555073E+03  0.77563863265E+03  0.19459030544E+04  0.89954968390E+03 0.  0.
         23    2    4    4    0    0  0.39984659696E+03 -0.28645050211E+03  0.68731291403E+03  0.84984975865E+03  0.88962796879E+02 0.  0.
         23    2    4    4    0    0  0.10784210520E+04 -0.14996504862E+03  0.88325718615E+02  0.10960532958E+04  0.89721309347E+02 0.  0.
          4    1    3    3  502    0 -0.25420744512E+03  0.65925893809E+02  0.16778863721E+03  0.31164190252E+03  0.00000000000E+00 0. -1.
         -1    1    3    3    0  502 -0.12240602039E+04  0.37048965692E+03  0.95506032523E+03  0.15961598270E+04  0.00000000000E+00 0.  1.
         13    1    5    5    0    0  0.34055538524E+03 -0.20980456242E+03  0.58745705724E+03  0.71070508577E+03  0.00000000000E+00 0. -1.
        -13    1    5    5    0    0  0.59291211718E+02 -0.76645939688E+02  0.99855856792E+02  0.13914467289E+03  0.00000000000E+00 0.  1.
          4    1    6    6  503    0  0.44916414120E+03 -0.93193509939E+02  0.48988797881E+01  0.45875642236E+03  0.00000000000E+00 0. -1.
         -4    1    6    6    0  503  0.62925691081E+03 -0.56771538678E+02  0.83426838827E+02  0.63729687340E+03  0.00000000000E+00 0.  1.
<mgrwt>
<rscale>  0 0.33536227E+04</rscale>
<asrwt>0</asrwt>
<pdfrwt beam="1">  1        2 0.44247633E+00 0.33536227E+04</pdfrwt>
<pdfrwt beam="2">  1       -1 0.15040132E+00 0.33536227E+04</pdfrwt>
<totfact> 0.67957148E-01</totfact>
</mgrwt>
</event>
<event>
12    7  0.1544987E-007  0.1878668E+04  0.7818608E-02  0.8665548E-01
         -1   -1    0    0    0  501 -0.00000000000E+00  0.00000000000E+00  0.41314467748E+03  0.41314467748E+03  0.00000000000E+00 0.  1.
          2   -1    0    0  501    0  0.00000000000E+00 -0.00000000000E+00 -0.21356888317E+04  0.21356888317E+04  0.00000000000E+00 0. -1.
         24    2    1    2    0    0  0.10496275238E+03  0.42829561492E+03  0.92405541928E+02  0.45948553097E+03  0.90187891897E+02 0.  0.
        254    2    1    2    0    0 -0.10496275238E+03 -0.42829561492E+03 -0.18149496961E+04  0.20893479782E+04  0.93641778139E+03 0.  0.
         23    2    4    4    0    0 -0.34422700959E+03  0.10913827921E+03 -0.10859349201E+04  0.11481319208E+04  0.92460038845E+02 0.  0.
         23    2    4    4    0    0  0.23926425721E+03 -0.53743389413E+03 -0.72901477601E+03  0.94121605735E+03  0.91337547783E+02 0.  0.
          2    1    3    3  502    0  0.47752302154E+02  0.11465585329E+03 -0.10060153025E+02  0.12460920404E+03  0.00000000000E+00 0. -1.
         -1    1    3    3    0  502  0.57210450227E+02  0.31363976164E+03  0.10246569495E+03  0.33487632693E+03  0.00000000000E+00 0.  1.
         13    1    5    5    0    0 -0.24047275322E+03  0.56035863575E+02 -0.60877248391E+03  0.65694071286E+03  0.00000000000E+00 0.  1.
        -13    1    5    5    0    0 -0.10375425637E+03  0.53102415634E+02 -0.47716243620E+03  0.49119120797E+03  0.00000000000E+00 0. -1.
          1    1    6    6  503    0  0.30190618341E+02 -0.68157682334E+02 -0.50040104491E+02  0.89782822157E+02  0.00000000000E+00 0. -1.
         -1    1    6    6    0  503  0.20907363886E+03 -0.46927621180E+03 -0.67897467152E+03  0.85143323519E+03  0.00000000000E+00 0.  1.
<mgrwt>
<rscale>  0 0.18786681E+04</rscale>
<asrwt>0</asrwt>
<pdfrwt beam="1">  1        2 0.32856752E+00 0.18786681E+04</pdfrwt>
<pdfrwt beam="2">  1       -1 0.63560719E-01 0.18786681E+04</pdfrwt>
<totfact> 0.15050258E+01</totfact>
</mgrwt>
</event>
<event>
12    7  0.1544987E-007  0.1522682E+04  0.7818608E-02  0.8869509E-01
         -1   -1    0    0    0  501 -0.00000000000E+00  0.00000000000E+00  0.21087496692E+03  0.21087496692E+03  0.00000000000E+00 0.  1.
          2   -1    0    0  501    0  0.00000000000E+00 -0.00000000000E+00 -0.27487367826E+04  0.27487367826E+04  0.00000000000E+00 0. -1.
         24    2    1    2    0    0  0.20823509717E+03 -0.44045728324E+03 -0.76714903193E+03  0.91234879991E+03  0.80611546666E+02 0.  0.
        254    2    1    2    0    0 -0.20823509717E+03  0.44045728324E+03 -0.17707127838E+04  0.20472629496E+04  0.90470843274E+03 0.  0.
         23    2    4    4    0    0 -0.50061159395E+03  0.43707227732E+02 -0.70949606270E+03  0.87358455715E+03  0.85105967804E+02 0.  0.
         23    2    4    4    0    0  0.29237649679E+03  0.39675005551E+03 -0.10612167211E+04  0.11736783925E+04  0.91898952497E+02 0.  0.
          4    1    3    3  502    0  0.15412524129E+03 -0.36611419241E+03 -0.66751803646E+03  0.77677185897E+03  0.00000000000E+00 0. -1.
         -3    1    3    3    0  502  0.54109855870E+02 -0.74343090830E+02 -0.99630995473E+02  0.13557694094E+03  0.00000000000E+00 0.  1.
         13    1    5    5    0    0 -0.48170823921E+03  0.58909579210E+02 -0.67158580761E+03  0.82857749379E+03  0.00000000000E+00 0. -1.
        -13    1    5    5    0    0 -0.18903354745E+02 -0.15202351479E+02 -0.37910255090E+02  0.45007063357E+02  0.00000000000E+00 0.  1.
          1    1    6    6  503    0  0.25472261407E+03  0.37966808287E+03 -0.93375021420E+03  0.10396734707E+04  0.00000000000E+00 0. -1.
         -1    1    6    6    0  503  0.37653882711E+02  0.17081972639E+02 -0.12746650686E+03  0.13400492172E+03  0.00000000000E+00 0.  1.
<mgrwt>
<rscale>  0 0.15226816E+04</rscale>
<asrwt>0</asrwt>
<pdfrwt beam="1">  1        2 0.42288256E+00 0.15226816E+04</pdfrwt>
<pdfrwt beam="2">  1       -1 0.32442305E-01 0.15226816E+04</pdfrwt>
<totfact> 0.24345231E+01</totfact>
</mgrwt>
</event>
<event>
12    7  0.1544987E-007  0.1330807E+04  0.7818608E-02  0.9005486E-01
          2   -1    0    0  501    0  0.00000000000E+00  0.00000000000E+00  0.19493997118E+04  0.19493997118E+04  0.00000000000E+00 0. -1.
         -1   -1    0    0    0  501 -0.00000000000E+00 -0.00000000000E+00 -0.22712723258E+03  0.22712723258E+03  0.00000000000E+00 0.  1.
         24    2    1    2    0    0 -0.55509206159E+02 -0.22014081000E+03  0.23666788553E+02  0.24081694821E+03  0.76742670455E+02 0.  0.
        254    2    1    2    0    0  0.55509206159E+02  0.22014081000E+03  0.16986056907E+04  0.19357099962E+04  0.90009368884E+03 0.  0.
         23    2    4    4    0    0  0.90443072627E+02  0.53564806684E+03  0.74914153503E+03  0.93038599445E+03  0.96468949730E+02 0.  0.
         23    2    4    4    0    0 -0.34933866469E+02 -0.31550725684E+03  0.94946415562E+03  0.10053240017E+04  0.91809375599E+02 0.  0.
          4    1    3    3  502    0 -0.16822299363E+02 -0.10553251585E+03  0.48462167075E+02  0.11734003279E+03  0.00000000000E+00 0. -1.
         -3    1    3    3    0  502 -0.38686906796E+02 -0.11460829416E+03 -0.24795378522E+02  0.12347691543E+03  0.00000000000E+00 0.  1.
         13    1    5    5    0    0  0.23984817597E+02  0.75226538668E+02  0.17082586061E+03  0.18819080277E+03  0.00000000000E+00 0. -1.
        -13    1    5    5    0    0  0.66458255030E+02  0.46042152817E+03  0.57831567442E+03  0.74219519168E+03  0.00000000000E+00 0.  1.
          3    1    6    6  503    0 -0.36021891014E+02 -0.22225341230E+03  0.53408270207E+03  0.57960200876E+03  0.00000000000E+00 0. -1.
         -3    1    6    6    0  503  0.10880245451E+01 -0.93253844533E+02  0.41538145356E+03  0.42572199295E+03  0.00000000000E+00 0.  1.
<mgrwt>
<rscale>  0 0.13308069E+04</rscale>
<asrwt>0</asrwt>
<pdfrwt beam="1">  1        2 0.29990764E+00 0.13308069E+04</pdfrwt>
<pdfrwt beam="2">  1       -1 0.34942653E-01 0.13308069E+04</pdfrwt>
<totfact> 0.61850158E+01</totfact>
</mgrwt>
</event>
<event>
12    7  0.1544987E-007  0.1577598E+04  0.7818608E-02  0.8834430E-01
         -3   -1    0    0    0  501 -0.00000000000E+00  0.00000000000E+00  0.91495092387E+03  0.91495092387E+03  0.00000000000E+00 0.  1.
          4   -1    0    0  501    0  0.00000000000E+00 -0.00000000000E+00 -0.68004059697E+03  0.68004059697E+03  0.00000000000E+00 0. -1.
         24    2    1    2    0    0  0.22645412852E+03  0.11261221149E+02 -0.39705461694E+03  0.46429245078E+03  0.80664884524E+02 0.  0.
        254    2    1    2    0    0 -0.22645412852E+03 -0.11261221149E+02  0.63196494385E+03  0.11306990701E+04  0.90977602153E+03 0.  0.
         23    2    4    4    0    0 -0.41325066187E+03 -0.33766379927E+03  0.44546067618E+03  0.70128153538E+03  0.92561476729E+02 0.  0.
         23    2    4    4    0    0  0.18679653335E+03  0.32640257812E+03  0.18650426767E+03  0.42941753467E+03  0.90465404149E+02 0.  0.
          2    1    3    3  502    0  0.12949990359E+03 -0.21018288710E+02 -0.16550014744E+03  0.21119254791E+03  0.00000000000E+00 0. -1.
         -1    1    3    3    0  502  0.96954224925E+02  0.32279509859E+02 -0.23155446950E+03  0.25309990287E+03  0.00000000000E+00 0.  1.
         13    1    5    5    0    0 -0.37019910070E+03 -0.32623719863E+03  0.38333980216E+03  0.62484197030E+03  0.00000000000E+00 0. -1.
        -13    1    5    5    0    0 -0.43051561168E+02 -0.11426600645E+02  0.62120874021E+02  0.76439565085E+02  0.00000000000E+00 0.  1.
          3    1    6    6  503    0  0.14251975353E+03  0.28635746864E+03  0.12420495377E+03  0.34313168104E+03  0.00000000000E+00 0. -1.
         -3    1    6    6    0  503  0.44276779819E+02  0.40045109487E+02  0.62299313904E+02  0.86285853637E+02  0.00000000000E+00 0.  1.
<mgrwt>
<rscale>  0 0.15775979E+04</rscale>
<asrwt>0</asrwt>
<pdfrwt beam="1">  1        4 0.10462163E+00 0.15775979E+04</pdfrwt>
<pdfrwt beam="2">  1       -3 0.14076168E+00 0.15775979E+04</pdfrwt>
<totfact> 0.61840803E-01</totfact>
</mgrwt>
</event>
<event>
12    7  0.1626981E-007  0.1937531E+04  0.7818608E-02  0.8636397E-01
         -1   -1    0    0    0  501 -0.00000000000E+00  0.00000000000E+00  0.89978912826E+03  0.89978912826E+03  0.00000000000E+00 0.  1.
          2   -1    0    0  501    0  0.00000000000E+00 -0.00000000000E+00 -0.10430299807E+04  0.10430299807E+04  0.00000000000E+00 0. -1.
         24    2    1    2    0    0 -0.22591367062E+03 -0.16019896868E+03  0.66487901946E+03  0.72527696305E+03  0.85216585707E+02 0.  0.
        254    2    1    2    0    0  0.22591367062E+03  0.16019896868E+03 -0.80811987188E+03  0.12175421459E+04  0.86755429430E+03 0.  0.
         23    2    4    4    0    0 -0.29619887101E+03  0.72792307351E+02 -0.51519201301E+03  0.60559098391E+03  0.91022735181E+02 0.  0.
         23    2    4    4    0    0  0.52211254163E+03  0.87406661325E+02 -0.29292785887E+03  0.61195116198E+03  0.91848046131E+02 0.  0.
          4    1    3    3  502    0 -0.30476116781E+02 -0.35324430721E+02  0.51369818984E+02  0.69393568883E+02  0.00000000000E+00 0. -1.
         -3    1    3    3    0  502 -0.19543755384E+03 -0.12487453795E+03  0.61350920047E+03  0.65588339417E+03  0.00000000000E+00 0.  1.
         13    1    5    5    0    0 -0.30090316562E+03  0.77802369017E+02 -0.49739566656E+03  0.58651374478E+03  0.00000000000E+00 0. -1.
        -13    1    5    5    0    0  0.47042946072E+01 -0.50100616658E+01 -0.17796346447E+02  0.19077239122E+02  0.00000000000E+00 0.  1.
          1    1    6    6  503    0  0.43954487721E+03  0.94536898251E+02 -0.21566250338E+03  0.49864540464E+03  0.00000000000E+00 0. -1.
         -1    1    6    6    0  503  0.82567664424E+02 -0.71302369264E+01 -0.77265355486E+02  0.11330575734E+03  0.00000000000E+00 0.  1.
<mgrwt>
<rscale>  0 0.19375315E+04</rscale>
<asrwt>0</asrwt>
<pdfrwt beam="1">  1        2 0.16046615E+00 0.19375315E+04</pdfrwt>
<pdfrwt beam="2">  1       -1 0.13842910E+00 0.19375315E+04</pdfrwt>
<totfact> 0.10873483E+01</totfact>
</mgrwt>
</event>
<event>
12    7  0.1544987E-007  0.1589040E+04  0.7818608E-02  0.8827310E-01
         -1   -1    0    0    0  501 -0.00000000000E+00  0.00000000000E+00  0.29282640588E+03  0.29282640588E+03  0.00000000000E+00 0.  1.
          2   -1    0    0  501    0  0.00000000000E+00 -0.00000000000E+00 -0.21557553640E+04  0.21557553640E+04  0.00000000000E+00 0. -1.
         24    2    1    2    0    0 -0.32985646584E+03 -0.38996227838E+03 -0.43133388488E+03  0.67294320597E+03  0.76992023019E+02 0.  0.
        254    2    1    2    0    0  0.32985646584E+03  0.38996227838E+03 -0.14315950733E+04  0.17756385640E+04  0.91790630749E+03 0.  0.
         23    2    4    4    0    0  0.77584043965E+01  0.17062991685E+03  0.81461524409E+02  0.21066766217E+03  0.92574956450E+02 0.  0.
         23    2    4    4    0    0  0.32209806144E+03  0.21933236153E+03 -0.15130565977E+04  0.15649709018E+04  0.89105609304E+02 0.  0.
          2    1    3    3  502    0 -0.11894028254E+03 -0.15281600349E+03 -0.21215728427E+03  0.28724594863E+03  0.00000000000E+00 0. -1.
         -1    1    3    3    0  502 -0.21091618330E+03 -0.23714627489E+03 -0.21917660060E+03  0.38569725734E+03  0.00000000000E+00 0.  1.
         13    1    5    5    0    0 -0.22361546484E+02  0.41346372240E+02  0.59964447786E+02  0.76192494754E+02  0.00000000000E+00 0.  1.
        -13    1    5    5    0    0  0.30119950881E+02  0.12928354461E+03  0.21497076623E+02  0.13447516741E+03  0.00000000000E+00 0. -1.
          3    1    6    6  503    0  0.14543184278E+03  0.72662251027E+02 -0.78129567178E+03  0.79803079537E+03  0.00000000000E+00 0. -1.
         -3    1    6    6    0  503  0.17666621867E+03  0.14667011050E+03 -0.73176092591E+03  0.76694010641E+03  0.00000000000E+00 0.  1.
<mgrwt>
<rscale>  0 0.15890401E+04</rscale>
<asrwt>0</asrwt>
<pdfrwt beam="1">  1        2 0.33165467E+00 0.15890401E+04</pdfrwt>
<pdfrwt beam="2">  1       -1 0.45050217E-01 0.15890401E+04</pdfrwt>
<totfact> 0.29230622E+01</totfact>
</mgrwt>
</event>
<event>
12    7  0.1544987E-007  0.2675007E+04  0.7818608E-02  0.8343160E-01
          2   -1    0    0  501    0  0.00000000000E+00  0.00000000000E+00  0.23351837652E+04  0.23351837652E+04  0.00000000000E+00 0. -1.
         -1   -1    0    0    0  501 -0.00000000000E+00 -0.00000000000E+00 -0.76607078472E+03  0.76607078472E+03  0.00000000000E+00 0.  1.
         24    2    1    2    0    0  0.74205523913E+03  0.36742338469E+03  0.16397241888E+04  0.18386629282E+04  0.79624285007E+02 0.  0.
        254    2    1    2    0    0 -0.74205523913E+03 -0.36742338469E+03 -0.70611208252E+02  0.12625916218E+04  0.95052918897E+03 0.  0.
         23    2    4    4    0    0 -0.22239823288E+03 -0.49085127956E+03  0.28293265024E+03  0.61550036924E+03  0.91618051361E+02 0.  0.
         23    2    4    4    0    0 -0.51965700625E+03  0.12342789486E+03 -0.35354385849E+03  0.64709125252E+03  0.91956401850E+02 0.  0.
          2    1    3    3  502    0  0.47395026959E+03  0.27402588032E+03  0.10497414590E+04  0.11839240566E+04  0.00000000000E+00 0. -1.
         -1    1    3    3    0  502  0.26810496954E+03  0.93397504372E+02  0.58998272980E+03  0.65473887159E+03  0.00000000000E+00 0.  1.
         13    1    5    5    0    0 -0.65925672036E+02 -0.83771980922E+02  0.27519994414E+02  0.11009672617E+03  0.00000000000E+00 0. -1.
        -13    1    5    5    0    0 -0.15647256084E+03 -0.40707929863E+03  0.25541265582E+03  0.50540364307E+03  0.00000000000E+00 0.  1.
          3    1    6    6  503    0 -0.27096739947E+03  0.10201892442E+03 -0.22263787560E+03  0.36523802673E+03  0.00000000000E+00 0. -1.
         -3    1    6    6    0  503 -0.24868960678E+03  0.21408970442E+02 -0.13090598289E+03  0.28185322580E+03  0.00000000000E+00 0.  1.
<mgrwt>
<rscale>  0 0.26750073E+04</rscale>
<asrwt>0</asrwt>
<pdfrwt beam="1">  1        2 0.35925904E+00 0.26750073E+04</pdfrwt>
<pdfrwt beam="2">  1       -1 0.11785704E+00 0.26750073E+04</pdfrwt>
<totfact> 0.27995814E+00</totfact>
</mgrwt>
</event>
<event>
12    7  0.1544987E-007  0.2991869E+04  0.7818608E-02  0.8246057E-01
          2   -1    0    0  501    0  0.00000000000E+00  0.00000000000E+00  0.18498494046E+04  0.18498494046E+04  0.00000000000E+00 0. -1.
         -1   -1    0    0    0  501 -0.00000000000E+00 -0.00000000000E+00 -0.12097306133E+04  0.12097306133E+04  0.00000000000E+00 0.  1.
         24    2    1    2    0    0  0.67562261948E+03 -0.77773412813E+03 -0.61484008178E+03  0.12024194690E+04  0.80299160827E+02 0.  0.
        254    2    1    2    0    0 -0.67562261948E+03  0.77773412813E+03  0.12549588731E+04  0.18571605490E+04  0.90154713327E+03 0.  0.
         23    2    4    4    0    0 -0.47169829000E+03  0.89799306679E+03  0.12381568698E+04  0.16032321382E+04  0.91815194304E+02 0.  0.
         23    2    4    4    0    0 -0.20392432948E+03 -0.12025893865E+03  0.16802003275E+02  0.25392841078E+03  0.90277272915E+02 0.  0.
          2    1    3    3  502    0  0.10570217604E+03 -0.97930340137E+02 -0.11373441295E+03  0.18357237872E+03  0.00000000000E+00 0. -1.
         -1    1    3    3    0  502  0.56992044344E+03 -0.67980378800E+03 -0.50110566883E+03  0.10188470903E+04  0.00000000000E+00 0.  1.
         13    1    5    5    0    0 -0.27249889467E+03  0.51100029713E+03  0.63485863811E+03  0.85931510032E+03  0.00000000000E+00 0. -1.
        -13    1    5    5    0    0 -0.19919939533E+03  0.38699276966E+03  0.60329823168E+03  0.74391703786E+03  0.00000000000E+00 0.  1.
          2    1    6    6  503    0 -0.15574076032E+03 -0.12496035920E+03  0.34005185075E+02  0.20255031081E+03  0.00000000000E+00 0. -1.
         -2    1    6    6    0  503 -0.48183569159E+02  0.47014205478E+01 -0.17203181799E+02  0.51378099966E+02  0.00000000000E+00 0.  1.
<mgrwt>
<rscale>  0 0.29918686E+04</rscale>
<asrwt>0</asrwt>
<pdfrwt beam="1">  1        2 0.28459222E+00 0.29918686E+04</pdfrwt>
<pdfrwt beam="2">  1       -1 0.18611240E+00 0.29918686E+04</pdfrwt>
<totfact> 0.14853247E+00</totfact>
</mgrwt>
</event>
<event>
12    7  0.1544987E-007  0.2141608E+04  0.7818608E-02  0.8543133E-01
         -1   -1    0    0    0  501 -0.00000000000E+00  0.00000000000E+00  0.69777256701E+03  0.69777256701E+03  0.00000000000E+00 0.  1.
          2   -1    0    0  501    0  0.00000000000E+00 -0.00000000000E+00 -0.16432584817E+04  0.16432584817E+04  0.00000000000E+00 0. -1.
         24    2    1    2    0    0 -0.27685355938E+03 -0.14453705166E+03 -0.12972781563E+04  0.13367411837E+04  0.80047015645E+02 0.  0.
        254    2    1    2    0    0  0.27685355938E+03  0.14453705166E+03  0.35179224161E+03  0.10042898650E+04  0.88730011782E+03 0.  0.
         23    2    4    4    0    0  0.45028678928E+03  0.39246621536E+03  0.12751459910E+03  0.61721664771E+03  0.88929716235E+02 0.  0.
         23    2    4    4    0    0 -0.17343322990E+03 -0.24792916370E+03  0.22427764251E+03  0.38707321731E+03  0.89315503582E+02 0.  0.
          2    1    3    3  502    0 -0.27825442161E+03 -0.14727468296E+03 -0.12386803714E+04  0.12780627598E+04  0.00000000000E+00 0. -1.
         -3    1    3    3    0  502  0.14008622284E+01  0.27376313016E+01 -0.58597784856E+02  0.58678423890E+02  0.00000000000E+00 0.  1.
         13    1    5    5    0    0  0.36440497618E+03  0.28877495928E+03  0.12918799088E+03  0.48256761263E+03  0.00000000000E+00 0. -1.
        -13    1    5    5    0    0  0.85881813097E+02  0.10369125608E+03 -0.16733917717E+01  0.13464903508E+03  0.00000000000E+00 0.  1.
          1    1    6    6  503    0 -0.98969894107E+02 -0.13656798878E+03  0.17831985882E+03  0.24544618055E+03  0.00000000000E+00 0. -1.
         -1    1    6    6    0  503 -0.74463335794E+02 -0.11136117492E+03  0.45957783684E+02  0.14162703675E+03  0.00000000000E+00 0.  1.
<mgrwt>
<rscale>  0 0.21416075E+04</rscale>
<asrwt>0</asrwt>
<pdfrwt beam="1">  1        2 0.25280900E+00 0.21416075E+04</pdfrwt>
<pdfrwt beam="2">  1       -1 0.10734963E+00 0.21416075E+04</pdfrwt>
<totfact> 0.89189578E+00</totfact>
</mgrwt>
</event>
<event>
12    7  0.1544987E-007  0.2752262E+04  0.7818608E-02  0.8318244E-01
          2   -1    0    0  501    0  0.00000000000E+00  0.00000000000E+00  0.21106416015E+04  0.21106416015E+04  0.00000000000E+00 0. -1.
         -1   -1    0    0    0  501 -0.00000000000E+00 -0.00000000000E+00 -0.89723270432E+03  0.89723270432E+03  0.00000000000E+00 0.  1.
         24    2    1    2    0    0 -0.52696366995E+03  0.82746843491E+03  0.13487369853E+04  0.16696897301E+04  0.79859996380E+02 0.  0.
        254    2    1    2    0    0  0.52696366995E+03 -0.82746843491E+03 -0.13532808820E+03  0.13381845757E+04  0.90001641477E+03 0.  0.
         23    2    4    4    0    0  0.49905539076E+03 -0.71612536539E+03 -0.45369473796E+03  0.98782785277E+03  0.89850595196E+02 0.  0.
         23    2    4    4    0    0  0.27908279197E+02 -0.11134306952E+03  0.31836664976E+03  0.35035672289E+03  0.90644130635E+02 0.  0.
          2    1    3    3  502    0 -0.32149948918E+03  0.54455221375E+03  0.81379253744E+03  0.10306101732E+04  0.00000000000E+00 0. -1.
         -1    1    3    3    0  502 -0.20546418077E+03  0.28291622116E+03  0.53494444790E+03  0.63907955696E+03  0.00000000000E+00 0.  1.
         13    1    5    5    0    0  0.49601451667E+03 -0.69693492530E+03 -0.45392006871E+03  0.96839667473E+03  0.00000000000E+00 0.  1.
        -13    1    5    5    0    0  0.30408740849E+01 -0.19190440091E+02  0.22533074907E+00  0.19431178040E+02  0.00000000000E+00 0. -1.
          3    1    6    6  503    0  0.48440982916E+02 -0.59076457826E+02  0.10581315423E+03  0.13051046051E+03  0.00000000000E+00 0. -1.
         -3    1    6    6    0  503 -0.20532703720E+02 -0.52266611696E+02  0.21255349553E+03  0.21984626238E+03  0.00000000000E+00 0.  1.
<mgrwt>
<rscale>  0 0.27522621E+04</rscale>
<asrwt>0</asrwt>
<pdfrwt beam="1">  1        2 0.32471409E+00 0.27522621E+04</pdfrwt>
<pdfrwt beam="2">  1       -1 0.13803580E+00 0.27522621E+04</pdfrwt>
<totfact> 0.25044927E+00</totfact>
</mgrwt>
</event>
<event>
12    7  0.1544987E-007  0.3143568E+04  0.7818608E-02  0.8203882E-01
          2   -1    0    0  501    0  0.00000000000E+00  0.00000000000E+00  0.32131723435E+04  0.32131723435E+04  0.00000000000E+00 0. -1.
         -1   -1    0    0    0  501 -0.00000000000E+00 -0.00000000000E+00 -0.76886779688E+03  0.76886779688E+03  0.00000000000E+00 0.  1.
         24    2    1    2    0    0 -0.13088471852E+04 -0.51870011574E+03  0.15085912718E+04  0.20649445179E+04  0.77572369641E+02 0.  0.
        254    2    1    2    0    0  0.13088471852E+04  0.51870011574E+03  0.93571327484E+03  0.19170956225E+04  0.90419330285E+03 0.  0.
         23    2    4    4    0    0  0.68546929545E+03 -0.91157773660E+02  0.97925421922E+02  0.70447300611E+03  0.92276396621E+02 0.  0.
         23    2    4    4    0    0  0.62337788970E+03  0.60985788940E+03  0.83778785292E+03  0.12126226164E+04  0.89657596594E+02 0.  0.
          2    1    3    3  502    0 -0.78079275350E+03 -0.34843060448E+03  0.89871997578E+03  0.12404591105E+04  0.00000000000E+00 0. -1.
         -1    1    3    3    0  502 -0.52805443166E+03 -0.17026951127E+03  0.60987129597E+03  0.82448540734E+03  0.00000000000E+00 0.  1.
         13    1    5    5    0    0  0.63694516383E+03 -0.10056646879E+03  0.72526539989E+02  0.64890126781E+03  0.00000000000E+00 0. -1.
        -13    1    5    5    0    0  0.48524131625E+02  0.94086951257E+01  0.25398881933E+02  0.55571738298E+02  0.00000000000E+00 0.  1.
          2    1    6    6  503    0  0.26169995522E+03  0.26330025211E+03  0.41815259661E+03  0.55916498762E+03  0.00000000000E+00 0. -1.
         -2    1    6    6    0  503  0.36167793448E+03  0.34655763729E+03  0.41963525632E+03  0.65345762877E+03  0.00000000000E+00 0.  1.
<mgrwt>
<rscale>  0 0.31435679E+04</rscale>
<asrwt>0</asrwt>
<pdfrwt beam="1">  1        2 0.49433420E+00 0.31435679E+04</pdfrwt>
<pdfrwt beam="2">  1       -1 0.11828736E+00 0.31435679E+04</pdfrwt>
<totfact> 0.78262371E-01</totfact>
</mgrwt>
</event>
<event>
12    7  0.1544987E-007  0.1122299E+04  0.7818608E-02  0.9183727E-01
          2   -1    0    0  501    0  0.00000000000E+00  0.00000000000E+00  0.18258790099E+04  0.18258790099E+04  0.00000000000E+00 0. -1.
         -1   -1    0    0    0  501 -0.00000000000E+00 -0.00000000000E+00 -0.17245860762E+03  0.17245860762E+03  0.00000000000E+00 0.  1.
         24    2    1    2    0    0  0.70900399071E+02  0.12437292423E+03  0.81444490176E+02  0.18267836240E+03  0.79010684330E+02 0.  0.
        254    2    1    2    0    0 -0.70900399071E+02 -0.12437292423E+03  0.15719759121E+04  0.18156592552E+04  0.89722615411E+03 0.  0.
         23    2    4    4    0    0 -0.23301665656E+03 -0.73973541152E+02  0.31718711251E+02  0.26329912205E+03  0.92474342413E+02 0.  0.
         23    2    4    4    0    0  0.16211625749E+03 -0.50399383082E+02  0.15402572009E+04  0.15523601331E+04  0.92779088219E+02 0.  0.
          2    1    3    3  502    0  0.90558076632E+01  0.88818792208E+02  0.62141791335E+02  0.10877677938E+03  0.00000000000E+00 0. -1.
         -1    1    3    3    0  502  0.61844591408E+02  0.35554132027E+02  0.19302698841E+02  0.73901583022E+02  0.00000000000E+00 0.  1.
         13    1    5    5    0    0 -0.44954685362E+02 -0.91736215004E+01  0.44578134288E+02  0.63971002212E+02  0.00000000000E+00 0. -1.
        -13    1    5    5    0    0 -0.18806197120E+03 -0.64799919652E+02 -0.12859423037E+02  0.19932811984E+03  0.00000000000E+00 0.  1.
          4    1    6    6  503    0  0.79096271861E+02 -0.59951251299E+02  0.10822625440E+04  0.10868038401E+04  0.00000000000E+00 0.  1.
         -4    1    6    6    0  503  0.83019985627E+02  0.95518682163E+01  0.45799465686E+03  0.46555629296E+03  0.00000000000E+00 0. -1.
<mgrwt>
<rscale>  0 0.11222986E+04</rscale>
<asrwt>0</asrwt>
<pdfrwt beam="1">  1        2 0.28090445E+00 0.11222986E+04</pdfrwt>
<pdfrwt beam="2">  1       -1 0.26532095E-01 0.11222986E+04</pdfrwt>
<totfact> 0.11928729E+02</totfact>
</mgrwt>
</event>
<event>
12    7  0.1544987E-007  0.2913540E+04  0.7818608E-02  0.8268860E-01
         -1   -1    0    0    0  501 -0.00000000000E+00  0.00000000000E+00  0.12328832320E+04  0.12328832320E+04  0.00000000000E+00 0.  1.
          2   -1    0    0  501    0  0.00000000000E+00 -0.00000000000E+00 -0.17213139812E+04  0.17213139812E+04  0.00000000000E+00 0. -1.
         24    2    1    2    0    0  0.55803443571E+03 -0.27437211321E+03  0.95500169377E+03  0.11424794080E+04  0.80922646680E+02 0.  0.
        254    2    1    2    0    0 -0.55803443571E+03  0.27437211321E+03 -0.14434324429E+04  0.18117178052E+04  0.90118904808E+03 0.  0.
         23    2    4    4    0    0 -0.44908598075E+03  0.28990513759E+03 -0.22831450074E+03  0.58813473421E+03  0.89731529719E+02 0.  0.
         23    2    4    4    0    0 -0.10894845496E+03 -0.15533024383E+02 -0.12151179422E+04  0.12235830710E+04  0.92373575572E+02 0.  0.
          4    1    3    3  502    0  0.18204386591E+03 -0.93770764845E+02  0.24813935529E+03  0.32172358493E+03  0.00000000000E+00 0. -1.
         -3    1    3    3    0  502  0.37599056980E+03 -0.18060134836E+03  0.70686233848E+03  0.82075582311E+03  0.00000000000E+00 0.  1.
         13    1    5    5    0    0 -0.19244502814E+03  0.17575404069E+03 -0.97223894685E+02  0.27816731903E+03  0.00000000000E+00 0.  1.
        -13    1    5    5    0    0 -0.25664095260E+03  0.11415109690E+03 -0.13109060606E+03  0.30996741518E+03  0.00000000000E+00 0. -1.
          2    1    6    6  503    0 -0.11182007683E+03 -0.24292328149E+02 -0.77820157233E+03  0.78656947179E+03  0.00000000000E+00 0.  1.
         -2    1    6    6    0  503  0.28716218692E+01  0.87593037658E+01 -0.43691636988E+03  0.43701359920E+03  0.00000000000E+00 0. -1.
<mgrwt>
<rscale>  0 0.29135402E+04</rscale>
<asrwt>0</asrwt>
<pdfrwt beam="1">  1        2 0.26481754E+00 0.29135402E+04</pdfrwt>
<pdfrwt beam="2">  1       -1 0.18967434E+00 0.29135402E+04</pdfrwt>
<totfact> 0.16633787E+00</totfact>
</mgrwt>
</event>
<event>
12    7  0.1544987E-007  0.1706112E+04  0.7818608E-02  0.8757886E-01
          2   -1    0    0  501    0  0.00000000000E+00  0.00000000000E+00  0.22635621793E+04  0.22635621793E+04  0.00000000000E+00 0. -1.
         -1   -1    0    0    0  501 -0.00000000000E+00 -0.00000000000E+00 -0.32148639931E+03  0.32148639931E+03  0.00000000000E+00 0.  1.
         24    2    1    2    0    0  0.34015803021E+03 -0.23320057490E+03  0.14258032612E+04  0.14863560346E+04  0.79052693360E+02 0.  0.
        254    2    1    2    0    0 -0.34015803021E+03  0.23320057490E+03  0.51627251871E+03  0.10986925439E+04  0.87778015405E+03 0.  0.
         23    2    4    4    0    0 -0.48903588678E+02 -0.30576775975E+03  0.30496364070E+03  0.44408894201E+03  0.91250656853E+02 0.  0.
         23    2    4    4    0    0 -0.29125444153E+03  0.53896833465E+03  0.21130887801E+03  0.65460360192E+03  0.92403561886E+02 0.  0.
          4    1    3    3  502    0  0.17848128574E+03 -0.11381671924E+03  0.59314451225E+03  0.62978585833E+03  0.00000000000E+00 0. -1.
         -3    1    3    3    0  502  0.16167674447E+03 -0.11938385566E+03  0.83265874898E+03  0.85657017632E+03  0.00000000000E+00 0.  1.
         13    1    5    5    0    0  0.19191559069E+02 -0.83530689656E+02  0.11772301571E+03  0.14561730832E+03  0.00000000000E+00 0. -1.
        -13    1    5    5    0    0 -0.68095147747E+02 -0.22223707009E+03  0.18724062499E+03  0.29847163369E+03  0.00000000000E+00 0.  1.
          1    1    6    6  503    0 -0.41024106869E+02  0.82357871822E+02 -0.17291754587E+01  0.92026009601E+02  0.00000000000E+00 0. -1.
         -1    1    6    6    0  503 -0.25023033466E+03  0.45661046283E+03  0.21303805347E+03  0.56257759231E+03  0.00000000000E+00 0.  1.
<mgrwt>
<rscale>  0 0.17061119E+04</rscale>
<asrwt>0</asrwt>
<pdfrwt beam="1">  1        2 0.34824033E+00 0.17061119E+04</pdfrwt>
<pdfrwt beam="2">  1       -1 0.49459447E-01 0.17061119E+04</pdfrwt>
<totfact> 0.21116512E+01</totfact>
</mgrwt>
</event>
<event>
12    7  0.1544987E-007  0.2567589E+04  0.7818608E-02  0.8379295E-01
         -3   -1    0    0    0  501 -0.00000000000E+00  0.00000000000E+00  0.74373805081E+03  0.74373805081E+03  0.00000000000E+00 0.  1.
          2   -1    0    0  501    0  0.00000000000E+00 -0.00000000000E+00 -0.22160057816E+04  0.22160057816E+04  0.00000000000E+00 0. -1.
         24    2    1    2    0    0  0.64089843413E+03 -0.46808944244E+03  0.28183283980E+03  0.84616518377E+03  0.81897738916E+02 0.  0.
        254    2    1    2    0    0 -0.64089843413E+03  0.46808944244E+03 -0.17541005706E+04  0.21135786486E+04  0.87205926590E+03 0.  0.
         23    2    4    4    0    0 -0.28406332774E+03 -0.72023569548E+02 -0.81273937451E+02  0.31765175021E+03  0.91748639016E+02 0.  0.
         23    2    4    4    0    0 -0.35683510638E+03  0.54011301199E+03 -0.16728266331E+04  0.17959268984E+04  0.89169059125E+02 0.  0.
          4    1    3    3  502    0  0.48706991096E+02 -0.16070243156E+02  0.31740121607E+02  0.60316324626E+02  0.00000000000E+00 0. -1.
         -3    1    3    3    0  502  0.59219144303E+03 -0.45201919929E+03  0.25009271819E+03  0.78584885914E+03  0.00000000000E+00 0.  1.
         13    1    5    5    0    0 -0.25097546064E+03 -0.92889488650E+02 -0.75883398426E+02  0.27816439223E+03  0.00000000000E+00 0.  1.
        -13    1    5    5    0    0 -0.33087867103E+02  0.20865919102E+02 -0.53905390257E+01  0.39487357981E+02  0.00000000000E+00 0. -1.
          2    1    6    6  503    0 -0.30560439372E+03  0.46337537263E+03 -0.15097583510E+04  0.16085649070E+04  0.00000000000E+00 0.  1.
         -2    1    6    6    0  503 -0.51230712668E+02  0.76737639360E+02 -0.16306828206E+03  0.18736199142E+03  0.00000000000E+00 0. -1.
<mgrwt>
<rscale>  0 0.25675886E+04</rscale>
<asrwt>0</asrwt>
<pdfrwt beam="1">  1        2 0.34092397E+00 0.25675886E+04</pdfrwt>
<pdfrwt beam="2">  1       -3 0.11442124E+00 0.25675886E+04</pdfrwt>
<totfact> 0.18140639E+00</totfact>
</mgrwt>
</event>
<event>
12    7  0.1544987E-007  0.1317098E+04  0.7818608E-02  0.9016115E-01
         -1   -1    0    0    0  501 -0.00000000000E+00  0.00000000000E+00  0.46211424389E+03  0.46211424389E+03  0.00000000000E+00 0.  1.
          2   -1    0    0  501    0  0.00000000000E+00 -0.00000000000E+00 -0.93848329248E+03  0.93848329248E+03  0.00000000000E+00 0. -1.
         24    2    1    2    0    0  0.16903372533E+03 -0.23500885174E+03  0.80766862272E+02  0.31109330588E+03  0.80338024804E+02 0.  0.
        254    2    1    2    0    0 -0.16903372533E+03  0.23500885174E+03 -0.55713591086E+03  0.10895042305E+04  0.89040298989E+03 0.  0.
         23    2    4    4    0    0 -0.13013592612E+03  0.54771610533E+03 -0.19964613042E+03  0.60421586393E+03  0.91049116031E+02 0.  0.
         23    2    4    4    0    0 -0.38897799218E+02 -0.31270725359E+03 -0.35748978044E+03  0.48528836656E+03  0.91689641548E+02 0.  0.
          4    1    3    3  502    0  0.59301805372E+02 -0.32841920767E+02  0.35983965108E+02  0.76747258094E+02  0.00000000000E+00 0. -1.
         -3    1    3    3    0  502  0.10973191996E+03 -0.20216693097E+03  0.44782897164E+02  0.23434604779E+03  0.00000000000E+00 0.  1.
         13    1    5    5    0    0  0.77444642509E+01  0.13035796082E+03 -0.39983551764E+02  0.13657180927E+03  0.00000000000E+00 0.  1.
        -13    1    5    5    0    0 -0.13788039037E+03  0.41735814451E+03 -0.15966257866E+03  0.46764405466E+03  0.00000000000E+00 0. -1.
          1    1    6    6  503    0 -0.55292583148E+02 -0.30392234223E+03 -0.34378791971E+03  0.46218631914E+03  0.00000000000E+00 0. -1.
         -1    1    6    6    0  503  0.16394783930E+02 -0.87849113621E+01 -0.13701860726E+02  0.23102047422E+02  0.00000000000E+00 0.  1.
<mgrwt>
<rscale>  0 0.13170976E+04</rscale>
<asrwt>0</asrwt>
<pdfrwt beam="1">  1        2 0.14438204E+00 0.13170976E+04</pdfrwt>
<pdfrwt beam="2">  1       -1 0.71094499E-01 0.13170976E+04</pdfrwt>
<totfact> 0.61695127E+01</totfact>
</mgrwt>
</event>
<event>
12    7  0.1544987E-007  0.1302489E+04  0.7818608E-02  0.9027594E-01
         -1   -1    0    0    0  501 -0.00000000000E+00  0.00000000000E+00  0.24863641333E+03  0.24863641333E+03  0.00000000000E+00 0.  1.
          2   -1    0    0  501    0  0.00000000000E+00 -0.00000000000E+00 -0.17057802167E+04  0.17057802167E+04  0.00000000000E+00 0. -1.
         24    2    1    2    0    0 -0.21310993523E+03  0.15164075572E+03 -0.68586851707E+02  0.28148065316E+03  0.78207663219E+02 0.  0.
        254    2    1    2    0    0  0.21310993523E+03 -0.15164075572E+03 -0.13885569516E+04  0.16729359768E+04  0.89566378254E+03 0.  0.
         23    2    4    4    0    0  0.28220420017E+03 -0.39260151794E+03 -0.35490327691E+03  0.60523305113E+03  0.81089751123E+02 0.  0.
         23    2    4    4    0    0 -0.69094264938E+02  0.24096076221E+03 -0.10336536747E+04  0.10677029257E+04  0.93346193877E+02 0.  0.
          2    1    3    3  502    0  0.33883110231E+01 -0.90665103715E+00 -0.94985671477E+01  0.10125484954E+02  0.00000000000E+00 0. -1.
         -1    1    3    3    0  502 -0.21649824625E+03  0.15254740676E+03 -0.59088284559E+02  0.27135516821E+03  0.00000000000E+00 0.  1.
         13    1    5    5    0    0  0.13920738354E+03 -0.13861903695E+03 -0.17214282856E+03  0.26120315171E+03  0.00000000000E+00 0. -1.
        -13    1    5    5    0    0  0.14299681662E+03 -0.25398248099E+03 -0.18276044835E+03  0.34402989942E+03  0.00000000000E+00 0.  1.
          1    1    6    6  503    0 -0.20607928100E+02  0.26787546720E+02 -0.29979405014E+03  0.30169310874E+03  0.00000000000E+00 0. -1.
         -1    1    6    6    0  503 -0.48486336838E+02  0.21417321549E+03 -0.73385962459E+03  0.76600981698E+03  0.00000000000E+00 0.  1.
<mgrwt>
<rscale>  0 0.13024885E+04</rscale>
<asrwt>0</asrwt>
<pdfrwt beam="1">  1        2 0.26242772E+00 0.13024885E+04</pdfrwt>
<pdfrwt beam="2">  1       -1 0.38251756E-01 0.13024885E+04</pdfrwt>
<totfact> 0.71822363E+01</totfact>
</mgrwt>
</event>
<event>
12    7  0.1544987E-007  0.1594412E+04  0.7818608E-02  0.8823988E-01
         -1   -1    0    0    0  501 -0.00000000000E+00  0.00000000000E+00  0.95473029849E+03  0.95473029849E+03  0.00000000000E+00 0.  1.
          2   -1    0    0  501    0  0.00000000000E+00 -0.00000000000E+00 -0.66567250435E+03  0.66567250435E+03  0.00000000000E+00 0. -1.
         24    2    1    2    0    0  0.14213974083E+03  0.66272380305E+02 -0.42289890699E+03  0.45818343741E+03  0.80578176105E+02 0.  0.
        254    2    1    2    0    0 -0.14213974083E+03 -0.66272380305E+02  0.71195670113E+03  0.11622193654E+04  0.90513853900E+03 0.  0.
         23    2    4    4    0    0 -0.27001351914E+03 -0.40055781419E+03  0.59958517882E+03  0.77592073829E+03  0.95899647702E+02 0.  0.
         23    2    4    4    0    0  0.12787377831E+03  0.33428543388E+03  0.11237152231E+03  0.38629862714E+03  0.92199868866E+02 0.  0.
          4    1    3    3  502    0  0.51641720805E+02  0.62047860408E+02 -0.25401346252E+03  0.26653263112E+03  0.00000000000E+00 0. -1.
         -1    1    3    3    0  502  0.90498020027E+02  0.42245198969E+01 -0.16888544447E+03  0.19165080629E+03  0.00000000000E+00 0.  1.
         13    1    5    5    0    0 -0.55843394032E+02 -0.38948313839E+02  0.52134834517E+02  0.85752532196E+02  0.00000000000E+00 0. -1.
        -13    1    5    5    0    0 -0.21417012511E+03 -0.36160950035E+03  0.54745034430E+03  0.69016820610E+03  0.00000000000E+00 0.  1.
          2    1    6    6  503    0  0.19140083316E+02  0.15407156622E+03  0.20343180532E+02  0.15658299812E+03  0.00000000000E+00 0. -1.
         -2    1    6    6    0  503  0.10873369499E+03  0.18021386767E+03  0.92028341781E+02  0.22971562902E+03  0.00000000000E+00 0.  1.
<mgrwt>
<rscale>  0 0.15944124E+04</rscale>
<asrwt>0</asrwt>
<pdfrwt beam="1">  1        2 0.10241116E+00 0.15944124E+04</pdfrwt>
<pdfrwt beam="2">  1       -1 0.14688158E+00 0.15944124E+04</pdfrwt>
<totfact> 0.17659195E+01</totfact>
</mgrwt>
</event>
<event>
12    7  0.1544987E-007  0.1677058E+04  0.7818608E-02  0.8774559E-01
          2   -1    0    0  501    0  0.00000000000E+00  0.00000000000E+00  0.11648710672E+04  0.11648710672E+04  0.00000000000E+00 0. -1.
         -1   -1    0    0    0  501 -0.00000000000E+00 -0.00000000000E+00 -0.60361227427E+03  0.60361227427E+03  0.00000000000E+00 0.  1.
         24    2    1    2    0    0 -0.21090299140E+03  0.53073477669E+03  0.37385006713E+03  0.68746479307E+03  0.81758755175E+02 0.  0.
        254    2    1    2    0    0  0.21090299140E+03 -0.53073477669E+03  0.18740872577E+03  0.10810185484E+04  0.89850965297E+03 0.  0.
         23    2    4    4    0    0 -0.29523540781E+03 -0.42368032593E+03  0.18389641667E+03  0.55567222694E+03  0.91020696161E+02 0.  0.
         23    2    4    4    0    0  0.50613839921E+03 -0.10705445076E+03  0.35123091037E+01  0.52534632144E+03  0.91321884285E+02 0.  0.
          4    1    3    3  502    0 -0.10499753402E+03  0.31141690792E+03  0.25774012101E+03  0.41765409452E+03  0.00000000000E+00 0. -1.
         -3    1    3    3    0  502 -0.10590545738E+03  0.21931786877E+03  0.11610994611E+03  0.26981069855E+03  0.00000000000E+00 0.  1.
         13    1    5    5    0    0 -0.27197122373E+01 -0.32251196349E+01  0.16168206060E+02  0.16709551715E+02  0.00000000000E+00 0. -1.
        -13    1    5    5    0    0 -0.29251569557E+03 -0.42045520629E+03  0.16772821061E+03  0.53896267523E+03  0.00000000000E+00 0.  1.
          3    1    6    6  503    0  0.24040561540E+02 -0.27820832485E+02  0.12906709132E+00  0.36769062779E+02  0.00000000000E+00 0. -1.
         -3    1    6    6    0  503  0.48209783767E+03 -0.79233618273E+02  0.33832420123E+01  0.48857725866E+03  0.00000000000E+00 0.  1.
<mgrwt>
<rscale>  0 0.16770575E+04</rscale>
<asrwt>0</asrwt>
<pdfrwt beam="1">  1        2 0.17921093E+00 0.16770575E+04</pdfrwt>
<pdfrwt beam="2">  1       -1 0.92863427E-01 0.16770575E+04</pdfrwt>
<totfact> 0.24360275E+01</totfact>
</mgrwt>
</event>
<event>
12    7  0.1544987E-007  0.1947121E+04  0.7818608E-02  0.8631750E-01
          2   -1    0    0  501    0  0.00000000000E+00  0.00000000000E+00  0.19475286527E+04  0.19475286527E+04  0.00000000000E+00 0. -1.
         -1   -1    0    0    0  501 -0.00000000000E+00 -0.00000000000E+00 -0.48667855974E+03  0.48667855974E+03  0.00000000000E+00 0.  1.
         24    2    1    2    0    0 -0.40231080977E+02  0.95484711116E+02 -0.39651082707E+03  0.41700585663E+03  0.77053089134E+02 0.  0.
        254    2    1    2    0    0  0.40231080977E+02 -0.95484711116E+02  0.18573609200E+04  0.20172013558E+04  0.78011271797E+03 0.  0.
         23    2    4    4    0    0  0.28192073803E+03 -0.51536479433E+02  0.25709719012E+03  0.39580180112E+03  0.91786651313E+02 0.  0.
         23    2    4    4    0    0 -0.24168965705E+03 -0.43948231682E+02  0.16002637299E+04  0.16213995547E+04  0.88018028451E+02 0.  0.
          4    1    3    3  502    0  0.13014158717E+02  0.47844379184E+02 -0.95177964482E+02  0.10731867437E+03  0.00000000000E+00 0. -1.
         -3    1    3    3    0  502 -0.53245239694E+02  0.47640331932E+02 -0.30133286259E+03  0.30968718225E+03  0.00000000000E+00 0.  1.
         13    1    5    5    0    0  0.48580624397E+02 -0.15058465781E+01  0.53143302591E+01  0.48893626853E+02  0.00000000000E+00 0. -1.
        -13    1    5    5    0    0  0.23334011363E+03 -0.50030632855E+02  0.25178285986E+03  0.34690817427E+03  0.00000000000E+00 0.  1.
          2    1    6    6  503    0 -0.15901521829E+02  0.20600500631E+02  0.14745273375E+03  0.14973158556E+03  0.00000000000E+00 0. -1.
         -2    1    6    6    0  503 -0.22578813523E+03 -0.64548732314E+02  0.14528109961E+04  0.14716679691E+04  0.00000000000E+00 0.  1.
<mgrwt>
<rscale>  0 0.19471214E+04</rscale>
<asrwt>0</asrwt>
<pdfrwt beam="1">  1        2 0.29961979E+00 0.19471214E+04</pdfrwt>
<pdfrwt beam="2">  1       -1 0.74873625E-01 0.19471214E+04</pdfrwt>
<totfact> 0.13620437E+01</totfact>
</mgrwt>
</event>
<event>
12    7  0.1544987E-007  0.1604685E+04  0.7818608E-02  0.8817675E-01
          2   -1    0    0  501    0  0.00000000000E+00  0.00000000000E+00  0.32128462189E+04  0.32128462189E+04  0.00000000000E+00 0. -1.
         -1   -1    0    0    0  501 -0.00000000000E+00 -0.00000000000E+00 -0.20036867810E+03  0.20036867810E+03  0.00000000000E+00 0.  1.
         24    2    1    2    0    0  0.35919543909E+03  0.39997755854E+03  0.12331923368E+04  0.13476405198E+04  0.79801128350E+02 0.  0.
        254    2    1    2    0    0 -0.35919543909E+03 -0.39997755854E+03  0.17792852040E+04  0.20655743773E+04  0.90096518250E+03 0.  0.
         23    2    4    4    0    0 -0.48440010930E+03  0.36926122691E+02  0.13349707380E+04  0.14234718617E+04  0.90101415441E+02 0.  0.
         23    2    4    4    0    0  0.12520467021E+03 -0.43690368123E+03  0.44431446593E+03  0.64210251560E+03  0.91209976315E+02 0.  0.
          2    1    3    3  502    0  0.24728184746E+03  0.32629307036E+03  0.93895941126E+03  0.10243340548E+04  0.00000000000E+00 0. -1.
         -1    1    3    3    0  502  0.11191359163E+03  0.73684488182E+02  0.29423292558E+03  0.32330646496E+03  0.00000000000E+00 0.  1.
         13    1    5    5    0    0 -0.25042561090E+03  0.40580676238E+02  0.57968969668E+03  0.63277161940E+03  0.00000000000E+00 0. -1.
        -13    1    5    5    0    0 -0.23397449841E+03 -0.36545535476E+01  0.75528104137E+03  0.79070024226E+03  0.00000000000E+00 0.  1.
          1    1    6    6  503    0  0.13625631303E+02 -0.31432887201E+02  0.62050059252E+01  0.34816466287E+02  0.00000000000E+00 0. -1.
         -1    1    6    6    0  503  0.11157903891E+03 -0.40547079403E+03  0.43810946001E+03  0.60728604931E+03  0.00000000000E+00 0.  1.
<mgrwt>
<rscale>  0 0.16046853E+04</rscale>
<asrwt>0</asrwt>
<pdfrwt beam="1">  1        2 0.49428400E+00 0.16046853E+04</pdfrwt>
<pdfrwt beam="2">  1       -1 0.30825953E-01 0.16046853E+04</pdfrwt>
<totfact> 0.13614828E+01</totfact>
</mgrwt>
</event>
<event>
12    7  0.1544987E-007  0.2797084E+04  0.7818608E-02  0.8304174E-01
         -1   -1    0    0    0  501 -0.00000000000E+00  0.00000000000E+00  0.18246375844E+04  0.18246375844E+04  0.00000000000E+00 0.  1.
          2   -1    0    0  501    0  0.00000000000E+00 -0.00000000000E+00 -0.10719500446E+04  0.10719500446E+04  0.00000000000E+00 0. -1.
         24    2    1    2    0    0  0.47824569773E+03 -0.74151826633E+03  0.12601821083E+04  0.15404607881E+04  0.79951279271E+02 0.  0.
        254    2    1    2    0    0 -0.47824569773E+03  0.74151826633E+03 -0.50749456844E+03  0.13561268409E+04  0.89608090317E+03 0.  0.
         23    2    4    4    0    0 -0.15212095610E+03 -0.42870377943E+02 -0.46666859045E+03  0.50088336827E+03  0.90143888908E+02 0.  0.
         23    2    4    4    0    0 -0.32612474162E+03  0.78438864427E+03 -0.40825977994E+02  0.85524347267E+03  0.90287012939E+02 0.  0.
          2    1    3    3  502    0  0.43433643388E+03 -0.68143757081E+03  0.11880306812E+04  0.14368097300E+04  0.00000000000E+00 0. -1.
         -1    1    3    3    0  502  0.43909263852E+02 -0.60080695522E+02  0.72151427077E+02  0.10365105815E+03  0.00000000000E+00 0.  1.
         13    1    5    5    0    0 -0.12585362342E+03 -0.69166366161E+02 -0.39196668084E+03  0.41744580442E+03  0.00000000000E+00 0. -1.
        -13    1    5    5    0    0 -0.26267332686E+02  0.26295988219E+02 -0.74701909609E+02  0.83437563855E+02  0.00000000000E+00 0.  1.
          3    1    6    6  503    0 -0.32665332284E+03  0.72942906318E+03 -0.40995935107E+02  0.80028108702E+03  0.00000000000E+00 0. -1.
         -3    1    6    6    0  503  0.52858121709E+00  0.54959581088E+02  0.16995711343E+00  0.54962385655E+02  0.00000000000E+00 0.  1.
<mgrwt>
<rscale>  0 0.27970844E+04</rscale>
<asrwt>0</asrwt>
<pdfrwt beam="1">  1        2 0.16491539E+00 0.27970844E+04</pdfrwt>
<pdfrwt beam="2">  1       -1 0.28071348E+00 0.27970844E+04</pdfrwt>
<totfact> 0.99052813E-01</totfact>
</mgrwt>
</event>
<event>
12    7  0.1544987E-007  0.2423401E+04  0.7818608E-02  0.8430794E-01
         -1   -1    0    0    0  501 -0.00000000000E+00  0.00000000000E+00  0.54433620603E+03  0.54433620603E+03  0.00000000000E+00 0.  1.
          2   -1    0    0  501    0  0.00000000000E+00 -0.00000000000E+00 -0.26972624253E+04  0.26972624253E+04  0.00000000000E+00 0. -1.
         24    2    1    2    0    0 -0.15864114011E+02  0.69989973916E+03  0.87967501368E+02  0.71014776478E+03  0.80375689909E+02 0.  0.
        254    2    1    2    0    0  0.15864114011E+02 -0.69989973916E+03 -0.22408937207E+04  0.25314508666E+04  0.94685136510E+03 0.  0.
         23    2    4    4    0    0 -0.17539567189E+03 -0.84506285555E+03 -0.19952345961E+04  0.21759174037E+04  0.93597984354E+02 0.  0.
         23    2    4    4    0    0  0.19125978591E+03  0.14516311638E+03 -0.24565912456E+03  0.35553346288E+03  0.91667887977E+02 0.  0.
          2    1    3    3  502    0 -0.42969858831E+02  0.35971154661E+03  0.25085853396E+02  0.36313648339E+03  0.00000000000E+00 0. -1.
         -1    1    3    3    0  502  0.27105744820E+02  0.34018819256E+03  0.62881647973E+02  0.34701128139E+03  0.00000000000E+00 0.  1.
         13    1    5    5    0    0 -0.11915148514E+03 -0.71438913606E+03 -0.17143451938E+04  0.18610557105E+04  0.00000000000E+00 0.  1.
        -13    1    5    5    0    0 -0.56244186751E+02 -0.13067371948E+03 -0.28088940235E+03  0.31486169322E+03  0.00000000000E+00 0. -1.
          1    1    6    6  503    0  0.24008347385E+02  0.20254787029E+02  0.21928845293E+01  0.31487551260E+02  0.00000000000E+00 0. -1.
         -1    1    6    6    0  503  0.16725143852E+03  0.12490832935E+03 -0.24785200909E+03  0.32404591162E+03  0.00000000000E+00 0.  1.
<mgrwt>
<rscale>  0 0.24234006E+04</rscale>
<asrwt>0</asrwt>
<pdfrwt beam="1">  1        2 0.41496344E+00 0.24234006E+04</pdfrwt>
<pdfrwt beam="2">  1       -1 0.83744033E-01 0.24234006E+04</pdfrwt>
<totfact> 0.38475910E+00</totfact>
</mgrwt>
</event>
<event>
12    7  0.1544987E-007  0.1674806E+04  0.7818608E-02  0.8775865E-01
          2   -1    0    0  501    0  0.00000000000E+00  0.00000000000E+00  0.19446498560E+04  0.19446498560E+04  0.00000000000E+00 0. -1.
         -1   -1    0    0    0  501 -0.00000000000E+00 -0.00000000000E+00 -0.36060170804E+03  0.36060170804E+03  0.00000000000E+00 0.  1.
         24    2    1    2    0    0 -0.55688538771E+02 -0.35620789845E+03 -0.74372893063E+02  0.37664616766E+03  0.79660078596E+02 0.  0.
        254    2    1    2    0    0  0.55688538771E+02  0.35620789845E+03  0.16584210411E+04  0.19286053964E+04  0.91606394176E+03 0.  0.
         23    2    4    4    0    0  0.26453832830E+03 -0.20563386584E+03  0.38704705485E+03  0.51999002167E+03  0.91205186465E+02 0.  0.
         23    2    4    4    0    0 -0.20884978953E+03  0.56184176429E+03  0.12713739862E+04  0.14086153748E+04  0.92309579638E+02 0.  0.
          2    1    3    3  502    0  0.13691719174E-01 -0.70709197354E+02 -0.46063961850E+02  0.84390043010E+02  0.00000000000E+00 0. -1.
         -1    1    3    3    0  502 -0.55702230490E+02 -0.28549870110E+03 -0.28308931213E+02  0.29225612465E+03  0.00000000000E+00 0.  1.
         13    1    5    5    0    0  0.42628718868E+02 -0.79115655392E+02  0.77636887541E+02  0.11876018233E+03  0.00000000000E+00 0.  1.
        -13    1    5    5    0    0  0.22190960944E+03 -0.12651821045E+03  0.30941016731E+03  0.40122983933E+03  0.00000000000E+00 0. -1.
          1    1    6    6  503    0 -0.17870029818E+03  0.40209589747E+03  0.99543044518E+03  0.10883458451E+04  0.00000000000E+00 0. -1.
         -1    1    6    6    0  503 -0.30149491355E+02  0.15974586683E+03  0.27594354103E+03  0.32026952967E+03  0.00000000000E+00 0.  1.
<mgrwt>
<rscale>  0 0.16748063E+04</rscale>
<asrwt>0</asrwt>
<pdfrwt beam="1">  1        2 0.29917689E+00 0.16748063E+04</pdfrwt>
<pdfrwt beam="2">  1       -1 0.55477187E-01 0.16748063E+04</pdfrwt>
<totfact> 0.25589766E+01</totfact>
</mgrwt>
</event>
<event>
12    7  0.1544987E-007  0.1564886E+04  0.7818608E-02  0.8842415E-01
         -1   -1    0    0    0  501 -0.00000000000E+00  0.00000000000E+00  0.63514491895E+03  0.63514491895E+03  0.00000000000E+00 0.  1.
          2   -1    0    0  501    0  0.00000000000E+00 -0.00000000000E+00 -0.96390136077E+03  0.96390136077E+03  0.00000000000E+00 0. -1.
         24    2    1    2    0    0 -0.17705394203E+03  0.16351049152E+03  0.35954505901E+03  0.44007081891E+03  0.79409678051E+02 0.  0.
        254    2    1    2    0    0  0.17705394203E+03 -0.16351049152E+03 -0.68830150084E+03  0.11589754608E+04  0.90076710835E+03 0.  0.
         23    2    4    4    0    0  0.10920845969E+03 -0.52890906516E+03 -0.37133505140E+03  0.66202447396E+03  0.93356289810E+02 0.  0.
         23    2    4    4    0    0  0.67845482340E+02  0.36539857364E+03 -0.31696644943E+03  0.49695098685E+03  0.91506426985E+02 0.  0.
          2    1    3    3  502    0 -0.13123177108E+03  0.70420635579E+02  0.19185096243E+03  0.24287370266E+03  0.00000000000E+00 0. -1.
         -1    1    3    3    0  502 -0.45822170952E+02  0.93089855943E+02  0.16769409658E+03  0.19719711625E+03  0.00000000000E+00 0.  1.
         13    1    5    5    0    0  0.12418402739E+03 -0.49971703845E+03 -0.34325759635E+03  0.61884131135E+03  0.00000000000E+00 0.  1.
        -13    1    5    5    0    0 -0.14975567696E+02 -0.29192026705E+02 -0.28077455052E+02  0.43183162612E+02  0.00000000000E+00 0. -1.
          3    1    6    6  503    0 -0.17149282908E+02  0.17283877192E+02 -0.22259583462E+02  0.32989685827E+02  0.00000000000E+00 0. -1.
         -3    1    6    6    0  503  0.84994765248E+02  0.34811469644E+03 -0.29470686597E+03  0.46396130103E+03  0.00000000000E+00 0.  1.
<mgrwt>
<rscale>  0 0.15648860E+04</rscale>
<asrwt>0</asrwt>
<pdfrwt beam="1">  1        2 0.14829252E+00 0.15648860E+04</pdfrwt>
<pdfrwt beam="2">  1       -1 0.97714603E-01 0.15648860E+04</pdfrwt>
<totfact> 0.29311451E+01</totfact>
</mgrwt>
</event>
<event>
12    7  0.1544987E-007  0.1408618E+04  0.7818608E-02  0.8947604E-01
          2   -1    0    0  501    0  0.00000000000E+00  0.00000000000E+00  0.24358568201E+04  0.24358568201E+04  0.00000000000E+00 0. -1.
         -1   -1    0    0    0  501 -0.00000000000E+00 -0.00000000000E+00 -0.20364546372E+03  0.20364546372E+03  0.00000000000E+00 0.  1.
         24    2    1    2    0    0  0.24458578974E+03  0.13471603180E+03  0.88573611582E+02  0.30301583701E+03  0.77477061382E+02 0.  0.
        254    2    1    2    0    0 -0.24458578974E+03 -0.13471603180E+03  0.21436377448E+04  0.23364864468E+04  0.88657516174E+03 0.  0.
         23    2    4    4    0    0 -0.34811180794E+03  0.27586936803E+03  0.74466610250E+03  0.87210363310E+03  0.93548936916E+02 0.  0.
         23    2    4    4    0    0  0.10352601820E+03 -0.41058539984E+03  0.13989716423E+04  0.14643828137E+04  0.89427971745E+02 0.  0.
          2    1    3    3  502    0  0.22061608953E+02  0.21291870342E+02 -0.13111004190E+02  0.33346015701E+02  0.00000000000E+00 0. -1.
         -1    1    3    3    0  502  0.22252418079E+03  0.11342416146E+03  0.10168461577E+03  0.26966982131E+03  0.00000000000E+00 0.  1.
         13    1    5    5    0    0 -0.27287458888E+03  0.24842963115E+03  0.65563801243E+03  0.75235565143E+03  0.00000000000E+00 0. -1.
        -13    1    5    5    0    0 -0.75237219063E+02  0.27439736884E+02  0.89028090072E+02  0.11974798167E+03  0.00000000000E+00 0.  1.
          3    1    6    6  503    0  0.51318994867E+02 -0.34569284483E+03  0.11333800358E+04  0.11860385693E+04  0.00000000000E+00 0. -1.
         -3    1    6    6    0  503  0.52207023338E+02 -0.64892555004E+02  0.26559160647E+03  0.27834424443E+03  0.00000000000E+00 0.  1.
<mgrwt>
<rscale>  0 0.14086180E+04</rscale>
<asrwt>0</asrwt>
<pdfrwt beam="1">  1        2 0.37474718E+00 0.14086180E+04</pdfrwt>
<pdfrwt beam="2">  1       -1 0.31330073E-01 0.14086180E+04</pdfrwt>
<totfact> 0.39824264E+01</totfact>
</mgrwt>
</event>
<event>
12    7  0.1544987E-007  0.1977928E+04  0.7818608E-02  0.8617010E-01
          2   -1    0    0  501    0  0.00000000000E+00  0.00000000000E+00  0.38417925037E+04  0.38417925037E+04  0.00000000000E+00 0. -1.
         -1   -1    0    0    0  501 -0.00000000000E+00 -0.00000000000E+00 -0.25458171358E+03  0.25458171358E+03  0.00000000000E+00 0.  1.
         24    2    1    2    0    0  0.74823189817E+03 -0.15904938591E+03  0.10750898519E+04  0.13218519733E+04  0.79540989974E+02 0.  0.
        254    2    1    2    0    0 -0.74823189817E+03  0.15904938591E+03  0.25121209382E+04  0.27745222440E+04  0.89558606143E+03 0.  0.
         23    2    4    4    0    0 -0.82322513407E+03 -0.85045973215E+02  0.13937298431E+04  0.16235827550E+04  0.92766630673E+02 0.  0.
         23    2    4    4    0    0  0.74993235898E+02  0.24409535912E+03  0.11183910951E+04  0.11509394890E+04  0.93040506898E+02 0.  0.
          2    1    3    3  502    0  0.12390030856E+03 -0.83316450994E+01  0.13632310098E+03  0.18440360797E+03  0.00000000000E+00 0. -1.
         -1    1    3    3    0  502  0.62433158961E+03 -0.15071774081E+03  0.93876675096E+03  0.11374483654E+04  0.00000000000E+00 0.  1.
         13    1    5    5    0    0 -0.63506671591E+03 -0.10454630756E+03  0.10740437383E+04  0.12521220452E+04  0.00000000000E+00 0.  1.
        -13    1    5    5    0    0 -0.18815841816E+03  0.19500334350E+02  0.31968610478E+03  0.37146070984E+03  0.00000000000E+00 0. -1.
          1    1    6    6  503    0  0.88857213747E+02  0.15577412699E+03  0.82315650757E+03  0.84246532215E+03  0.00000000000E+00 0. -1.
         -1    1    6    6    0  503 -0.13863977849E+02  0.88321232133E+02  0.29523458752E+03  0.30847416682E+03  0.00000000000E+00 0.  1.
<mgrwt>
<rscale>  0 0.19779283E+04</rscale>
<asrwt>0</asrwt>
<pdfrwt beam="1">  1        2 0.59104496E+00 0.19779283E+04</pdfrwt>
<pdfrwt beam="2">  1       -1 0.39166420E-01 0.19779283E+04</pdfrwt>
<totfact> 0.30876440E+00</totfact>
</mgrwt>
</event>
<event>
12    7  0.1544987E-007  0.1301118E+04  0.7818608E-02  0.9028679E-01
         -1   -1    0    0    0  501 -0.00000000000E+00  0.00000000000E+00  0.19883004530E+04  0.19883004530E+04  0.00000000000E+00 0.  1.
          2   -1    0    0  501    0  0.00000000000E+00 -0.00000000000E+00 -0.21285876741E+03  0.21285876741E+03  0.00000000000E+00 0. -1.
         24    2    1    2    0    0  0.68959713023E+02  0.11833745441E+03  0.92526418207E+03  0.93889554516E+03  0.81558831352E+02 0.  0.
        254    2    1    2    0    0 -0.68959713023E+02 -0.11833745441E+03  0.85017750349E+03  0.12622636752E+04  0.92290227175E+03 0.  0.
         23    2    4    4    0    0 -0.20145142852E+03  0.11421442845E+03  0.93456290964E+03  0.96739854497E+03  0.93938804641E+02 0.  0.
         23    2    4    4    0    0  0.13249171550E+03 -0.23255188286E+03 -0.84385406144E+02  0.29486513025E+03  0.90499256206E+02 0.  0.
          2    1    3    3  502    0  0.10491494768E+02  0.69385541893E+01  0.13344465772E+02  0.18338205022E+02  0.00000000000E+00 0. -1.
         -1    1    3    3    0  502  0.58468218255E+02  0.11139890022E+03  0.91191971630E+03  0.92055734014E+03  0.00000000000E+00 0.  1.
         13    1    5    5    0    0  0.52986184741E+01 -0.80697765725E+01  0.32751686142E+02  0.34144832651E+02  0.00000000000E+00 0. -1.
        -13    1    5    5    0    0 -0.20675004700E+03  0.12228420502E+03  0.90181122350E+03  0.93325371232E+03  0.00000000000E+00 0.  1.
          2    1    6    6  503    0  0.14371227239E+03 -0.19853179920E+03 -0.62666564636E+02  0.25297270773E+03  0.00000000000E+00 0.  1.
         -2    1    6    6    0  503 -0.11220556894E+02 -0.34020083653E+02 -0.21718841508E+02  0.41892422527E+02  0.00000000000E+00 0. -1.
<mgrwt>
<rscale>  0 0.13011183E+04</rscale>
<asrwt>0</asrwt>
<pdfrwt beam="1">  1        2 0.32747504E-01 0.13011183E+04</pdfrwt>
<pdfrwt beam="2">  1       -1 0.30589236E+00 0.13011183E+04</pdfrwt>
<totfact> 0.55099271E+00</totfact>
</mgrwt>
</event>
<event>
12    7  0.1544987E-007  0.1958090E+04  0.7818608E-02  0.8626470E-01
          2   -1    0    0  501    0  0.00000000000E+00  0.00000000000E+00  0.67928441141E+03  0.67928441141E+03  0.00000000000E+00 0. -1.
         -1   -1    0    0    0  501 -0.00000000000E+00 -0.00000000000E+00 -0.14110865019E+04  0.14110865019E+04  0.00000000000E+00 0.  1.
         24    2    1    2    0    0 -0.13459892311E+03  0.13666953388E+03 -0.10870662667E+04  0.11067289303E+04  0.79626788346E+02 0.  0.
        254    2    1    2    0    0  0.13459892311E+03 -0.13666953388E+03  0.35526417619E+03  0.98364198300E+03  0.89696347989E+03 0.  0.
         23    2    4    4    0    0  0.31357765345E+03  0.73398264467E+02  0.54311583955E+03  0.63760643440E+03  0.88594018156E+02 0.  0.
         23    2    4    4    0    0 -0.17897873034E+03 -0.21006779835E+03 -0.18785166335E+03  0.34603554860E+03  0.91052115054E+02 0.  0.
          2    1    3    3  502    0 -0.27859149789E+02 -0.68881314419E+01 -0.16265229520E+03  0.16516460794E+03  0.00000000000E+00 0. -1.
         -1    1    3    3    0  502 -0.10673977332E+03  0.14355766532E+03 -0.92441397147E+03  0.94156432235E+03  0.00000000000E+00 0.  1.
         13    1    5    5    0    0  0.12042713421E+03  0.30515204129E+02  0.13147630551E+03  0.18088640427E+03  0.00000000000E+00 0. -1.
        -13    1    5    5    0    0  0.19315051924E+03  0.42883060338E+02  0.41163953403E+03  0.45672003013E+03  0.00000000000E+00 0.  1.
          1    1    6    6  503    0 -0.10942463832E+03 -0.94727735062E+02 -0.49532001631E+02  0.15297226692E+03  0.00000000000E+00 0. -1.
         -1    1    6    6    0  503 -0.69554092025E+02 -0.11534006329E+03 -0.13831966172E+03  0.19306328169E+03  0.00000000000E+00 0.  1.
<mgrwt>
<rscale>  0 0.19580900E+04</rscale>
<asrwt>0</asrwt>
<pdfrwt beam="1">  1        2 0.10450529E+00 0.19580900E+04</pdfrwt>
<pdfrwt beam="2">  1       -1 0.21709023E+00 0.19580900E+04</pdfrwt>
<totfact> 0.52133406E+00</totfact>
</mgrwt>
</event>
<event>
12    7  0.1544987E-007  0.3132093E+04  0.7818608E-02  0.8206985E-01
         -1   -1    0    0    0  501 -0.00000000000E+00  0.00000000000E+00  0.12152452608E+04  0.12152452608E+04  0.00000000000E+00 0.  1.
          2   -1    0    0  501    0  0.00000000000E+00 -0.00000000000E+00 -0.20181121566E+04  0.20181121566E+04  0.00000000000E+00 0. -1.
         24    2    1    2    0    0  0.42073157436E+03 -0.13131600010E+04  0.47714384798E+02  0.13821232172E+04  0.81139874836E+02 0.  0.
        254    2    1    2    0    0 -0.42073157436E+03  0.13131600010E+04 -0.85058128059E+03  0.18512342001E+04  0.89564239679E+03 0.  0.
         23    2    4    4    0    0 -0.22283446403E+03  0.10017090035E+04 -0.13198158254E+03  0.10386229976E+04  0.90788033864E+02 0.  0.
         23    2    4    4    0    0 -0.19789711033E+03  0.31145099752E+03 -0.71859969805E+03  0.81261120248E+03  0.88240864877E+02 0.  0.
          4    1    3    3  502    0  0.17365563803E+01 -0.49999483867E+00 -0.27498271438E+01  0.32904668698E+01  0.00000000000E+00 0. -1.
         -1    1    3    3    0  502  0.41899501798E+03 -0.13126600061E+04  0.50464211942E+02  0.13788327504E+04  0.00000000000E+00 0.  1.
         13    1    5    5    0    0 -0.21213318079E+03  0.78289196922E+03 -0.10469841458E+03  0.81785211370E+03  0.00000000000E+00 0. -1.
        -13    1    5    5    0    0 -0.10701283238E+02  0.21881703424E+03 -0.27283167957E+02  0.22077088393E+03  0.00000000000E+00 0.  1.
          3    1    6    6  503    0 -0.98760593855E+02  0.23273124620E+03 -0.47970101112E+03  0.54224583717E+03  0.00000000000E+00 0. -1.
         -3    1    6    6    0  503 -0.99136516473E+02  0.78719751322E+02 -0.23889868693E+03  0.27036536532E+03  0.00000000000E+00 0.  1.
<mgrwt>
<rscale>  0 0.31320927E+04</rscale>
<asrwt>0</asrwt>
<pdfrwt beam="1">  1        2 0.31047879E+00 0.31320927E+04</pdfrwt>
<pdfrwt beam="2">  1       -1 0.18696081E+00 0.31320927E+04</pdfrwt>
<totfact> 0.11671637E+00</totfact>
</mgrwt>
</event>
<event>
12    7  0.1544987E-007  0.1969128E+04  0.7818608E-02  0.8621192E-01
          2   -1    0    0  501    0  0.00000000000E+00  0.00000000000E+00  0.51982031477E+03  0.51982031477E+03  0.00000000000E+00 0. -1.
         -1   -1    0    0    0  501 -0.00000000000E+00 -0.00000000000E+00 -0.18648098760E+04  0.18648098760E+04  0.00000000000E+00 0.  1.
         24    2    1    2    0    0 -0.33306645067E+03 -0.69664292042E+03 -0.43473418387E+03  0.88974253374E+03  0.80020913447E+02 0.  0.
        254    2    1    2    0    0  0.33306645067E+03  0.69664292042E+03 -0.91025537738E+03  0.14948876570E+04  0.89993312863E+03 0.  0.
         23    2    4    4    0    0  0.45150367160E+03  0.45885263475E+03 -0.10068866678E+04  0.11979361782E+04  0.82637881907E+02 0.  0.
         23    2    4    4    0    0 -0.11843722093E+03  0.23779028567E+03  0.96631290371E+02  0.29695147882E+03  0.90944924171E+02 0.  0.
          2    1    3    3  502    0 -0.30292359024E+03 -0.63959252650E+03 -0.42201497781E+03  0.82397690682E+03  0.00000000000E+00 0. -1.
         -1    1    3    3    0  502 -0.30142860432E+02 -0.57050393920E+02 -0.12719206061E+02  0.65765626921E+02  0.00000000000E+00 0.  1.
         13    1    5    5    0    0  0.25974462148E+03  0.30984157901E+03 -0.67222168629E+03  0.78444315791E+03  0.00000000000E+00 0. -1.
        -13    1    5    5    0    0  0.19175905012E+03  0.14901105574E+03 -0.33466498147E+03  0.41349302032E+03  0.00000000000E+00 0.  1.
          4    1    6    6  503    0 -0.10968009299E+00  0.57290593489E+02  0.50229794221E+02  0.76192232934E+02  0.00000000000E+00 0. -1.
         -4    1    6    6    0  503 -0.11832754084E+03  0.18049969218E+03  0.46401496150E+02  0.22075924588E+03  0.00000000000E+00 0.  1.
<mgrwt>
<rscale>  0 0.19691278E+04</rscale>
<asrwt>0</asrwt>
<pdfrwt beam="1">  1        2 0.79972358E-01 0.19691278E+04</pdfrwt>
<pdfrwt beam="2">  1       -1 0.28689382E+00 0.19691278E+04</pdfrwt>
<totfact> 0.25155189E+00</totfact>
</mgrwt>
</event>
<event>
12    7  0.1544987E-007  0.1634910E+04  0.7818608E-02  0.8799384E-01
          2   -1    0    0  501    0  0.00000000000E+00  0.00000000000E+00  0.32810300464E+04  0.32810300464E+04  0.00000000000E+00 0. -1.
         -1   -1    0    0    0  501 -0.00000000000E+00 -0.00000000000E+00 -0.20366550638E+03  0.20366550638E+03  0.00000000000E+00 0.  1.
         24    2    1    2    0    0 -0.63104131108E+02 -0.75628950666E+02 -0.11183747014E+03  0.16934596809E+03  0.80427406022E+02 0.  0.
        254    2    1    2    0    0  0.63104131108E+02  0.75628950666E+02  0.31892020102E+04  0.33153495847E+04  0.90046184679E+03 0.  0.
         23    2    4    4    0    0  0.36184837401E+03  0.14877556654E+03  0.27020366054E+04  0.27317091409E+04  0.90358170900E+02 0.  0.
         23    2    4    4    0    0 -0.29874424290E+03 -0.73146615873E+02  0.48716540482E+03  0.58364044375E+03  0.93313910303E+02 0.  0.
          2    1    3    3  502    0 -0.23059628783E+02  0.10649255588E+02 -0.42715133446E+01  0.25756532190E+02  0.00000000000E+00 0. -1.
         -1    1    3    3    0  502 -0.40044502325E+02 -0.86278206255E+02 -0.10756595680E+03  0.14358943590E+03  0.00000000000E+00 0.  1.
         13    1    5    5    0    0  0.32055357499E+03  0.96186501068E+02  0.22513199980E+04  0.22760597907E+04  0.00000000000E+00 0.  1.
        -13    1    5    5    0    0  0.41294799019E+02  0.52589065471E+02  0.45071660734E+03  0.45564935023E+03  0.00000000000E+00 0. -1.
          4    1    6    6  503    0 -0.17703935679E+03  0.18263577718E+01  0.24207202292E+03  0.29990854225E+03  0.00000000000E+00 0.  1.
         -4    1    6    6    0  503 -0.12170488611E+03 -0.74972973645E+02  0.24509338190E+03  0.28373190150E+03  0.00000000000E+00 0. -1.
<mgrwt>
<rscale>  0 0.16349100E+04</rscale>
<asrwt>0</asrwt>
<pdfrwt beam="1">  1        2 0.50477382E+00 0.16349100E+04</pdfrwt>
<pdfrwt beam="2">  1       -1 0.31333157E-01 0.16349100E+04</pdfrwt>
<totfact> 0.11901908E+01</totfact>
</mgrwt>
</event>
<event>
12    7  0.1544987E-007  0.2529639E+04  0.7818608E-02  0.8392502E-01
         -1   -1    0    0    0  501 -0.00000000000E+00  0.00000000000E+00  0.13899665423E+04  0.13899665423E+04  0.00000000000E+00 0.  1.
          2   -1    0    0  501    0  0.00000000000E+00 -0.00000000000E+00 -0.11509403140E+04  0.11509403140E+04  0.00000000000E+00 0. -1.
         24    2    1    2    0    0  0.22477332311E+03 -0.93352837401E+03 -0.44338816554E+03  0.10606144129E+04  0.79445552137E+02 0.  0.
        254    2    1    2    0    0 -0.22477332311E+03  0.93352837401E+03  0.68241439381E+03  0.14802924433E+04  0.89642514516E+03 0.  0.
         23    2    4    4    0    0  0.80529764454E+02  0.45511268734E+02 -0.16678876262E+03  0.21111558857E+03  0.90526139091E+02 0.  0.
         23    2    4    4    0    0 -0.30530308756E+03  0.88801710528E+03  0.84920315643E+03  0.12691768547E+04  0.88766734077E+02 0.  0.
          4    1    3    3  502    0  0.19760668766E+03 -0.89211985146E+03 -0.42551934695E+03  0.10079647548E+04  0.00000000000E+00 0. -1.
         -3    1    3    3    0  502  0.27166635440E+02 -0.41408522556E+02 -0.17868818591E+02  0.52649658111E+02  0.00000000000E+00 0.  1.
         13    1    5    5    0    0  0.23919867778E+02  0.54504825404E+02 -0.13007240129E+03  0.14304462815E+03  0.00000000000E+00 0.  1.
        -13    1    5    5    0    0  0.56609896676E+02 -0.89935566693E+01 -0.36716361328E+02  0.68070960419E+02  0.00000000000E+00 0. -1.
          4    1    6    6  503    0 -0.15362324169E+03  0.55924394387E+03  0.49163072369E+03  0.76029905802E+03  0.00000000000E+00 0. -1.
         -4    1    6    6    0  503 -0.15167984586E+03  0.32877316141E+03  0.35757243274E+03  0.50887779668E+03  0.00000000000E+00 0.  1.
<mgrwt>
<rscale>  0 0.25296391E+04</rscale>
<asrwt>0</asrwt>
<pdfrwt beam="1">  1        2 0.17706774E+00 0.25296391E+04</pdfrwt>
<pdfrwt beam="2">  1       -1 0.21384101E+00 0.25296391E+04</pdfrwt>
<totfact> 0.24893903E+00</totfact>
</mgrwt>
</event>
<event>
12    7  0.1544987E-007  0.1536806E+04  0.7818608E-02  0.8860339E-01
          2   -1    0    0  501    0  0.00000000000E+00  0.00000000000E+00  0.82283349710E+03  0.82283349710E+03  0.00000000000E+00 0. -1.
         -3   -1    0    0    0  501 -0.00000000000E+00 -0.00000000000E+00 -0.71757350447E+03  0.71757350447E+03  0.00000000000E+00 0.  1.
         24    2    1    2    0    0  0.28753523421E+03  0.17211340969E+03  0.40738201847E+03  0.53408597828E+03  0.83595373793E+02 0.  0.
        254    2    1    2    0    0 -0.28753523421E+03 -0.17211340969E+03 -0.30212202584E+03  0.10063210233E+04  0.89950249957E+03 0.  0.
         23    2    4    4    0    0 -0.80249073277E+02  0.52868780999E+02  0.29850003122E+03  0.32641707538E+03  0.90613556910E+02 0.  0.
         23    2    4    4    0    0 -0.20728616093E+03 -0.22498219069E+03 -0.60062205706E+03  0.67990394792E+03  0.89095366488E+02 0.  0.
          2    1    3    3  502    0  0.29275392473E+03  0.17179210385E+03  0.39605184175E+03  0.52160756201E+03  0.00000000000E+00 0. -1.
         -1    1    3    3    0  502 -0.52186905246E+01  0.32130584278E+00  0.11330176715E+02  0.12478416271E+02  0.00000000000E+00 0.  1.
         13    1    5    5    0    0 -0.53657262471E+02  0.44696668995E+01  0.24001466186E+03  0.24597991309E+03  0.00000000000E+00 0. -1.
        -13    1    5    5    0    0 -0.26591810806E+02  0.48399114099E+02  0.58485369360E+02  0.80437162287E+02  0.00000000000E+00 0.  1.
          3    1    6    6  503    0 -0.19989080662E+03 -0.18645796878E+03 -0.56149156473E+03  0.62449634583E+03  0.00000000000E+00 0. -1.
         -3    1    6    6    0  503 -0.73953543089E+01 -0.38524221913E+02 -0.39130492328E+02  0.55407602088E+02  0.00000000000E+00 0.  1.
<mgrwt>
<rscale>  0 0.15368064E+04</rscale>
<asrwt>0</asrwt>
<pdfrwt beam="1">  1        2 0.12658977E+00 0.15368064E+04</pdfrwt>
<pdfrwt beam="2">  1       -3 0.11039592E+00 0.15368064E+04</pdfrwt>
<totfact> 0.13968691E+01</totfact>
</mgrwt>
</event>
<event>
12    7  0.1544987E-007  0.1847733E+04  0.7818608E-02  0.8681319E-01
          2   -1    0    0  501    0  0.00000000000E+00  0.00000000000E+00  0.22967538147E+04  0.22967538147E+04  0.00000000000E+00 0. -1.
         -1   -1    0    0    0  501 -0.00000000000E+00 -0.00000000000E+00 -0.37162431258E+03  0.37162431258E+03  0.00000000000E+00 0.  1.
         24    2    1    2    0    0  0.25468614289E+02 -0.70497908552E+03  0.74203280574E+03  0.10268757390E+04  0.78847557134E+02 0.  0.
        254    2    1    2    0    0 -0.25468614289E+02  0.70497908552E+03  0.11830966964E+04  0.16415023883E+04  0.89284272768E+03 0.  0.
         23    2    4    4    0    0 -0.28422843184E+03  0.18784492048E+03  0.94884062896E+03  0.10121674156E+04  0.90071207776E+02 0.  0.
         23    2    4    4    0    0  0.25875981755E+03  0.51713416504E+03  0.23425606747E+03  0.62933497268E+03  0.82475540984E+02 0.  0.
          2    1    3    3  502    0  0.43589353917E+02 -0.65808033135E+03  0.68695746655E+03  0.95230263841E+03  0.00000000000E+00 0. -1.
         -1    1    3    3    0  502 -0.18120739628E+02 -0.46898754170E+02  0.55075339187E+02  0.74573100606E+02  0.00000000000E+00 0.  1.
         13    1    5    5    0    0 -0.29108009395E+03  0.18371363083E+03  0.93178143047E+03  0.99332520023E+03  0.00000000000E+00 0. -1.
        -13    1    5    5    0    0  0.68516621075E+01  0.41312896502E+01  0.17059198488E+02  0.18842215391E+02  0.00000000000E+00 0.  1.
          3    1    6    6  503    0  0.21338740113E+03  0.47392294654E+03  0.22348798406E+03  0.56575968506E+03  0.00000000000E+00 0. -1.
         -3    1    6    6    0  503  0.45372416415E+02  0.43211218497E+02  0.10768083416E+02  0.63575287618E+02  0.00000000000E+00 0.  1.
<mgrwt>
<rscale>  0 0.18477333E+04</rscale>
<asrwt>0</asrwt>
<pdfrwt beam="1">  1        2 0.35334673E+00 0.18477333E+04</pdfrwt>
<pdfrwt beam="2">  1       -1 0.57172973E-01 0.18477333E+04</pdfrwt>
<totfact> 0.15108900E+01</totfact>
</mgrwt>
</event>
<event>
12    7  0.1544987E-007  0.1740483E+04  0.7818608E-02  0.8738607E-01
          2   -1    0    0  501    0  0.00000000000E+00  0.00000000000E+00  0.89732219307E+03  0.89732219307E+03  0.00000000000E+00 0. -1.
         -1   -1    0    0    0  501 -0.00000000000E+00 -0.00000000000E+00 -0.84397785281E+03  0.84397785281E+03  0.00000000000E+00 0.  1.
         24    2    1    2    0    0  0.62641931502E+03  0.10558428643E+02 -0.74104550016E+02  0.63611781323E+03  0.81496928303E+02 0.  0.
        254    2    1    2    0    0 -0.62641931502E+03 -0.10558428643E+02  0.12744889029E+03  0.11051822327E+04  0.90148317183E+03 0.  0.
         23    2    4    4    0    0  0.68846098807E+02  0.41252951705E+02  0.34775635761E+03  0.36821580709E+03  0.90591417862E+02 0.  0.
         23    2    4    4    0    0 -0.69526541383E+03 -0.51811380348E+02 -0.22030746733E+03  0.73696642556E+03  0.92226446557E+02 0.  0.
          2    1    3    3  502    0  0.40078682589E+02 -0.13205618030E+02 -0.20321124119E+02  0.46836281140E+02  0.00000000000E+00 0. -1.
         -1    1    3    3    0  502  0.58634063243E+03  0.23764046673E+02 -0.53783425897E+02  0.58928153209E+03  0.00000000000E+00 0.  1.
         13    1    5    5    0    0  0.29277288454E+02 -0.16789733595E+02  0.39030219056E+02  0.51598573362E+02  0.00000000000E+00 0. -1.
        -13    1    5    5    0    0  0.39568810353E+02  0.58042685299E+02  0.30872613855E+03  0.31661723373E+03  0.00000000000E+00 0.  1.
          3    1    6    6  503    0 -0.13005199996E+03  0.11126457001E+02 -0.11092587466E+02  0.13099758103E+03  0.00000000000E+00 0. -1.
         -3    1    6    6    0  503 -0.56521341387E+03 -0.62937837350E+02 -0.20921487986E+03  0.60596884453E+03  0.00000000000E+00 0.  1.
<mgrwt>
<rscale>  0 0.17404828E+04</rscale>
<asrwt>0</asrwt>
<pdfrwt beam="1">  1        2 0.13804957E+00 0.17404828E+04</pdfrwt>
<pdfrwt beam="2">  1       -1 0.12984275E+00 0.17404828E+04</pdfrwt>
<totfact> 0.16216312E+01</totfact>
</mgrwt>
</event>
<event>
12    7  0.1544987E-007  0.1584556E+04  0.7818608E-02  0.8830093E-01
          2   -1    0    0  501    0  0.00000000000E+00  0.00000000000E+00  0.87011096805E+03  0.87011096805E+03  0.00000000000E+00 0. -1.
         -1   -1    0    0    0  501 -0.00000000000E+00 -0.00000000000E+00 -0.72140695765E+03  0.72140695765E+03  0.00000000000E+00 0.  1.
         24    2    1    2    0    0  0.34511444049E+03  0.15379122658E+03  0.42379122876E+03  0.57341175335E+03  0.80288946348E+02 0.  0.
        254    2    1    2    0    0 -0.34511444049E+03 -0.15379122658E+03 -0.27508721836E+03  0.10181061723E+04  0.90449515314E+03 0.  0.
         23    2    4    4    0    0  0.38698793041E+02 -0.35084859129E+03  0.16063648964E+03  0.39822495718E+03  0.90480407414E+02 0.  0.
         23    2    4    4    0    0 -0.38381323353E+03  0.19705736472E+03 -0.43572370799E+03  0.61988121516E+03  0.90848048840E+02 0.  0.
          4    1    3    3  502    0  0.29909898618E+03  0.10080678897E+03  0.33558109432E+03  0.46069174412E+03  0.00000000000E+00 0. -1.
         -3    1    3    3    0  502  0.46015454310E+02  0.52984437608E+02  0.88210134438E+02  0.11272000923E+03  0.00000000000E+00 0.  1.
         13    1    5    5    0    0  0.27132228314E+02 -0.29329559416E+03  0.16795241648E+03  0.33906706943E+03  0.00000000000E+00 0.  1.
        -13    1    5    5    0    0  0.11566564727E+02 -0.57552997128E+02 -0.73159268427E+01  0.59157887755E+02  0.00000000000E+00 0. -1.
          2    1    6    6  503    0 -0.11414820912E+03  0.58101457562E+02 -0.74515410224E+02  0.14818279042E+03  0.00000000000E+00 0. -1.
         -2    1    6    6    0  503 -0.26966502441E+03  0.13895590715E+03 -0.36120829777E+03  0.47169842474E+03  0.00000000000E+00 0.  1.
<mgrwt>
<rscale>  0 0.15845556E+04</rscale>
<asrwt>0</asrwt>
<pdfrwt beam="1">  1        2 0.13386322E+00 0.15845556E+04</pdfrwt>
<pdfrwt beam="2">  1       -1 0.11098569E+00 0.15845556E+04</pdfrwt>
<totfact> 0.25172022E+01</totfact>
</mgrwt>
</event>
<event>
12    7  0.1544987E-007  0.2154385E+04  0.7818608E-02  0.8537658E-01
         -1   -1    0    0    0  501 -0.00000000000E+00  0.00000000000E+00  0.19007243914E+04  0.19007243914E+04  0.00000000000E+00 0.  1.
          2   -1    0    0  501    0  0.00000000000E+00 -0.00000000000E+00 -0.61047425205E+03  0.61047425205E+03  0.00000000000E+00 0. -1.
         24    2    1    2    0    0 -0.69362326711E+02 -0.38610464229E+03 -0.39559092323E+03  0.56402717758E+03  0.88014495048E+02 0.  0.
        254    2    1    2    0    0  0.69362326711E+02  0.38610464229E+03  0.16858410626E+04  0.19471714659E+04  0.89192415710E+03 0.  0.
         23    2    4    4    0    0  0.14729973489E+03  0.53851599306E+03  0.16572259022E+04  0.17510778277E+04  0.90438823489E+02 0.  0.
         23    2    4    4    0    0 -0.77937408176E+02 -0.15241135076E+03  0.28615160375E+02  0.19609363823E+03  0.91271179002E+02 0.  0.
          2    1    3    3  502    0 -0.63594964360E+02 -0.32742805944E+03 -0.37427364465E+03  0.50133243929E+03  0.00000000000E+00 0. -1.
         -1    1    3    3    0  502 -0.57673623505E+01 -0.58676582850E+02 -0.21317278583E+02  0.62694738293E+02  0.00000000000E+00 0.  1.
         13    1    5    5    0    0  0.11209655569E+02  0.23865545451E+02  0.15711380386E+03  0.15931091614E+03  0.00000000000E+00 0. -1.
        -13    1    5    5    0    0  0.13609007932E+03  0.51465044761E+03  0.15001120984E+04  0.15917669115E+04  0.00000000000E+00 0.  1.
          4    1    6    6  503    0 -0.67308919735E+02 -0.15691850200E+03  0.44507552066E+02  0.17645064221E+03  0.00000000000E+00 0.  1.
         -4    1    6    6    0  503 -0.10628488440E+02  0.45071512397E+01 -0.15892391691E+02  0.19642996016E+02  0.00000000000E+00 0. -1.
<mgrwt>
<rscale>  0 0.21543846E+04</rscale>
<asrwt>0</asrwt>
<pdfrwt beam="1">  1        2 0.93919117E-01 0.21543846E+04</pdfrwt>
<pdfrwt beam="2">  1       -1 0.29241913E+00 0.21543846E+04</pdfrwt>
<totfact> 0.18817359E+00</totfact>
</mgrwt>
</event>
<event>
12    7  0.1544987E-007  0.4213664E+04  0.7818608E-02  0.7962778E-01
          2   -1    0    0  501    0  0.00000000000E+00  0.00000000000E+00  0.29961716431E+04  0.29961716431E+04  0.00000000000E+00 0. -1.
         -1   -1    0    0    0  501 -0.00000000000E+00 -0.00000000000E+00 -0.14814706227E+04  0.14814706227E+04  0.00000000000E+00 0.  1.
         24    2    1    2    0    0 -0.27082963962E+03 -0.10201915572E+04  0.25404340240E+04  0.27521211575E+04  0.78907083971E+02 0.  0.
        254    2    1    2    0    0  0.27082963962E+03  0.10201915572E+04 -0.10257330037E+04  0.17255211084E+04  0.90064165664E+03 0.  0.
         23    2    4    4    0    0  0.22861948501E+03 -0.61263781294E+02 -0.35685184991E+02  0.25587782728E+03  0.90442856229E+02 0.  0.
         23    2    4    4    0    0  0.42210154607E+02  0.10814553385E+04 -0.99004781868E+03  0.14696432811E+04  0.91265240885E+02 0.  0.
          2    1    3    3  502    0 -0.27218141615E+03 -0.96403886804E+03  0.23838543887E+04  0.25857717240E+04  0.00000000000E+00 0. -1.
         -1    1    3    3    0  502  0.13517765330E+01 -0.56152689136E+02  0.15657963534E+03  0.16634943342E+03  0.00000000000E+00 0.  1.
         13    1    5    5    0    0  0.18437247356E+03 -0.72010351693E+02  0.14707156058E+00  0.19793615482E+03  0.00000000000E+00 0. -1.
        -13    1    5    5    0    0  0.44247011453E+02  0.10746570399E+02 -0.35832256552E+02  0.57941672459E+02  0.00000000000E+00 0.  1.
          4    1    6    6  503    0  0.43856459231E+02  0.10072169023E+04 -0.95013562960E+03  0.13853400275E+04  0.00000000000E+00 0. -1.
         -4    1    6    6    0  503 -0.16463046240E+01  0.74238436188E+02 -0.39912189077E+02  0.84303253576E+02  0.00000000000E+00 0.  1.
<mgrwt>
<rscale>  0 0.42136636E+04</rscale>
<asrwt>0</asrwt>
<pdfrwt beam="1">  1        2 0.46094948E+00 0.42136636E+04</pdfrwt>
<pdfrwt beam="2">  1       -1 0.22791856E+00 0.42136636E+04</pdfrwt>
<totfact> 0.15017267E-01</totfact>
</mgrwt>
</event>
<event>
12    7  0.1544987E-007  0.4066758E+04  0.7818608E-02  0.7991213E-01
         -1   -1    0    0    0  501 -0.00000000000E+00  0.00000000000E+00  0.32702387492E+04  0.32702387492E+04  0.00000000000E+00 0.  1.
          2   -1    0    0  501    0  0.00000000000E+00 -0.00000000000E+00 -0.12643203183E+04  0.12643203183E+04  0.00000000000E+00 0. -1.
         24    2    1    2    0    0 -0.17005940536E+04 -0.79419884612E+03  0.42818823632E+03  0.19267814093E+04  0.79809094385E+02 0.  0.
        254    2    1    2    0    0  0.17005940536E+04  0.79419884612E+03  0.15777301946E+04  0.26077776582E+04  0.88797511523E+03 0.  0.
         23    2    4    4    0    0  0.15944874994E+04  0.40086566804E+03  0.13698504619E+04  0.21419009346E+04  0.90364018613E+02 0.  0.
         23    2    4    4    0    0  0.10610655412E+03  0.39333317808E+03  0.20787973272E+03  0.46587672360E+03  0.88642814221E+02 0.  0.
          2    1    3    3  502    0 -0.12789349884E+04 -0.60815421113E+03  0.35663299061E+03  0.14603812308E+04  0.00000000000E+00 0. -1.
         -1    1    3    3    0  502 -0.42165906511E+03 -0.18604463499E+03  0.71555245706E+02  0.46640017858E+03  0.00000000000E+00 0.  1.
         13    1    5    5    0    0  0.33181274447E+03  0.90140253388E+02  0.33471268983E+03  0.47985158894E+03  0.00000000000E+00 0. -1.
        -13    1    5    5    0    0  0.12626747550E+04  0.31072541465E+03  0.10351377721E+04  0.16620493456E+04  0.00000000000E+00 0.  1.
          3    1    6    6  503    0  0.30739029782E+02  0.94085288101E+02  0.10443122529E+02  0.99528830985E+02  0.00000000000E+00 0. -1.
         -3    1    6    6    0  503  0.75367524340E+02  0.29924788998E+03  0.19743661019E+03  0.36634789262E+03  0.00000000000E+00 0.  1.
<mgrwt>
<rscale>  0 0.40667576E+04</rscale>
<asrwt>0</asrwt>
<pdfrwt beam="1">  1        2 0.19451082E+00 0.40667576E+04</pdfrwt>
<pdfrwt beam="2">  1       -1 0.50311365E+00 0.40667576E+04</pdfrwt>
<totfact> 0.22103110E-02</totfact>
</mgrwt>
</event>
<event>
12    7  0.1544987E-007  0.1382072E+04  0.7818608E-02  0.8966899E-01
          2   -1    0    0  501    0  0.00000000000E+00  0.00000000000E+00  0.12986021474E+04  0.12986021474E+04  0.00000000000E+00 0. -1.
         -1   -1    0    0    0  501 -0.00000000000E+00 -0.00000000000E+00 -0.36772649515E+03  0.36772649515E+03  0.00000000000E+00 0.  1.
         24    2    1    2    0    0 -0.17992960028E+03 -0.43839462715E+02  0.66901806244E+03  0.69826110608E+03  0.75411171946E+02 0.  0.
        254    2    1    2    0    0  0.17992960028E+03  0.43839462715E+02  0.26185758977E+03  0.96806753642E+03  0.91339410892E+03 0.  0.
         23    2    4    4    0    0  0.48727659431E+02  0.42233122435E+03 -0.70524660569E+02  0.43998973513E+03  0.88764809594E+02 0.  0.
         23    2    4    4    0    0  0.13120194085E+03 -0.37849176163E+03  0.33238225034E+03  0.52807780129E+03  0.88984498449E+02 0.  0.
          2    1    3    3  502    0 -0.15697587853E+03 -0.77400887132E+01  0.52911718666E+03  0.55196587996E+03  0.00000000000E+00 0. -1.
         -1    1    3    3    0  502 -0.22953721752E+02 -0.36099374002E+02  0.13990087577E+03  0.14629522613E+03  0.00000000000E+00 0.  1.
         13    1    5    5    0    0  0.16739662850E+02  0.10857348147E+03  0.20456685446E+02  0.11174476798E+03  0.00000000000E+00 0. -1.
        -13    1    5    5    0    0  0.31987996581E+02  0.31375774288E+03 -0.90981346015E+02  0.32824496716E+03  0.00000000000E+00 0.  1.
          4    1    6    6  503    0  0.13802395492E+03 -0.33236117354E+03  0.31514149406E+03  0.47836045309E+03  0.00000000000E+00 0.  1.
         -4    1    6    6    0  503 -0.68220140729E+01 -0.46130588097E+02  0.17240756280E+02  0.49717348193E+02  0.00000000000E+00 0. -1.
<mgrwt>
<rscale>  0 0.13820715E+04</rscale>
<asrwt>0</asrwt>
<pdfrwt beam="1">  1        2 0.19978494E+00 0.13820715E+04</pdfrwt>
<pdfrwt beam="2">  1       -1 0.56573307E-01 0.13820715E+04</pdfrwt>
<totfact> 0.58180484E+01</totfact>
</mgrwt>
</event>
<event>
12    7  0.1544987E-007  0.2748790E+04  0.7818608E-02  0.8319346E-01
         -1   -1    0    0    0  501 -0.00000000000E+00  0.00000000000E+00  0.18390086166E+04  0.18390086166E+04  0.00000000000E+00 0.  1.
          2   -1    0    0  501    0  0.00000000000E+00 -0.00000000000E+00 -0.10271630375E+04  0.10271630375E+04  0.00000000000E+00 0. -1.
         24    2    1    2    0    0  0.82252685343E+03 -0.83970661824E+03 -0.22821714263E+00  0.11780327246E+04  0.78124380211E+02 0.  0.
        254    2    1    2    0    0 -0.82252685343E+03  0.83970661824E+03  0.81207379620E+03  0.16881389295E+04  0.89927279823E+03 0.  0.
         23    2    4    4    0    0 -0.91819305007E+03  0.93016195966E+03  0.66078491901E+03  0.14677701882E+04  0.97122951865E+02 0.  0.
         23    2    4    4    0    0  0.95666196639E+02 -0.90455341424E+02  0.15128887719E+03  0.22036874134E+03  0.91322876801E+02 0.  0.
          4    1    3    3  502    0  0.30281691003E+03 -0.25687250489E+03 -0.51157333002E+01  0.39712433254E+03  0.00000000000E+00 0. -1.
         -3    1    3    3    0  502  0.51970994340E+03 -0.58283411335E+03  0.48875161576E+01  0.78090839205E+03  0.00000000000E+00 0.  1.
         13    1    5    5    0    0 -0.25822080317E+03  0.22462310453E+03  0.13544485288E+03  0.36807449035E+03  0.00000000000E+00 0. -1.
        -13    1    5    5    0    0 -0.65997224690E+03  0.70553885514E+03  0.52534006612E+03  0.10996956978E+04  0.00000000000E+00 0.  1.
          2    1    6    6  503    0  0.39319522588E+02 -0.19648705775E+02  0.11456925915E+03  0.12271190504E+03  0.00000000000E+00 0. -1.
         -2    1    6    6    0  503  0.56346674051E+02 -0.70806635649E+02  0.36719618045E+02  0.97656836309E+02  0.00000000000E+00 0.  1.
<mgrwt>
<rscale>  0 0.27487900E+04</rscale>
<asrwt>0</asrwt>
<pdfrwt beam="1">  1        2 0.15802508E+00 0.27487900E+04</pdfrwt>
<pdfrwt beam="2">  1       -1 0.28292440E+00 0.27487900E+04</pdfrwt>
<totfact> 0.10269318E+00</totfact>
</mgrwt>
</event>
<event>
12    7  0.1544987E-007  0.1568573E+04  0.7818608E-02  0.8840091E-01
         -1   -1    0    0    0  501 -0.00000000000E+00  0.00000000000E+00  0.40403065056E+03  0.40403065056E+03  0.00000000000E+00 0.  1.
          2   -1    0    0  501    0  0.00000000000E+00 -0.00000000000E+00 -0.15224216689E+04  0.15224216689E+04  0.00000000000E+00 0. -1.
         24    2    1    2    0    0  0.11516781725E+03  0.35760054821E+02 -0.99877971279E+03  0.10094912903E+04  0.83482589684E+02 0.  0.
        254    2    1    2    0    0 -0.11516781725E+03 -0.35760054821E+02 -0.11961130553E+03  0.91696102918E+03  0.90109281263E+03 0.  0.
         23    2    4    4    0    0 -0.24486893593E+03  0.96436966424E+02 -0.44863997321E+03  0.52800384884E+03  0.90825957500E+02 0.  0.
         23    2    4    4    0    0  0.12970111867E+03 -0.13219702125E+03  0.32902866768E+03  0.38895718034E+03  0.93431211985E+02 0.  0.
          2    1    3    3  502    0  0.99025295148E+02 -0.81491350945E+01 -0.63788374705E+03  0.64557578349E+03  0.00000000000E+00 0. -1.
         -1    1    3    3    0  502  0.16142522107E+02  0.43909189916E+02 -0.36089596574E+03  0.36391550677E+03  0.00000000000E+00 0.  1.
         13    1    5    5    0    0 -0.21706620608E+03  0.11227238700E+03 -0.41476399351E+03  0.48140627023E+03  0.00000000000E+00 0. -1.
        -13    1    5    5    0    0 -0.27802729852E+02 -0.15835420578E+02 -0.33875979700E+02  0.46597578614E+02  0.00000000000E+00 0.  1.
          1    1    6    6  503    0  0.59503848394E+02 -0.10650069243E+03  0.14006709979E+03  0.18574686513E+03  0.00000000000E+00 0. -1.
         -1    1    6    6    0  503  0.70197270279E+02 -0.25696328815E+02  0.18896156789E+03  0.20321031521E+03  0.00000000000E+00 0.  1.
<mgrwt>
<rscale>  0 0.15685726E+04</rscale>
<asrwt>0</asrwt>
<pdfrwt beam="1">  1        2 0.23421872E+00 0.15685726E+04</pdfrwt>
<pdfrwt beam="2">  1       -1 0.62158562E-01 0.15685726E+04</pdfrwt>
<totfact> 0.35448871E+01</totfact>
</mgrwt>
</event>
<event>
12    7  0.1544987E-007  0.1150824E+04  0.7818608E-02  0.9157024E-01
          2   -1    0    0  501    0  0.00000000000E+00  0.00000000000E+00  0.23801038126E+03  0.23801038126E+03  0.00000000000E+00 0. -1.
         -1   -1    0    0    0  501 -0.00000000000E+00 -0.00000000000E+00 -0.13911104064E+04  0.13911104064E+04  0.00000000000E+00 0.  1.
         24    2    1    2    0    0 -0.17873483150E+03 -0.65847337716E+02 -0.36255621572E+03  0.41668711865E+03  0.76805816269E+02 0.  0.
        254    2    1    2    0    0  0.17873483150E+03  0.65847337716E+02 -0.79054380940E+03  0.12124336690E+04  0.89930744200E+03 0.  0.
         23    2    4    4    0    0 -0.28004205788E+03 -0.11673661237E+03 -0.59358720992E+03  0.67305982427E+03  0.92804959005E+02 0.  0.
         23    2    4    4    0    0  0.45877688938E+03  0.18258395009E+03 -0.19695659948E+03  0.53937384472E+03  0.91209151036E+02 0.  0.
          2    1    3    3  502    0 -0.11047657557E+03 -0.71281204061E+02 -0.19012117764E+03  0.23115394436E+03  0.00000000000E+00 0. -1.
         -1    1    3    3    0  502 -0.68258255925E+02  0.54338663448E+01 -0.17243503808E+03  0.18553317429E+03  0.00000000000E+00 0.  1.
         13    1    5    5    0    0 -0.62802032526E+02 -0.35596060039E+02 -0.23656985224E+03  0.24733877530E+03  0.00000000000E+00 0.  1.
        -13    1    5    5    0    0 -0.21724002535E+03 -0.81140552331E+02 -0.35701735768E+03  0.42572104897E+03  0.00000000000E+00 0. -1.
          4    1    6    6  503    0  0.32647608834E+03  0.10904173158E+03 -0.17591149093E+03  0.38655088685E+03  0.00000000000E+00 0. -1.
         -4    1    6    6    0  503  0.13230080104E+03  0.73542218509E+02 -0.21045108553E+02  0.15282295787E+03  0.00000000000E+00 0.  1.
<mgrwt>
<rscale>  0 0.11508236E+04</rscale>
<asrwt>0</asrwt>
<pdfrwt beam="1">  1        2 0.36616982E-01 0.11508236E+04</pdfrwt>
<pdfrwt beam="2">  1       -1 0.21401698E+00 0.11508236E+04</pdfrwt>
<totfact> 0.19514227E+01</totfact>
</mgrwt>
</event>
<event>
12    7  0.1544987E-007  0.1595654E+04  0.7818608E-02  0.8823223E-01
          2   -1    0    0  501    0  0.00000000000E+00  0.00000000000E+00  0.72537607153E+03  0.72537607153E+03  0.00000000000E+00 0. -1.
         -1   -1    0    0    0  501 -0.00000000000E+00 -0.00000000000E+00 -0.87751387174E+03  0.87751387174E+03  0.00000000000E+00 0.  1.
         24    2    1    2    0    0  0.10325593763E+03 -0.46981485652E+03  0.19310134287E+03  0.52458665431E+03  0.80717044047E+02 0.  0.
        254    2    1    2    0    0 -0.10325593763E+03  0.46981485652E+03 -0.34523914308E+03  0.10783032890E+04  0.90119927263E+03 0.  0.
         23    2    4    4    0    0 -0.24652849076E+03 -0.94352844972E+02  0.14220502822E+03  0.31383905570E+03  0.92703434241E+02 0.  0.
         23    2    4    4    0    0  0.14327255313E+03  0.56416770149E+03 -0.48744417130E+03  0.76446423325E+03  0.89395323690E+02 0.  0.
          2    1    3    3  502    0  0.10609884131E+03 -0.30606080229E+03  0.13161600836E+03  0.34964689686E+03  0.00000000000E+00 0. -1.
         -1    1    3    3    0  502 -0.28429036766E+01 -0.16375405422E+03  0.61485334510E+02  0.17493975745E+03  0.00000000000E+00 0.  1.
         13    1    5    5    0    0  0.82220877965E+01 -0.15653795191E+01  0.68046353495E+01  0.10786853249E+02  0.00000000000E+00 0. -1.
        -13    1    5    5    0    0 -0.25475057856E+03 -0.92787465453E+02  0.13540039287E+03  0.30305220245E+03  0.00000000000E+00 0.  1.
          1    1    6    6  503    0  0.46549714627E+02  0.34788021463E+03 -0.26910738415E+03  0.44227401446E+03  0.00000000000E+00 0. -1.
         -1    1    6    6    0  503  0.96722838502E+02  0.21628748686E+03 -0.21833678716E+03  0.32219021880E+03  0.00000000000E+00 0.  1.
<mgrwt>
<rscale>  0 0.15956536E+04</rscale>
<asrwt>0</asrwt>
<pdfrwt beam="1">  1        2 0.11159632E+00 0.15956536E+04</pdfrwt>
<pdfrwt beam="2">  1       -1 0.13500213E+00 0.15956536E+04</pdfrwt>
<totfact> 0.19759242E+01</totfact>
</mgrwt>
</event>
<event>
12    7  0.1544987E-007  0.2552753E+04  0.7818608E-02  0.8384429E-01
         -1   -1    0    0    0  501 -0.00000000000E+00  0.00000000000E+00  0.10850258470E+04  0.10850258470E+04  0.00000000000E+00 0.  1.
          2   -1    0    0  501    0  0.00000000000E+00 -0.00000000000E+00 -0.15014729375E+04  0.15014729375E+04  0.00000000000E+00 0. -1.
         24    2    1    2    0    0 -0.66707567751E+03 -0.42901830130E+03 -0.97948835013E+03  0.12628515922E+04  0.79687223160E+02 0.  0.
        254    2    1    2    0    0  0.66707567751E+03  0.42901830130E+03  0.56304125963E+03  0.13236471923E+04  0.89776375919E+03 0.  0.
         23    2    4    4    0    0  0.17434409398E+03  0.61990435846E+03  0.40516862562E+03  0.76601261206E+03  0.89086642682E+02 0.  0.
         23    2    4    4    0    0  0.49273158354E+03 -0.19088605716E+03  0.15787263401E+03  0.55763458026E+03  0.82526700524E+02 0.  0.
          2    1    3    3  502    0 -0.48946326005E+03 -0.29403243810E+03 -0.65309345428E+03  0.86750240209E+03  0.00000000000E+00 0. -1.
         -1    1    3    3    0  502 -0.17761241746E+03 -0.13498586319E+03 -0.32639489585E+03  0.39534919013E+03  0.00000000000E+00 0.  1.
         13    1    5    5    0    0  0.79760835370E+02  0.21191158218E+03  0.18768283441E+03  0.29409718777E+03  0.00000000000E+00 0. -1.
        -13    1    5    5    0    0  0.94583258608E+02  0.40799277628E+03  0.21748579121E+03  0.47191542429E+03  0.00000000000E+00 0.  1.
          3    1    6    6  503    0  0.11118149733E+03 -0.58298535779E+02  0.46678886581E+01  0.12562576888E+03  0.00000000000E+00 0. -1.
         -3    1    6    6    0  503  0.38155008621E+03 -0.13258752138E+03  0.15320474535E+03  0.43200881138E+03  0.00000000000E+00 0.  1.
<mgrwt>
<rscale>  0 0.25527530E+04</rscale>
<asrwt>0</asrwt>
<pdfrwt beam="1">  1        2 0.23099584E+00 0.25527530E+04</pdfrwt>
<pdfrwt beam="2">  1       -1 0.16692705E+00 0.25527530E+04</pdfrwt>
<totfact> 0.33225064E+00</totfact>
</mgrwt>
</event>
<event>
12    7  0.1544987E-007  0.1351326E+04  0.7818608E-02  0.8989825E-01
          2   -1    0    0  501    0  0.00000000000E+00  0.00000000000E+00  0.49154172211E+04  0.49154172211E+04  0.00000000000E+00 0. -1.
         -1   -1    0    0    0  501 -0.00000000000E+00 -0.00000000000E+00 -0.92875191953E+02  0.92875191953E+02  0.00000000000E+00 0.  1.
         24    2    1    2    0    0 -0.22666445202E+03  0.14991451018E+03  0.42641979906E+03  0.51232720672E+03  0.82426861810E+02 0.  0.
        254    2    1    2    0    0  0.22666445202E+03 -0.14991451018E+03  0.43961222301E+04  0.44959652064E+04  0.90219806058E+03 0.  0.
         23    2    4    4    0    0 -0.88202634031E+02  0.33097118645E+03  0.19075144277E+04  0.19402167946E+04  0.92240377556E+02 0.  0.
         23    2    4    4    0    0  0.31486708605E+03 -0.48088569663E+03  0.24886078024E+04  0.25557484117E+04  0.91042928745E+02 0.  0.
          4    1    3    3  502    0 -0.45878314984E+02  0.23464253493E+02  0.32764442283E+02  0.61064716947E+02  0.00000000000E+00 0. -1.
         -3    1    3    3    0  502 -0.18078613703E+03  0.12645025668E+03  0.39365535678E+03  0.45126248977E+03  0.00000000000E+00 0.  1.
         13    1    5    5    0    0 -0.66305003695E+02  0.86164242373E+02  0.55409421235E+03  0.56466009805E+03  0.00000000000E+00 0. -1.
        -13    1    5    5    0    0 -0.21897630336E+02  0.24480694408E+03  0.13534202154E+04  0.13755566966E+04  0.00000000000E+00 0.  1.
          4    1    6    6  503    0  0.22413064357E+03 -0.33162092258E+03  0.15383222004E+04  0.15895414980E+04  0.00000000000E+00 0. -1.
         -4    1    6    6    0  503  0.90736442478E+02 -0.14926477404E+03  0.95028560195E+03  0.96620691368E+03  0.00000000000E+00 0.  1.
<mgrwt>
<rscale>  0 0.13513257E+04</rscale>
<asrwt>0</asrwt>
<pdfrwt beam="1">  1        2 0.75621783E+00 0.13513257E+04</pdfrwt>
<pdfrwt beam="2">  1       -1 0.14288495E-01 0.13513257E+04</pdfrwt>
<totfact> 0.18374654E+00</totfact>
</mgrwt>
</event>
<event>
12    7  0.1544987E-007  0.1845292E+04  0.7818608E-02  0.8682577E-01
          2   -1    0    0  501    0  0.00000000000E+00  0.00000000000E+00  0.32266616579E+04  0.32266616579E+04  0.00000000000E+00 0. -1.
         -1   -1    0    0    0  501 -0.00000000000E+00 -0.00000000000E+00 -0.26382563856E+03  0.26382563856E+03  0.00000000000E+00 0.  1.
         24    2    1    2    0    0 -0.26806557214E+02 -0.53048191294E+03  0.21559664275E+04  0.22218655973E+04  0.79786241541E+02 0.  0.
        254    2    1    2    0    0  0.26806557214E+02  0.53048191294E+03  0.80686959186E+03  0.12686216992E+04  0.82233376798E+03 0.  0.
         23    2    4    4    0    0 -0.29250876246E+03  0.15169706701E+03  0.30146171564E+02  0.34284342305E+03  0.89774410674E+02 0.  0.
         23    2    4    4    0    0  0.31931531968E+03  0.37878484594E+03  0.77672342030E+03  0.92577827616E+03  0.91246435944E+02 0.  0.
          2    1    3    3  502    0 -0.39850435100E+02 -0.42331192283E+03  0.18187740822E+04  0.18678116081E+04  0.00000000000E+00 0. -1.
         -1    1    3    3    0  502  0.13043877886E+02 -0.10716999011E+03  0.33719234528E+03  0.35405398917E+03  0.00000000000E+00 0.  1.
         13    1    5    5    0    0 -0.35733725282E+01  0.20450150807E+01 -0.13888792113E+02  0.14486187361E+02  0.00000000000E+00 0.  1.
        -13    1    5    5    0    0 -0.28893538994E+03  0.14965205193E+03  0.44034963677E+02  0.32835723569E+03  0.00000000000E+00 0. -1.
          4    1    6    6  503    0  0.20197039042E+03  0.19234569003E+03  0.37147772156E+03  0.46452621099E+03  0.00000000000E+00 0. -1.
         -4    1    6    6    0  503  0.11734492926E+03  0.18643915590E+03  0.40524569873E+03  0.46125206517E+03  0.00000000000E+00 0.  1.
<mgrwt>
<rscale>  0 0.18452925E+04</rscale>
<asrwt>0</asrwt>
<pdfrwt beam="1">  1        2 0.49640946E+00 0.18452925E+04</pdfrwt>
<pdfrwt beam="2">  1       -1 0.40588562E-01 0.18452925E+04</pdfrwt>
<totfact> 0.79501841E+00</totfact>
</mgrwt>
</event>
<event>
12    7  0.1544987E-007  0.1419558E+04  0.7818608E-02  0.8939782E-01
         -1   -1    0    0    0  501 -0.00000000000E+00  0.00000000000E+00  0.11903844199E+04  0.11903844199E+04  0.00000000000E+00 0.  1.
          2   -1    0    0  501    0  0.00000000000E+00 -0.00000000000E+00 -0.42321322627E+03  0.42321322627E+03  0.00000000000E+00 0. -1.
         24    2    1    2    0    0 -0.34912184340E+03 -0.16646687493E+03  0.38440902120E+03  0.55129731228E+03  0.81000919520E+02 0.  0.
        254    2    1    2    0    0  0.34912184340E+03  0.16646687493E+03  0.38276217247E+03  0.10623003339E+04  0.91234743206E+03 0.  0.
         23    2    4    4    0    0 -0.10348052991E+03 -0.18212143799E+03  0.42372188821E+03  0.48126731511E+03  0.90562419367E+02 0.  0.
         23    2    4    4    0    0  0.45260237331E+03  0.34858831291E+03 -0.40959715734E+02  0.58103301881E+03  0.97769885004E+02 0.  0.
          2    1    3    3  502    0  0.16880115184E+01 -0.49326472426E+01  0.18689131841E+02  0.19402681276E+02  0.00000000000E+00 0. -1.
         -1    1    3    3    0  502 -0.35080985491E+03 -0.16153422768E+03  0.36571988935E+03  0.53189463100E+03  0.00000000000E+00 0.  1.
         13    1    5    5    0    0 -0.36196042949E+02 -0.53151866350E+01  0.45591583245E+02  0.58455087006E+02  0.00000000000E+00 0. -1.
        -13    1    5    5    0    0 -0.67284486964E+02 -0.17680625135E+03  0.37813030496E+03  0.42281222810E+03  0.00000000000E+00 0.  1.
          3    1    6    6  503    0  0.13473195311E+03  0.97538762492E+02  0.32216296037E+02  0.16942372652E+03  0.00000000000E+00 0. -1.
         -3    1    6    6    0  503  0.31787042020E+03  0.25104955042E+03 -0.73176011771E+02  0.41160929230E+03  0.00000000000E+00 0.  1.
<mgrwt>
<rscale>  0 0.14195583E+04</rscale>
<asrwt>0</asrwt>
<pdfrwt beam="1">  1        2 0.65109728E-01 0.14195583E+04</pdfrwt>
<pdfrwt beam="2">  1       -1 0.18313606E+00 0.14195583E+04</pdfrwt>
<totfact> 0.16388550E+01</totfact>
</mgrwt>
</event>
<event>
12    7  0.1544987E-007  0.1804509E+04  0.7818608E-02  0.8703905E-01
         -1   -1    0    0    0  501 -0.00000000000E+00  0.00000000000E+00  0.85398592133E+03  0.85398592133E+03  0.00000000000E+00 0.  1.
          2   -1    0    0  501    0  0.00000000000E+00 -0.00000000000E+00 -0.95325168597E+03  0.95325168597E+03  0.00000000000E+00 0. -1.
         24    2    1    2    0    0 -0.24987805841E+03 -0.99252655126E+02  0.58373976716E+03  0.64785832816E+03  0.81720034120E+02 0.  0.
        254    2    1    2    0    0  0.24987805841E+03  0.99252655126E+02 -0.68300553179E+03  0.11593792792E+04  0.89742610996E+03 0.  0.
         23    2    4    4    0    0  0.57169083886E+03  0.16845038935E+02 -0.33594713606E+03  0.67004307685E+03  0.94779090664E+02 0.  0.
         23    2    4    4    0    0 -0.32181278045E+03  0.82407616192E+02 -0.34705839574E+03  0.48933620230E+03  0.92983374674E+02 0.  0.
          4    1    3    3  502    0 -0.38953497384E+02  0.11890413934E+02  0.11442321621E+03  0.12145546225E+03  0.00000000000E+00 0. -1.
         -3    1    3    3    0  502 -0.21092456103E+03 -0.11114306906E+03  0.46931655095E+03  0.52640286591E+03  0.00000000000E+00 0.  1.
         13    1    5    5    0    0  0.19875530070E+03  0.51025299925E+02 -0.12268027953E+03  0.23907676962E+03  0.00000000000E+00 0. -1.
        -13    1    5    5    0    0  0.37293553816E+03 -0.34180260991E+02 -0.21326685653E+03  0.43096630722E+03  0.00000000000E+00 0.  1.
          1    1    6    6  503    0 -0.15653739054E+03 -0.37766082759E+01 -0.18472861413E+03  0.24216291683E+03  0.00000000000E+00 0. -1.
         -1    1    6    6    0  503 -0.16527538991E+03  0.86184224468E+02 -0.16232978160E+03  0.24717328548E+03  0.00000000000E+00 0.  1.
<mgrwt>
<rscale>  0 0.18045094E+04</rscale>
<asrwt>0</asrwt>
<pdfrwt beam="1">  1        2 0.14665411E+00 0.18045094E+04</pdfrwt>
<pdfrwt beam="2">  1       -1 0.13138245E+00 0.18045094E+04</pdfrwt>
<totfact> 0.14364789E+01</totfact>
</mgrwt>
</event>
<event>
12    7  0.1544987E-007  0.2179776E+04  0.7818608E-02  0.8526893E-01
         -1   -1    0    0    0  501 -0.00000000000E+00  0.00000000000E+00  0.45265609673E+03  0.45265609673E+03  0.00000000000E+00 0.  1.
          2   -1    0    0  501    0  0.00000000000E+00 -0.00000000000E+00 -0.26241906738E+04  0.26241906738E+04  0.00000000000E+00 0. -1.
         24    2    1    2    0    0  0.86757662988E+03 -0.65237415412E+02 -0.59083472050E+03  0.10547817275E+04  0.80831285585E+02 0.  0.
        254    2    1    2    0    0 -0.86757662988E+03  0.65237415412E+02 -0.15806998566E+04  0.20220650430E+04  0.91279234903E+03 0.  0.
         23    2    4    4    0    0 -0.27672026478E+03 -0.39980916713E+03 -0.50963032818E+03  0.71029506216E+03  0.91512451978E+02 0.  0.
         23    2    4    4    0    0 -0.59085636510E+03  0.46504658254E+03 -0.10710695284E+04  0.13117699809E+04  0.90393472423E+02 0.  0.
          2    1    3    3  502    0  0.30534449361E+03 -0.52770836194E+02 -0.24007797009E+03  0.39199164870E+03  0.00000000000E+00 0. -1.
         -1    1    3    3    0  502  0.56223213627E+03 -0.12466579218E+02 -0.35075675041E+03  0.66279007884E+03  0.00000000000E+00 0.  1.
         13    1    5    5    0    0 -0.91300165434E+02 -0.11555085324E+03 -0.21652266096E+03  0.26185832544E+03  0.00000000000E+00 0.  1.
        -13    1    5    5    0    0 -0.18542009934E+03 -0.28425831389E+03 -0.29310766722E+03  0.44843673672E+03  0.00000000000E+00 0. -1.
          2    1    6    6  503    0 -0.57852854554E+03  0.44153994271E+03 -0.10073375010E+04  0.12427315237E+04  0.00000000000E+00 0. -1.
         -2    1    6    6    0  503 -0.12327819558E+02  0.23506639828E+02 -0.63732027408E+02  0.69038457172E+02  0.00000000000E+00 0.  1.
<mgrwt>
<rscale>  0 0.21797761E+04</rscale>
<asrwt>0</asrwt>
<pdfrwt beam="1">  1        2 0.40372164E+00 0.21797761E+04</pdfrwt>
<pdfrwt beam="2">  1       -1 0.69639400E-01 0.21797761E+04</pdfrwt>
<totfact> 0.64005908E+00</totfact>
</mgrwt>
</event>
<event>
12    7  0.1544987E-007  0.3671982E+04  0.7818608E-02  0.8074200E-01
          2   -1    0    0  501    0  0.00000000000E+00  0.00000000000E+00  0.11986738759E+04  0.11986738759E+04  0.00000000000E+00 0. -1.
         -1   -1    0    0    0  501 -0.00000000000E+00 -0.00000000000E+00 -0.28121597978E+04  0.28121597978E+04  0.00000000000E+00 0.  1.
         24    2    1    2    0    0  0.10641135457E+04  0.10220628792E+04  0.21453069900E+03  0.14931700010E+04  0.81136082945E+02 0.  0.
        254    2    1    2    0    0 -0.10641135457E+04 -0.10220628792E+04 -0.18280166209E+04  0.25176636726E+04  0.90555807914E+03 0.  0.
         23    2    4    4    0    0 -0.23818698641E+03 -0.79641338901E+03 -0.65624964294E+03  0.10630612126E+04  0.91805344485E+02 0.  0.
         23    2    4    4    0    0 -0.82592655930E+03 -0.22564949021E+03 -0.11717669780E+04  0.14546024599E+04  0.98783055401E+02 0.  0.
          4    1    3    3  502    0  0.94241642594E+03  0.88805376908E+03  0.16416800213E+03  0.13052736685E+04  0.00000000000E+00 0. -1.
         -3    1    3    3    0  502  0.12169711977E+03  0.13400911014E+03  0.50362696871E+02  0.18789633258E+03  0.00000000000E+00 0.  1.
         13    1    5    5    0    0 -0.13411935638E+03 -0.29899205482E+03 -0.24058319271E+03  0.40652739541E+03  0.00000000000E+00 0.  1.
        -13    1    5    5    0    0 -0.10406763003E+03 -0.49742133419E+03 -0.41566645023E+03  0.65653381724E+03  0.00000000000E+00 0. -1.
          4    1    6    6  503    0 -0.69913266192E+03 -0.22524803554E+03 -0.98016027393E+03  0.12248417527E+04  0.00000000000E+00 0. -1.
         -4    1    6    6    0  503 -0.12679389738E+03 -0.40145467481E+00 -0.19160670404E+03  0.22976070728E+03  0.00000000000E+00 0.  1.
<mgrwt>
<rscale>  0 0.36719817E+04</rscale>
<asrwt>0</asrwt>
<pdfrwt beam="1">  1        2 0.18441136E+00 0.36719817E+04</pdfrwt>
<pdfrwt beam="2">  1       -1 0.43263997E+00 0.36719817E+04</pdfrwt>
<totfact> 0.74644956E-02</totfact>
</mgrwt>
</event>
<event>
12    7  0.1544987E-007  0.1451294E+04  0.7818608E-02  0.8917504E-01
         -1   -1    0    0    0  501 -0.00000000000E+00  0.00000000000E+00  0.48512121940E+03  0.48512121940E+03  0.00000000000E+00 0.  1.
          2   -1    0    0  501    0  0.00000000000E+00 -0.00000000000E+00 -0.10854263167E+04  0.10854263167E+04  0.00000000000E+00 0. -1.
         24    2    1    2    0    0 -0.47420413548E+03  0.60710229339E+02 -0.44038193716E+02  0.48665317762E+03  0.79603132655E+02 0.  0.
        254    2    1    2    0    0  0.47420413548E+03 -0.60710229339E+02 -0.55626690355E+03  0.10838943585E+04  0.79802181564E+03 0.  0.
         23    2    4    4    0    0 -0.19070800466E+03 -0.14313465402E+03 -0.15483835547E+03  0.29798865104E+03  0.89248235853E+02 0.  0.
         23    2    4    4    0    0  0.66491214014E+03  0.82424424679E+02 -0.40142854808E+03  0.78590570741E+03  0.87183495207E+02 0.  0.
          2    1    3    3  502    0 -0.11046413571E+03 -0.16158268435E+02  0.44656866329E+01  0.11172894555E+03  0.00000000000E+00 0. -1.
         -1    1    3    3    0  502 -0.36373999977E+03  0.76868497774E+02 -0.48503880348E+02  0.37492423207E+03  0.00000000000E+00 0.  1.
         13    1    5    5    0    0 -0.31222469832E+02  0.97398870931E+01 -0.11635616815E+02  0.34714486913E+02  0.00000000000E+00 0. -1.
        -13    1    5    5    0    0 -0.15948553483E+03 -0.15287454111E+03 -0.14320273865E+03  0.26327416413E+03  0.00000000000E+00 0.  1.
          4    1    6    6  503    0  0.34719081661E+03  0.77613318684E+02 -0.18082462337E+03  0.39907747969E+03  0.00000000000E+00 0. -1.
         -4    1    6    6    0  503  0.31772132352E+03  0.48111059949E+01 -0.22060392471E+03  0.38682822772E+03  0.00000000000E+00 0.  1.
<mgrwt>
<rscale>  0 0.14512937E+04</rscale>
<asrwt>0</asrwt>
<pdfrwt beam="1">  1        2 0.16698866E+00 0.14512937E+04</pdfrwt>
<pdfrwt beam="2">  1       -1 0.74634034E-01 0.14512937E+04</pdfrwt>
<totfact> 0.44446553E+01</totfact>
</mgrwt>
</event>
<event>
12    7  0.1544987E-007  0.2499591E+04  0.7818608E-02  0.8403131E-01
          2   -1    0    0  501    0  0.00000000000E+00  0.00000000000E+00  0.29810052474E+04  0.29810052474E+04  0.00000000000E+00 0. -1.
         -1   -1    0    0    0  501 -0.00000000000E+00 -0.00000000000E+00 -0.52398046830E+03  0.52398046830E+03  0.00000000000E+00 0.  1.
         24    2    1    2    0    0 -0.99048536671E+03  0.44260440666E+03  0.95654177722E+03  0.14484538867E+04  0.78016458975E+02 0.  0.
        254    2    1    2    0    0  0.99048536671E+03 -0.44260440666E+03  0.15004830018E+04  0.20565318290E+04  0.89493798794E+03 0.  0.
         23    2    4    4    0    0  0.65340848750E+03 -0.58269532814E+03  0.56015640498E+03  0.10428224545E+04  0.85011626295E+02 0.  0.
         23    2    4    4    0    0  0.33707687921E+03  0.14009092148E+03  0.94032659687E+03  0.10137093745E+04  0.10072883559E+03 0.  0.
          4    1    3    3  502    0 -0.10753475754E+03  0.47321071197E+02  0.73109656382E+02  0.13837640591E+03  0.00000000000E+00 0. -1.
         -3    1    3    3    0  502 -0.88295060917E+03  0.39528333546E+03  0.88343212084E+03  0.13100774808E+04  0.00000000000E+00 0.  1.
         13    1    5    5    0    0  0.98430378647E+02 -0.71793956085E+02  0.11147239401E+03  0.16513329827E+03  0.00000000000E+00 0. -1.
        -13    1    5    5    0    0  0.55497810885E+03 -0.51090137205E+03  0.44868401097E+03  0.87768915623E+03  0.00000000000E+00 0.  1.
          3    1    6    6  503    0  0.98500441872E+01 -0.11892319512E+02  0.67632453986E+02  0.69372901525E+02  0.00000000000E+00 0. -1.
         -3    1    6    6    0  503  0.32722683503E+03  0.15198324099E+03  0.87269414288E+03  0.94433647294E+03  0.00000000000E+00 0.  1.
<mgrwt>
<rscale>  0 0.24995908E+04</rscale>
<asrwt>0</asrwt>
<pdfrwt beam="1">  1        2 0.45861618E+00 0.24995908E+04</pdfrwt>
<pdfrwt beam="2">  1       -1 0.80612382E-01 0.24995908E+04</pdfrwt>
<totfact> 0.27860518E+00</totfact>
</mgrwt>
</event>
<event>
12    7  0.1544987E-007  0.1566771E+04  0.7818608E-02  0.8841226E-01
         -1   -1    0    0    0  501 -0.00000000000E+00  0.00000000000E+00  0.40296589888E+03  0.40296589888E+03  0.00000000000E+00 0.  1.
          2   -1    0    0  501    0  0.00000000000E+00 -0.00000000000E+00 -0.15229390589E+04  0.15229390589E+04  0.00000000000E+00 0. -1.
         24    2    1    2    0    0 -0.18617115819E+03 -0.23604147154E+03 -0.89088860201E+03  0.94354669639E+03  0.78883399055E+02 0.  0.
        254    2    1    2    0    0  0.18617115819E+03  0.23604147154E+03 -0.22908455799E+03  0.98235826137E+03  0.90673741653E+03 0.  0.
         23    2    4    4    0    0  0.38444533730E+03  0.23639749548E+03 -0.46917674948E+03  0.65760135134E+03  0.92901678125E+02 0.  0.
         23    2    4    4    0    0 -0.19827417911E+03 -0.35602393990E+00  0.24009219148E+03  0.32475691003E+03  0.92249733577E+02 0.  0.
          4    1    3    3  502    0 -0.18711113303E+03 -0.20229396574E+03 -0.81924546107E+03  0.86434747074E+03  0.00000000000E+00 0. -1.
         -3    1    3    3    0  502  0.93997484397E+00 -0.33747505806E+02 -0.71643140934E+02  0.79199225651E+02  0.00000000000E+00 0.  1.
         13    1    5    5    0    0  0.29589942405E+03  0.13627908495E+03 -0.30930501377E+03  0.44921937814E+03  0.00000000000E+00 0. -1.
        -13    1    5    5    0    0  0.88545913244E+02  0.10011841053E+03 -0.15987173570E+03  0.20838197321E+03  0.00000000000E+00 0.  1.
          3    1    6    6  503    0 -0.14533960232E+03 -0.84584605658E+01  0.10517958975E+03  0.17960482081E+03  0.00000000000E+00 0. -1.
         -3    1    6    6    0  503 -0.52934576793E+02  0.81024366259E+01  0.13491260173E+03  0.14515208922E+03  0.00000000000E+00 0.  1.
<mgrwt>
<rscale>  0 0.15667706E+04</rscale>
<asrwt>0</asrwt>
<pdfrwt beam="1">  1        2 0.23429832E+00 0.15667706E+04</pdfrwt>
<pdfrwt beam="2">  1       -1 0.61994753E-01 0.15667706E+04</pdfrwt>
<totfact> 0.35617142E+01</totfact>
</mgrwt>
</event>
<event>
12    7  0.1544987E-007  0.1387132E+04  0.7818608E-02  0.8963186E-01
          2   -1    0    0  501    0  0.00000000000E+00  0.00000000000E+00  0.22068556619E+04  0.22068556619E+04  0.00000000000E+00 0. -1.
         -1   -1    0    0    0  501 -0.00000000000E+00 -0.00000000000E+00 -0.21797252583E+03  0.21797252583E+03  0.00000000000E+00 0.  1.
         24    2    1    2    0    0  0.11259152658E+03 -0.21317115724E+03  0.29044046184E+02  0.25566635337E+03  0.80018332222E+02 0.  0.
        254    2    1    2    0    0 -0.11259152658E+03  0.21317115724E+03  0.19598390899E+04  0.21691618344E+04  0.89787249163E+03 0.  0.
         23    2    4    4    0    0  0.22580738019E+03  0.25750955175E+03  0.16839009924E+04  0.17206815892E+04  0.89008073226E+02 0.  0.
         23    2    4    4    0    0 -0.33839890677E+03 -0.44338394517E+02  0.27593809754E+03  0.44848024518E+03  0.92265829599E+02 0.  0.
          4    1    3    3  502    0  0.75050580376E+01 -0.21773926065E+01 -0.14019166648E+02  0.16050045739E+02  0.00000000000E+00 0. -1.
         -3    1    3    3    0  502  0.10508646855E+03 -0.21099376463E+03  0.43063212832E+02  0.23961630763E+03  0.00000000000E+00 0.  1.
         13    1    5    5    0    0  0.19788636947E+03  0.23022299076E+03  0.13084473472E+04  0.13432036708E+04  0.00000000000E+00 0. -1.
        -13    1    5    5    0    0  0.27921010720E+02  0.27286560997E+02  0.37545364513E+03  0.37747791842E+03  0.00000000000E+00 0.  1.
          2    1    6    6  503    0 -0.16880291730E+03 -0.21555840279E+02  0.19612932638E+03  0.25966476813E+03  0.00000000000E+00 0. -1.
         -2    1    6    6    0  503 -0.16959598947E+03 -0.22782554238E+02  0.79808771163E+02  0.18881547706E+03  0.00000000000E+00 0.  1.
<mgrwt>
<rscale>  0 0.13871322E+04</rscale>
<asrwt>0</asrwt>
<pdfrwt beam="1">  1        2 0.33951624E+00 0.13871322E+04</pdfrwt>
<pdfrwt beam="2">  1       -1 0.33534236E-01 0.13871322E+04</pdfrwt>
<totfact> 0.47655448E+01</totfact>
</mgrwt>
</event>
<event>
12    7  0.1544987E-007  0.1908214E+04  0.7818608E-02  0.8650779E-01
          2   -1    0    0  501    0  0.00000000000E+00  0.00000000000E+00  0.11520844033E+04  0.11520844033E+04  0.00000000000E+00 0. -1.
         -1   -1    0    0    0  501 -0.00000000000E+00 -0.00000000000E+00 -0.79015055267E+03  0.79015055267E+03  0.00000000000E+00 0.  1.
         24    2    1    2    0    0  0.18431471132E+01 -0.19585010906E+03 -0.58703310862E+03  0.62382298239E+03  0.78654817545E+02 0.  0.
        254    2    1    2    0    0 -0.18431471132E+01  0.19585010906E+03  0.94896695924E+03  0.13184119736E+04  0.89404204594E+03 0.  0.
         23    2    4    4    0    0 -0.18507297042E+03  0.55337850630E+02  0.10341719041E+04  0.10562486352E+04  0.93996649995E+02 0.  0.
         23    2    4    4    0    0  0.18322982330E+03  0.14051225843E+03 -0.85204944819E+02  0.26216333833E+03  0.90293246835E+02 0.  0.
          2    1    3    3  502    0  0.26861979515E+02 -0.99917329714E+02 -0.21190559849E+03  0.23581565129E+03  0.00000000000E+00 0. -1.
         -1    1    3    3    0  502 -0.25018832402E+02 -0.95932779349E+02 -0.37512751013E+03  0.38800733110E+03  0.00000000000E+00 0.  1.
         13    1    5    5    0    0 -0.19198806277E+03  0.62864376691E+02  0.10099851702E+04  0.10299909661E+04  0.00000000000E+00 0. -1.
        -13    1    5    5    0    0  0.69150923556E+01 -0.75265260615E+01  0.24186733823E+02  0.26257669162E+02  0.00000000000E+00 0.  1.
          1    1    6    6  503    0  0.66314534868E+02  0.75673215331E+01 -0.45343577290E+02  0.80690283749E+02  0.00000000000E+00 0. -1.
         -1    1    6    6    0  503  0.11691528844E+03  0.13294493690E+03 -0.39861367529E+02  0.18147305458E+03  0.00000000000E+00 0.  1.
<mgrwt>
<rscale>  0 0.19082140E+04</rscale>
<asrwt>0</asrwt>
<pdfrwt beam="1">  1        2 0.17724375E+00 0.19082140E+04</pdfrwt>
<pdfrwt beam="2">  1       -1 0.12156162E+00 0.19082140E+04</pdfrwt>
<totfact> 0.12958322E+01</totfact>
</mgrwt>
</event>
<event>
12    7  0.1544987E-007  0.1652280E+04  0.7818608E-02  0.8789059E-01
          2   -1    0    0  501    0  0.00000000000E+00  0.00000000000E+00  0.25648123095E+04  0.25648123095E+04  0.00000000000E+00 0. -1.
         -1   -1    0    0    0  501 -0.00000000000E+00 -0.00000000000E+00 -0.26610406232E+03  0.26610406232E+03  0.00000000000E+00 0.  1.
         24    2    1    2    0    0  0.72860761331E+02  0.51617636375E+02 -0.16673899790E+03  0.20574004509E+03  0.80956789745E+02 0.  0.
        254    2    1    2    0    0 -0.72860761331E+02 -0.51617636375E+02  0.24654472451E+04  0.26251763268E+04  0.89730014893E+03 0.  0.
         23    2    4    4    0    0 -0.15909755417E+03 -0.39138083155E+03  0.19383368634E+04  0.19858683281E+04  0.89622728375E+02 0.  0.
         23    2    4    4    0    0  0.86236792838E+02  0.33976319518E+03  0.52711038175E+03  0.63930799872E+03  0.89406652102E+02 0.  0.
          2    1    3    3  502    0  0.12859562665E+02  0.20323792537E+02  0.18050052378E+01  0.24118103966E+02  0.00000000000E+00 0. -1.
         -1    1    3    3    0  502  0.60001198666E+02  0.31293843838E+02 -0.16854400313E+03  0.18162194112E+03  0.00000000000E+00 0.  1.
         13    1    5    5    0    0 -0.16310745908E+03 -0.36998459869E+03  0.18912855848E+04  0.19340252868E+04  0.00000000000E+00 0.  1.
        -13    1    5    5    0    0  0.40099049107E+01 -0.21396232858E+02  0.47051278537E+02  0.51843041287E+02  0.00000000000E+00 0. -1.
          1    1    6    6  503    0 -0.67548192974E+01  0.69772536527E+02  0.15620393197E+03  0.17121186524E+03  0.00000000000E+00 0. -1.
         -1    1    6    6    0  503  0.92991612136E+02  0.26999065865E+03  0.37090644978E+03  0.46809613347E+03  0.00000000000E+00 0.  1.
<mgrwt>
<rscale>  0 0.16522796E+04</rscale>
<asrwt>0</asrwt>
<pdfrwt beam="1">  1        2 0.39458649E+00 0.16522796E+04</pdfrwt>
<pdfrwt beam="2">  1       -1 0.40939088E-01 0.16522796E+04</pdfrwt>
<totfact> 0.20303218E+01</totfact>
</mgrwt>
</event>
<event>
12    7  0.1544987E-007  0.1285195E+04  0.7818608E-02  0.9041389E-01
          2   -1    0    0  501    0  0.00000000000E+00  0.00000000000E+00  0.17567518742E+04  0.17567518742E+04  0.00000000000E+00 0. -1.
         -1   -1    0    0    0  501 -0.00000000000E+00 -0.00000000000E+00 -0.23505407430E+03  0.23505407430E+03  0.00000000000E+00 0.  1.
         24    2    1    2    0    0  0.40276352189E+02 -0.29469795575E+03  0.53378132832E+03  0.61761547395E+03  0.89762450578E+02 0.  0.
        254    2    1    2    0    0 -0.40276352189E+02  0.29469795575E+03  0.98791647160E+03  0.13741904746E+04  0.90771770714E+03 0.  0.
         23    2    4    4    0    0 -0.35380185177E+03 -0.13360392379E+03  0.25641700126E+03  0.46586546692E+03  0.90858108959E+02 0.  0.
         23    2    4    4    0    0  0.31352549958E+03  0.42830187954E+03  0.73149947033E+03  0.90832500765E+03  0.90675826534E+02 0.  0.
          2    1    3    3  502    0  0.20730201969E+02 -0.19326342144E+03  0.42640338654E+03  0.46861534267E+03  0.00000000000E+00 0. -1.
         -1    1    3    3    0  502  0.19546150219E+02 -0.10143453431E+03  0.10737794178E+03  0.14900013127E+03  0.00000000000E+00 0.  1.
         13    1    5    5    0    0 -0.82749340070E+02 -0.73634909669E+02  0.84715177231E+02  0.13944968432E+03  0.00000000000E+00 0. -1.
        -13    1    5    5    0    0 -0.27105251170E+03 -0.59969014119E+02  0.17170182403E+03  0.32641578259E+03  0.00000000000E+00 0.  1.
          2    1    6    6  503    0  0.21440365247E+03  0.35252853140E+03  0.58545899692E+03  0.71624543888E+03  0.00000000000E+00 0.  1.
         -2    1    6    6    0  503  0.99121847113E+02  0.75773348142E+02  0.14604047341E+03  0.19207956877E+03  0.00000000000E+00 0. -1.
<mgrwt>
<rscale>  0 0.12851952E+04</rscale>
<asrwt>0</asrwt>
<pdfrwt beam="1">  1        2 0.27026951E+00 0.12851952E+04</pdfrwt>
<pdfrwt beam="2">  1       -1 0.36162166E-01 0.12851952E+04</pdfrwt>
<totfact> 0.74586141E+01</totfact>
</mgrwt>
</event>
<event>
12    7  0.1544987E-007  0.1610717E+04  0.7818608E-02  0.8813991E-01
         -3   -1    0    0    0  501 -0.00000000000E+00  0.00000000000E+00  0.20061096953E+03  0.20061096953E+03  0.00000000000E+00 0.  1.
          2   -1    0    0  501    0  0.00000000000E+00 -0.00000000000E+00 -0.32331337875E+04  0.32331337875E+04  0.00000000000E+00 0. -1.
         24    2    1    2    0    0 -0.23799424480E+03 -0.40483392160E+03 -0.44960137112E+03  0.65521823986E+03  0.81472598405E+02 0.  0.
        254    2    1    2    0    0  0.23799424480E+03  0.40483392160E+03 -0.25829214469E+04  0.27785265172E+04  0.91005199928E+03 0.  0.
         23    2    4    4    0    0 -0.54641250174E+02  0.51856967920E+03 -0.22529144460E+04  0.23142183335E+04  0.89904480486E+02 0.  0.
         23    2    4    4    0    0  0.29263549497E+03 -0.11373575759E+03 -0.33000700085E+03  0.46430818369E+03  0.90033956714E+02 0.  0.
          4    1    3    3  502    0 -0.32120907934E+01 -0.38483464295E+01  0.35747921754E+01  0.61568203323E+01  0.00000000000E+00 0. -1.
         -3    1    3    3    0  502 -0.23478215400E+03 -0.40098557517E+03 -0.45317616330E+03  0.64906141953E+03  0.00000000000E+00 0.  1.
         13    1    5    5    0    0 -0.35623661080E+02  0.47779207998E+03 -0.19509531736E+04  0.20089232445E+04  0.00000000000E+00 0.  1.
        -13    1    5    5    0    0 -0.19017589094E+02  0.40777599218E+02 -0.30196127248E+03  0.30529508901E+03  0.00000000000E+00 0. -1.
          2    1    6    6  503    0  0.13393522262E+03 -0.32928574115E+02 -0.20359778478E+03  0.24591663795E+03  0.00000000000E+00 0. -1.
         -2    1    6    6    0  503  0.15870027235E+03 -0.80807183479E+02 -0.12640921607E+03  0.21839154575E+03  0.00000000000E+00 0.  1.
<mgrwt>
<rscale>  0 0.16107167E+04</rscale>
<asrwt>0</asrwt>
<pdfrwt beam="1">  1        2 0.49740521E+00 0.16107167E+04</pdfrwt>
<pdfrwt beam="2">  1       -3 0.30863225E-01 0.16107167E+04</pdfrwt>
<totfact> 0.79617329E+00</totfact>
</mgrwt>
</event>
<event>
12    7  0.1544987E-007  0.1636049E+04  0.7818608E-02  0.8798703E-01
          4   -1    0    0  501    0  0.00000000000E+00  0.00000000000E+00  0.68546804929E+03  0.68546804929E+03  0.00000000000E+00 0. -1.
         -3   -1    0    0    0  501 -0.00000000000E+00 -0.00000000000E+00 -0.97621428135E+03  0.97621428135E+03  0.00000000000E+00 0.  1.
         24    2    1    2    0    0 -0.26428097420E+03  0.45162260037E+03 -0.31796514577E+03  0.61642914943E+03  0.71243637314E+02 0.  0.
        254    2    1    2    0    0  0.26428097420E+03 -0.45162260037E+03  0.27218913719E+02  0.10452531812E+04  0.90443680657E+03 0.  0.
         23    2    4    4    0    0  0.94112526509E+02 -0.15147449645E+03  0.45040100265E+03  0.49296257719E+03  0.91374770030E+02 0.  0.
         23    2    4    4    0    0  0.17016844769E+03 -0.30014810392E+03 -0.42318208893E+03  0.55229060402E+03  0.83040026619E+02 0.  0.
          4    1    3    3  502    0 -0.58804099211E+02  0.73649273453E+02 -0.86384527853E+02  0.12784531363E+03  0.00000000000E+00 0. -1.
         -3    1    3    3    0  502 -0.20547687499E+03  0.37797332692E+03 -0.23158061792E+03  0.48858383581E+03  0.00000000000E+00 0.  1.
         13    1    5    5    0    0  0.78510997808E+02 -0.50754902298E+02  0.27045678072E+03  0.28615888440E+03  0.00000000000E+00 0. -1.
        -13    1    5    5    0    0  0.15601528701E+02 -0.10071959416E+03  0.17994422193E+03  0.20680369279E+03  0.00000000000E+00 0.  1.
          2    1    6    6  503    0  0.50974732144E+02 -0.38052012962E+02 -0.49795987061E+02  0.80783781386E+02  0.00000000000E+00 0.  1.
         -2    1    6    6    0  503  0.11919371555E+03 -0.26209609096E+03 -0.37338610187E+03  0.47150682263E+03  0.00000000000E+00 0. -1.
<mgrwt>
<rscale>  0 0.16360485E+04</rscale>
<asrwt>0</asrwt>
<pdfrwt beam="1">  1        4 0.10545662E+00 0.16360485E+04</pdfrwt>
<pdfrwt beam="2">  1       -3 0.15018681E+00 0.16360485E+04</pdfrwt>
<totfact> 0.51111303E-01</totfact>
</mgrwt>
</event>
<event>
12    7  0.1544987E-007  0.1634540E+04  0.7818608E-02  0.8799605E-01
         -1   -1    0    0    0  501 -0.00000000000E+00  0.00000000000E+00  0.28597111393E+03  0.28597111393E+03  0.00000000000E+00 0.  1.
          2   -1    0    0  501    0  0.00000000000E+00 -0.00000000000E+00 -0.23356558134E+04  0.23356558134E+04  0.00000000000E+00 0. -1.
         24    2    1    2    0    0  0.69749560976E+02 -0.16642466309E+03 -0.15704780927E+04  0.15824695386E+04  0.72430872239E+02 0.  0.
        254    2    1    2    0    0 -0.69749560976E+02  0.16642466309E+03 -0.47920660673E+03  0.10391573887E+04  0.90423831858E+03 0.  0.
         23    2    4    4    0    0 -0.31896312243E+03  0.10603690545E+03 -0.63563068618E+03  0.72470696772E+03  0.90512546405E+02 0.  0.
         23    2    4    4    0    0  0.24921356145E+03  0.60387757642E+02  0.15642407945E+03  0.31445042097E+03  0.93040282313E+02 0.  0.
          4    1    3    3  502    0  0.10063787762E+02 -0.22958965741E+02 -0.51554577127E+03  0.51615485681E+03  0.00000000000E+00 0. -1.
         -3    1    3    3    0  502  0.59685773214E+02 -0.14346569735E+03 -0.10549323214E+04  0.10663146818E+04  0.00000000000E+00 0.  1.
         13    1    5    5    0    0 -0.74033303546E+02 -0.12014451750E+02 -0.11384472479E+03  0.13633010837E+03  0.00000000000E+00 0.  1.
        -13    1    5    5    0    0 -0.24492981888E+03  0.11805135720E+03 -0.52178596139E+03  0.58837685935E+03  0.00000000000E+00 0. -1.
          1    1    6    6  503    0  0.13390740807E+03  0.10299511917E+01  0.11983136866E+03  0.17969922551E+03  0.00000000000E+00 0. -1.
         -1    1    6    6    0  503  0.11530615338E+03  0.59357806450E+02  0.36592710791E+02  0.13475119546E+03  0.00000000000E+00 0.  1.
<mgrwt>
<rscale>  0 0.16345398E+04</rscale>
<asrwt>0</asrwt>
<pdfrwt beam="1">  1        2 0.35933167E+00 0.16345398E+04</pdfrwt>
<pdfrwt beam="2">  1       -1 0.43995555E-01 0.16345398E+04</pdfrwt>
<totfact> 0.24101393E+01</totfact>
</mgrwt>
</event>
<event>
12    7  0.1544987E-007  0.1157805E+04  0.7818608E-02  0.9150613E-01
         -1   -1    0    0    0  501 -0.00000000000E+00  0.00000000000E+00  0.29004832098E+03  0.29004832098E+03  0.00000000000E+00 0.  1.
          2   -1    0    0  501    0  0.00000000000E+00 -0.00000000000E+00 -0.11554211628E+04  0.11554211628E+04  0.00000000000E+00 0. -1.
         24    2    1    2    0    0 -0.17860580212E+03 -0.91428147310E+02 -0.28934990080E+03  0.36128031255E+03  0.80876204622E+02 0.  0.
        254    2    1    2    0    0  0.17860580212E+03  0.91428147310E+02 -0.57602294101E+03  0.10841891712E+04  0.89632839503E+03 0.  0.
         23    2    4    4    0    0  0.45545496653E+03  0.59377875080E+02 -0.36177800899E+02  0.46993213307E+03  0.92533333608E+02 0.  0.
         23    2    4    4    0    0 -0.27684916441E+03  0.32050272229E+02 -0.53984514011E+03  0.61425703814E+03  0.90588375768E+02 0.  0.
          4    1    3    3  502    0 -0.16342387932E+03 -0.81714146042E+02 -0.29054019744E+03  0.34321738349E+03  0.00000000000E+00 0. -1.
         -3    1    3    3    0  502 -0.15181922795E+02 -0.97140012676E+01  0.11902966427E+01  0.18062929067E+02  0.00000000000E+00 0.  1.
         13    1    5    5    0    0  0.35536763795E+02  0.31836629884E+02 -0.30211661533E+01  0.47807531083E+02  0.00000000000E+00 0. -1.
        -13    1    5    5    0    0  0.41991820274E+03  0.27541245197E+02 -0.33156634745E+02  0.42212460199E+03  0.00000000000E+00 0.  1.
          2    1    6    6  503    0 -0.70472221016E+02  0.11159830134E+02 -0.66840637648E+02  0.97767819781E+02  0.00000000000E+00 0. -1.
         -2    1    6    6    0  503 -0.20637694339E+03  0.20890442096E+02 -0.47300450246E+03  0.51648921836E+03  0.00000000000E+00 0.  1.
<mgrwt>
<rscale>  0 0.11578048E+04</rscale>
<asrwt>0</asrwt>
<pdfrwt beam="1">  1        2 0.17775710E+00 0.11578048E+04</pdfrwt>
<pdfrwt beam="2">  1       -1 0.44622819E-01 0.11578048E+04</pdfrwt>
<totfact> 0.11301209E+02</totfact>
</mgrwt>
</event>
<event>
12    7  0.1544987E-007  0.2858084E+04  0.7818608E-02  0.8285459E-01
         -1   -1    0    0    0  501 -0.00000000000E+00  0.00000000000E+00  0.68594183973E+03  0.68594183973E+03  0.00000000000E+00 0.  1.
          2   -1    0    0  501    0  0.00000000000E+00 -0.00000000000E+00 -0.29771631926E+04  0.29771631926E+04  0.00000000000E+00 0. -1.
         24    2    1    2    0    0  0.63914650420E+03  0.32977676075E+03 -0.23984410195E+04  0.25052599451E+04  0.80914168414E+02 0.  0.
        254    2    1    2    0    0 -0.63914650420E+03 -0.32977676075E+03  0.10721966662E+03  0.11578450872E+04  0.90102620571E+03 0.  0.
         23    2    4    4    0    0 -0.39617685777E+03 -0.33530585107E+03  0.47345291067E+03  0.70881970124E+03  0.94242208438E+02 0.  0.
         23    2    4    4    0    0 -0.24296964643E+03  0.55290903216E+01 -0.36623324405E+03  0.44902538600E+03  0.91826947562E+02 0.  0.
          4    1    3    3  502    0  0.56056012308E+03  0.30254782551E+03 -0.20322313983E+04  0.21297246992E+04  0.00000000000E+00 0. -1.
         -3    1    3    3    0  502  0.78586381119E+02  0.27228935241E+02 -0.36620962118E+03  0.37553524582E+03  0.00000000000E+00 0.  1.
         13    1    5    5    0    0 -0.92740343393E+02 -0.31259050195E+02  0.92945173312E+02  0.13496927337E+03  0.00000000000E+00 0. -1.
        -13    1    5    5    0    0 -0.30343651438E+03 -0.30404680088E+03  0.38050773736E+03  0.57385042787E+03  0.00000000000E+00 0.  1.
          2    1    6    6  503    0 -0.32939912543E+02 -0.13429207704E+02 -0.11832224856E+03  0.12355377762E+03  0.00000000000E+00 0. -1.
         -2    1    6    6    0  503 -0.21002973389E+03  0.18958298026E+02 -0.24791099548E+03  0.32547160838E+03  0.00000000000E+00 0.  1.
<mgrwt>
<rscale>  0 0.28580838E+04</rscale>
<asrwt>0</asrwt>
<pdfrwt beam="1">  1        2 0.45802510E+00 0.28580838E+04</pdfrwt>
<pdfrwt beam="2">  1       -1 0.10552952E+00 0.28580838E+04</pdfrwt>
<totfact> 0.14894359E+00</totfact>
</mgrwt>
</event>
<event>
12    7  0.1544987E-007  0.2308320E+04  0.7818608E-02  0.8474648E-01
         -1   -1    0    0    0  501 -0.00000000000E+00  0.00000000000E+00  0.95470222261E+03  0.95470222261E+03  0.00000000000E+00 0.  1.
          2   -1    0    0  501    0  0.00000000000E+00 -0.00000000000E+00 -0.13952891753E+04  0.13952891753E+04  0.00000000000E+00 0. -1.
         24    2    1    2    0    0  0.75991713997E+03 -0.13623622072E+03 -0.78568181176E+03  0.11044303372E+04  0.80225264207E+02 0.  0.
        254    2    1    2    0    0 -0.75991713997E+03  0.13623622072E+03  0.34509485907E+03  0.12455610607E+04  0.91449304353E+03 0.  0.
         23    2    4    4    0    0 -0.21410611381E+03 -0.12623909072E+02  0.58104244543E+03  0.62581576420E+03  0.89634012971E+02 0.  0.
         23    2    4    4    0    0 -0.54581102616E+03  0.14886012979E+03 -0.23594758636E+03  0.61974529648E+03  0.91345248808E+02 0.  0.
          4    1    3    3  502    0  0.67155100046E+03 -0.13953629249E+03 -0.71893860370E+03  0.99364170556E+03  0.00000000000E+00 0. -1.
         -3    1    3    3    0  502  0.88366139515E+02  0.33000717730E+01 -0.66743208058E+02  0.11078863167E+03  0.00000000000E+00 0.  1.
         13    1    5    5    0    0 -0.85560512883E+01  0.14810562397E+02  0.14196592001E+02  0.22228405175E+02  0.00000000000E+00 0.  1.
        -13    1    5    5    0    0 -0.20555006253E+03 -0.27434471469E+02  0.56684585343E+03  0.60358735903E+03  0.00000000000E+00 0. -1.
          2    1    6    6  503    0 -0.22785708957E+03  0.10202832650E+03 -0.77394486720E+02  0.26137815374E+03  0.00000000000E+00 0. -1.
         -2    1    6    6    0  503 -0.31795393659E+03  0.46831803291E+02 -0.15855309964E+03  0.35836714274E+03  0.00000000000E+00 0.  1.
<mgrwt>
<rscale>  0 0.23083203E+04</rscale>
<asrwt>0</asrwt>
<pdfrwt beam="1">  1        2 0.21465987E+00 0.23083203E+04</pdfrwt>
<pdfrwt beam="2">  1       -1 0.14687726E+00 0.23083203E+04</pdfrwt>
<totfact> 0.55497040E+00</totfact>
</mgrwt>
</event>
<event>
12    7  0.1544987E-007  0.1503860E+04  0.7818608E-02  0.8881890E-01
          2   -1    0    0  501    0  0.00000000000E+00  0.00000000000E+00  0.15043591542E+04  0.15043591542E+04  0.00000000000E+00 0. -1.
         -1   -1    0    0    0  501 -0.00000000000E+00 -0.00000000000E+00 -0.37584028452E+03  0.37584028452E+03  0.00000000000E+00 0.  1.
         24    2    1    2    0    0 -0.14815806445E+03  0.28657201271E+03  0.67851928197E+03  0.75303738478E+03  0.51015256043E+02 0.  0.
        254    2    1    2    0    0  0.14815806445E+03 -0.28657201271E+03  0.44999958771E+03  0.11271620539E+04  0.98179444710E+03 0.  0.
         23    2    4    4    0    0  0.40152232385E+03 -0.49695274712E+03  0.12820667115E+03  0.65792488922E+03  0.90807488188E+02 0.  0.
         23    2    4    4    0    0 -0.25336425941E+03  0.21038073441E+03  0.32179291656E+03  0.46923716471E+03  0.90439671843E+02 0.  0.
          4    1    3    3  502    0 -0.10861700439E+03  0.23293243282E+03  0.49408756662E+03  0.55693598859E+03  0.00000000000E+00 0. -1.
         -3    1    3    3    0  502 -0.39541060061E+02  0.53639579889E+02  0.18443171535E+03  0.19610139619E+03  0.00000000000E+00 0.  1.
         13    1    5    5    0    0  0.19617142749E+03 -0.31289801126E+03  0.64485275772E+02  0.37489564575E+03  0.00000000000E+00 0. -1.
        -13    1    5    5    0    0  0.20535089637E+03 -0.18405473586E+03  0.63721395374E+02  0.28302924347E+03  0.00000000000E+00 0.  1.
          1    1    6    6  503    0 -0.23540783765E+02 -0.40751628404E+01  0.42447053140E+02  0.48708600603E+02  0.00000000000E+00 0. -1.
         -1    1    6    6    0  503 -0.22982347564E+03  0.21445589725E+03  0.27934586342E+03  0.42052856411E+03  0.00000000000E+00 0.  1.
<mgrwt>
<rscale>  0 0.15038601E+04</rscale>
<asrwt>0</asrwt>
<pdfrwt beam="1">  1        2 0.23143987E+00 0.15038601E+04</pdfrwt>
<pdfrwt beam="2">  1       -1 0.57821583E-01 0.15038601E+04</pdfrwt>
<totfact> 0.42089969E+01</totfact>
</mgrwt>
</event>
<event>
12    7  0.1544987E-007  0.1700362E+04  0.7818608E-02  0.8761158E-01
          2   -1    0    0  501    0  0.00000000000E+00  0.00000000000E+00  0.11799551426E+04  0.11799551426E+04  0.00000000000E+00 0. -1.
         -1   -1    0    0    0  501 -0.00000000000E+00 -0.00000000000E+00 -0.61257224515E+03  0.61257224515E+03  0.00000000000E+00 0.  1.
         24    2    1    2    0    0 -0.99149872918E+02  0.18090477875E+03 -0.40002886128E+03  0.45697951860E+03  0.79056652413E+02 0.  0.
        254    2    1    2    0    0  0.99149872918E+02 -0.18090477875E+03  0.96741175871E+03  0.13355478691E+04  0.89735464761E+03 0.  0.
         23    2    4    4    0    0 -0.10830174499E+03 -0.50427321288E+03  0.50664510517E+03  0.72870324788E+03  0.91095662308E+02 0.  0.
         23    2    4    4    0    0  0.20745161791E+03  0.32336843413E+03  0.46076665354E+03  0.60684462125E+03  0.91384721687E+02 0.  0.
          2    1    3    3  502    0 -0.13576559396E+02  0.10661404311E+03 -0.18699967043E+03  0.21568438491E+03  0.00000000000E+00 0. -1.
         -1    1    3    3    0  502 -0.85573313523E+02  0.74290735640E+02 -0.21302919085E+03  0.24129513369E+03  0.00000000000E+00 0.  1.
         13    1    5    5    0    0  0.12158266842E+02 -0.48213712608E+02  0.70478212221E+02  0.86252906815E+02  0.00000000000E+00 0.  1.
        -13    1    5    5    0    0 -0.12046001183E+03 -0.45605950027E+03  0.43616689294E+03  0.64245034107E+03  0.00000000000E+00 0. -1.
          3    1    6    6  503    0  0.14286476104E+03  0.27535945692E+03  0.39896072782E+03  0.50537395343E+03  0.00000000000E+00 0. -1.
         -3    1    6    6    0  503  0.64586856874E+02  0.48008977207E+02  0.61805925721E+02  0.10147066782E+03  0.00000000000E+00 0.  1.
<mgrwt>
<rscale>  0 0.17003620E+04</rscale>
<asrwt>0</asrwt>
<pdfrwt beam="1">  1        2 0.18153156E+00 0.17003620E+04</pdfrwt>
<pdfrwt beam="2">  1       -1 0.94241884E-01 0.17003620E+04</pdfrwt>
<totfact> 0.23038172E+01</totfact>
</mgrwt>
</event>
<event>
12    7  0.1544987E-007  0.2732802E+04  0.7818608E-02  0.8324440E-01
         -1   -1    0    0    0  501 -0.00000000000E+00  0.00000000000E+00  0.74879984744E+03  0.74879984744E+03  0.00000000000E+00 0.  1.
          2   -1    0    0  501    0  0.00000000000E+00 -0.00000000000E+00 -0.24933919779E+04  0.24933919779E+04  0.00000000000E+00 0. -1.
         24    2    1    2    0    0 -0.11711984131E+04 -0.85033357896E+02 -0.39998547338E+03  0.12430814294E+04  0.79540345163E+02 0.  0.
        254    2    1    2    0    0  0.11711984131E+04  0.85033357896E+02 -0.13446066571E+04  0.19991103959E+04  0.89974380680E+03 0.  0.
         23    2    4    4    0    0  0.15680116191E+03 -0.12038666608E+03  0.83611120810E+02  0.23313335043E+03  0.90998823150E+02 0.  0.
         23    2    4    4    0    0  0.10143972512E+04  0.20542002398E+03 -0.14282177779E+04  0.17659770455E+04  0.87577020536E+02 0.  0.
          4    1    3    3  502    0 -0.68170808954E+03 -0.56291392643E+02 -0.19202473359E+03  0.71047036429E+03  0.00000000000E+00 0. -1.
         -3    1    3    3    0  502 -0.48949032357E+03 -0.28741965253E+02 -0.20796073979E+03  0.53261106516E+03  0.00000000000E+00 0.  1.
         13    1    5    5    0    0 -0.62703126481E+01 -0.11587686128E+02  0.25441239343E+02  0.28650444146E+02  0.00000000000E+00 0.  1.
        -13    1    5    5    0    0  0.16307147456E+03 -0.10879897995E+03  0.58169881468E+02  0.20448290629E+03  0.00000000000E+00 0. -1.
          3    1    6    6  503    0  0.45619315650E+03  0.13361953224E+03 -0.68196556241E+03  0.83129020429E+03  0.00000000000E+00 0. -1.
         -3    1    6    6    0  503  0.55820409469E+03  0.71800491733E+02 -0.74625221547E+03  0.93468684116E+03  0.00000000000E+00 0.  1.
<mgrwt>
<rscale>  0 0.27328019E+04</rscale>
<asrwt>0</asrwt>
<pdfrwt beam="1">  1        2 0.38359877E+00 0.27328019E+04</pdfrwt>
<pdfrwt beam="2">  1       -1 0.11519998E+00 0.27328019E+04</pdfrwt>
<totfact> 0.23874729E+00</totfact>
</mgrwt>
</event>
<event>
12    7  0.1544987E-007  0.3029250E+04  0.7818608E-02  0.8235427E-01
          2   -1    0    0  501    0  0.00000000000E+00  0.00000000000E+00  0.26281282096E+04  0.26281282096E+04  0.00000000000E+00 0. -1.
         -1   -1    0    0    0  501 -0.00000000000E+00 -0.00000000000E+00 -0.87289851013E+03  0.87289851013E+03  0.00000000000E+00 0.  1.
         24    2    1    2    0    0 -0.10558416463E+04 -0.32698571723E+03 -0.15485601236E+03  0.11182473689E+04  0.69105371029E+02 0.  0.
        254    2    1    2    0    0  0.10558416463E+04  0.32698571723E+03  0.19100857118E+04  0.23827793508E+04  0.89860378743E+03 0.  0.
         23    2    4    4    0    0  0.29510673124E+03 -0.23959598919E+03  0.23650191753E+03  0.45685326793E+03  0.91035875128E+02 0.  0.
         23    2    4    4    0    0  0.76073491501E+03  0.56658170643E+03  0.16735837943E+04  0.19259260828E+04  0.92607338512E+02 0.  0.
          4    1    3    3  502    0 -0.55558041694E+03 -0.19864654736E+03 -0.10610794196E+03  0.59949057191E+03  0.00000000000E+00 0. -1.
         -3    1    3    3    0  502 -0.50026122932E+03 -0.12833916987E+03 -0.48748070396E+02  0.51875679702E+03  0.00000000000E+00 0.  1.
         13    1    5    5    0    0  0.22680204166E+03 -0.16921870572E+03  0.21762289471E+03  0.35697879596E+03  0.00000000000E+00 0.  1.
        -13    1    5    5    0    0  0.68304689583E+02 -0.70377283473E+02  0.18879022827E+02  0.99874471969E+02  0.00000000000E+00 0. -1.
          4    1    6    6  503    0  0.46853498289E+03  0.29630247708E+03  0.93880441939E+03  0.10902632370E+04  0.00000000000E+00 0. -1.
         -4    1    6    6    0  503  0.29219993212E+03  0.27027922934E+03  0.73477937488E+03  0.83566284582E+03  0.00000000000E+00 0.  1.
<mgrwt>
<rscale>  0 0.30292502E+04</rscale>
<asrwt>0</asrwt>
<pdfrwt beam="1">  1        2 0.40432741E+00 0.30292502E+04</pdfrwt>
<pdfrwt beam="2">  1       -1 0.13429208E+00 0.30292502E+04</pdfrwt>
<totfact> 0.13268996E+00</totfact>
</mgrwt>
</event>
<event>
12    7  0.1544987E-007  0.1120145E+04  0.7818608E-02  0.9185776E-01
         -1   -1    0    0    0  501 -0.00000000000E+00  0.00000000000E+00  0.17326340306E+03  0.17326340306E+03  0.00000000000E+00 0.  1.
          2   -1    0    0  501    0  0.00000000000E+00 -0.00000000000E+00 -0.18104303420E+04  0.18104303420E+04  0.00000000000E+00 0. -1.
         24    2    1    2    0    0  0.83831093714E+02  0.15583322699E+03 -0.36788068410E+03  0.41617934680E+03  0.80977799824E+02 0.  0.
        254    2    1    2    0    0 -0.83831093714E+02 -0.15583322699E+03 -0.12692862548E+04  0.15675143983E+04  0.90260852263E+03 0.  0.
         23    2    4    4    0    0  0.23304365640E+03  0.26731524730E+03 -0.66746180351E+03  0.76136021283E+03  0.91636932006E+02 0.  0.
         23    2    4    4    0    0 -0.31687475012E+03 -0.42314847429E+03 -0.60182445132E+03  0.80615418542E+03  0.90706460182E+02 0.  0.
          2    1    3    3  502    0  0.75150696203E+02  0.67764855944E+02 -0.24200323300E+03  0.26230758210E+03  0.00000000000E+00 0. -1.
         -1    1    3    3    0  502  0.86803975118E+01  0.88068371045E+02 -0.12587745109E+03  0.15387176470E+03  0.00000000000E+00 0.  1.
         13    1    5    5    0    0  0.10727116556E+03  0.18931861711E+03 -0.37405111703E+03  0.43273881256E+03  0.00000000000E+00 0. -1.
        -13    1    5    5    0    0  0.12577249084E+03  0.77996630183E+02 -0.29341068648E+03  0.32862140026E+03  0.00000000000E+00 0.  1.
          3    1    6    6  503    0 -0.12636413885E+03 -0.22362158975E+03 -0.33718083688E+03  0.42386958814E+03  0.00000000000E+00 0. -1.
         -3    1    6    6    0  503 -0.19051061127E+03 -0.19952688454E+03 -0.26464361443E+03  0.38228459728E+03  0.00000000000E+00 0.  1.
<mgrwt>
<rscale>  0 0.11201452E+04</rscale>
<asrwt>0</asrwt>
<pdfrwt beam="1">  1        2 0.27852777E+00 0.11201452E+04</pdfrwt>
<pdfrwt beam="2">  1       -1 0.26655906E-01 0.11201452E+04</pdfrwt>
<totfact> 0.12069563E+02</totfact>
</mgrwt>
</event>
<event>
12    7  0.1544987E-007  0.1057626E+04  0.7818608E-02  0.9247506E-01
         -1   -1    0    0    0  501 -0.00000000000E+00  0.00000000000E+00  0.14053784312E+03  0.14053784312E+03  0.00000000000E+00 0.  1.
          2   -1    0    0  501    0  0.00000000000E+00 -0.00000000000E+00 -0.19898051944E+04  0.19898051944E+04  0.00000000000E+00 0. -1.
         24    2    1    2    0    0 -0.12697273963E+03  0.35404110921E+02 -0.40337994831E+03  0.43178305019E+03  0.79659852192E+02 0.  0.
        254    2    1    2    0    0  0.12697273963E+03 -0.35404110921E+02 -0.14458874030E+04  0.16985599874E+04  0.88155551207E+03 0.  0.
         23    2    4    4    0    0 -0.20663146628E+03  0.31204414623E+03 -0.79117251516E+03  0.88030650443E+03  0.94432414667E+02 0.  0.
         23    2    4    4    0    0  0.33360420591E+03 -0.34744825715E+03 -0.65471488785E+03  0.81825348295E+03  0.94207857329E+02 0.  0.
          4    1    3    3  502    0 -0.11554123275E+03  0.53747511935E+02 -0.37532505697E+03  0.39636784669E+03  0.00000000000E+00 0. -1.
         -3    1    3    3    0  502 -0.11431506877E+02 -0.18343401014E+02 -0.28054891346E+02  0.35415203497E+02  0.00000000000E+00 0.  1.
         13    1    5    5    0    0 -0.18350415162E+03  0.22141966328E+03 -0.65226151350E+03  0.71284326675E+03  0.00000000000E+00 0. -1.
        -13    1    5    5    0    0 -0.23127314668E+02  0.90624482955E+02 -0.13891100166E+03  0.16746323769E+03  0.00000000000E+00 0.  1.
          3    1    6    6  503    0  0.13337009662E+03 -0.99358328834E+02 -0.16784332549E+03  0.23628593292E+03  0.00000000000E+00 0. -1.
         -3    1    6    6    0  503  0.20023410929E+03 -0.24808992832E+03 -0.48687156236E+03  0.58196755003E+03  0.00000000000E+00 0.  1.
<mgrwt>
<rscale>  0 0.10576255E+04</rscale>
<asrwt>0</asrwt>
<pdfrwt beam="1">  1        2 0.30612387E+00 0.10576255E+04</pdfrwt>
<pdfrwt beam="2">  1       -1 0.21621207E-01 0.10576255E+04</pdfrwt>
<totfact> 0.13803881E+02</totfact>
</mgrwt>
</event>
<event>
12    7  0.1544987E-007  0.1640752E+04  0.7818608E-02  0.8795896E-01
         -1   -1    0    0    0  501 -0.00000000000E+00  0.00000000000E+00  0.47814051349E+03  0.47814051349E+03  0.00000000000E+00 0.  1.
          2   -1    0    0  501    0  0.00000000000E+00 -0.00000000000E+00 -0.14075711301E+04  0.14075711301E+04  0.00000000000E+00 0. -1.
         24    2    1    2    0    0  0.34729099967E+03 -0.39280360906E+03 -0.66061056193E+02  0.53438487287E+03  0.79356256589E+02 0.  0.
        254    2    1    2    0    0 -0.34729099967E+03  0.39280360906E+03 -0.86336956038E+03  0.13513267707E+04  0.89764766453E+03 0.  0.
         23    2    4    4    0    0 -0.58393457375E+02 -0.27893110835E+03 -0.29028759168E+03  0.41768915522E+03  0.94789163107E+02 0.  0.
         23    2    4    4    0    0 -0.28889754229E+03  0.67173471741E+03 -0.57308196870E+03  0.93363761546E+03  0.92557731365E+02 0.  0.
          4    1    3    3  502    0  0.58756701023E+02 -0.78926085059E+02 -0.43099107318E+02  0.10742071434E+03  0.00000000000E+00 0. -1.
         -3    1    3    3    0  502  0.28853429865E+03 -0.31387752400E+03 -0.22961948875E+02  0.42696415853E+03  0.00000000000E+00 0.  1.
         13    1    5    5    0    0 -0.18743489130E+02 -0.58765457063E+02 -0.15965241806E+02  0.63714882677E+02  0.00000000000E+00 0. -1.
        -13    1    5    5    0    0 -0.39649968246E+02 -0.22016565129E+03 -0.27432234987E+03  0.35397427255E+03  0.00000000000E+00 0.  1.
          1    1    6    6  503    0 -0.13426582541E+03  0.22078631284E+03 -0.23412718947E+03  0.34869678613E+03  0.00000000000E+00 0. -1.
         -1    1    6    6    0  503 -0.15463171689E+03  0.45094840457E+03 -0.33895477923E+03  0.58494082933E+03  0.00000000000E+00 0.  1.
<mgrwt>
<rscale>  0 0.16407520E+04</rscale>
<asrwt>0</asrwt>
<pdfrwt beam="1">  1        2 0.21654940E+00 0.16407520E+04</pdfrwt>
<pdfrwt beam="2">  1       -1 0.73560079E-01 0.16407520E+04</pdfrwt>
<totfact> 0.29061644E+01</totfact>
</mgrwt>
</event>
<event>
12    7  0.1544987E-007  0.2026483E+04  0.7818608E-02  0.8594338E-01
          2   -1    0    0  501    0  0.00000000000E+00  0.00000000000E+00  0.16456734529E+04  0.16456734529E+04  0.00000000000E+00 0. -1.
         -1   -1    0    0    0  501 -0.00000000000E+00 -0.00000000000E+00 -0.62385277290E+03  0.62385277290E+03  0.00000000000E+00 0.  1.
         24    2    1    2    0    0 -0.48607657911E+03  0.64816009567E+03  0.33175428295E+03  0.87890564595E+03  0.77667752909E+02 0.  0.
        254    2    1    2    0    0  0.48607657911E+03 -0.64816009567E+03  0.69006639705E+03  0.13906205799E+04  0.89512681471E+03 0.  0.
         23    2    4    4    0    0  0.65741947761E+02 -0.13661431749E+03 -0.20673802801E+03  0.27218610067E+03  0.91428582709E+02 0.  0.
         23    2    4    4    0    0  0.42033463135E+03 -0.51154577817E+03  0.89680442506E+03  0.11184344792E+04  0.90979239157E+02 0.  0.
          4    1    3    3  502    0 -0.10156211774E+03  0.10912871339E+03  0.89367448257E+02  0.17381162405E+03  0.00000000000E+00 0. -1.
         -3    1    3    3    0  502 -0.38451446138E+03  0.53903138228E+03  0.24238683469E+03  0.70509402190E+03  0.00000000000E+00 0.  1.
         13    1    5    5    0    0  0.48400130940E+01 -0.10998713459E+03 -0.13849892627E+03  0.17692526128E+03  0.00000000000E+00 0. -1.
        -13    1    5    5    0    0  0.60901934667E+02 -0.26627182903E+02 -0.68239101735E+02  0.95260839389E+02  0.00000000000E+00 0.  1.
          4    1    6    6  503    0  0.28764001068E+03 -0.31199794564E+03  0.63249085027E+03  0.76165882750E+03  0.00000000000E+00 0. -1.
         -4    1    6    6    0  503  0.13269462067E+03 -0.19954783254E+03  0.26431357478E+03  0.35677565169E+03  0.00000000000E+00 0.  1.
<mgrwt>
<rscale>  0 0.20264826E+04</rscale>
<asrwt>0</asrwt>
<pdfrwt beam="1">  1        2 0.25318053E+00 0.20264826E+04</pdfrwt>
<pdfrwt beam="2">  1       -1 0.95977350E-01 0.20264826E+04</pdfrwt>
<totfact> 0.11618060E+01</totfact>
</mgrwt>
</event>
<event>
12    7  0.1544987E-007  0.1424598E+04  0.7818608E-02  0.8936204E-01
          2   -1    0    0  501    0  0.00000000000E+00  0.00000000000E+00  0.20464829958E+04  0.20464829958E+04  0.00000000000E+00 0. -1.
         -1   -1    0    0    0  501 -0.00000000000E+00 -0.00000000000E+00 -0.24792266422E+03  0.24792266422E+03  0.00000000000E+00 0.  1.
         24    2    1    2    0    0  0.68901548134E+02 -0.18424068515E+03  0.11360412566E+04  0.11555542592E+04  0.77613502038E+02 0.  0.
        254    2    1    2    0    0 -0.68901548134E+02  0.18424068515E+03  0.66251907496E+03  0.11388514009E+04  0.90518447577E+03 0.  0.
         23    2    4    4    0    0 -0.39487269957E+03  0.19062094740E+03  0.66191676970E+03  0.79917034605E+03  0.90987018539E+02 0.  0.
         23    2    4    4    0    0  0.32597115143E+03 -0.63802622593E+01  0.60230526184E+00  0.33968105482E+03  0.95315040345E+02 0.  0.
          4    1    3    3  502    0  0.28466030256E+02 -0.37865756563E+02  0.47195567595E+03  0.47432719769E+03  0.00000000000E+00 0. -1.
         -1    1    3    3    0  502  0.40435517878E+02 -0.14637492858E+03  0.66408558068E+03  0.68122706148E+03  0.00000000000E+00 0.  1.
         13    1    5    5    0    0 -0.35262860059E+03  0.17680453377E+03  0.53505887905E+03  0.66475166579E+03  0.00000000000E+00 0. -1.
        -13    1    5    5    0    0 -0.42244098980E+02  0.13816413639E+02  0.12685789064E+03  0.13441868026E+03  0.00000000000E+00 0.  1.
          3    1    6    6  503    0  0.24763696642E+03  0.11680676080E+02  0.38366327688E+02  0.25086346970E+03  0.00000000000E+00 0. -1.
         -3    1    6    6    0  503  0.78334185015E+02 -0.18060938340E+02 -0.37764022427E+02  0.88817585114E+02  0.00000000000E+00 0.  1.
<mgrwt>
<rscale>  0 0.14245975E+04</rscale>
<asrwt>0</asrwt>
<pdfrwt beam="1">  1        2 0.31484353E+00 0.14245975E+04</pdfrwt>
<pdfrwt beam="2">  1       -1 0.38141950E-01 0.14245975E+04</pdfrwt>
<totfact> 0.46312852E+01</totfact>
</mgrwt>
</event>
<event>
12    7  0.1544987E-007  0.2843865E+04  0.7818608E-02  0.8289778E-01
          2   -1    0    0  501    0  0.00000000000E+00  0.00000000000E+00  0.15783430785E+04  0.15783430785E+04  0.00000000000E+00 0. -1.
         -1   -1    0    0    0  501 -0.00000000000E+00 -0.00000000000E+00 -0.12810221385E+04  0.12810221385E+04  0.00000000000E+00 0.  1.
         24    2    1    2    0    0  0.12502291601E+04 -0.12829307538E+02 -0.13233228493E+03  0.12598028164E+04  0.79710467317E+02 0.  0.
        254    2    1    2    0    0 -0.12502291601E+04  0.12829307538E+02  0.42965322496E+03  0.15995624007E+04  0.90042236530E+03 0.  0.
         23    2    4    4    0    0 -0.55654761838E+03  0.22244111904E+03  0.59616046414E+03  0.85066828372E+03  0.94889024405E+02 0.  0.
         23    2    4    4    0    0 -0.69368154175E+03 -0.20961181151E+03 -0.16650723917E+03  0.74889411695E+03  0.89367470696E+02 0.  0.
          4    1    3    3  502    0  0.80777980652E+03 -0.40989003773E+02 -0.10515461809E+03  0.81562602212E+03  0.00000000000E+00 0. -1.
         -3    1    3    3    0  502  0.44244935361E+03  0.28159696235E+02 -0.27177666844E+02  0.44417679428E+03  0.00000000000E+00 0.  1.
         13    1    5    5    0    0 -0.16347391813E+03  0.24534883128E+02  0.13740018126E+03  0.21495230217E+03  0.00000000000E+00 0. -1.
        -13    1    5    5    0    0 -0.39307370025E+03  0.19790623592E+03  0.45876028288E+03  0.63571598155E+03  0.00000000000E+00 0.  1.
          2    1    6    6  503    0 -0.29408842857E+03 -0.73236968209E+02 -0.11228987310E+03  0.32320376380E+03  0.00000000000E+00 0. -1.
         -2    1    6    6    0  503 -0.39959311318E+03 -0.13637484330E+03 -0.54217366076E+02  0.42569035315E+03  0.00000000000E+00 0.  1.
<mgrwt>
<rscale>  0 0.28438653E+04</rscale>
<asrwt>0</asrwt>
<pdfrwt beam="1">  1        2 0.24282201E+00 0.28438653E+04</pdfrwt>
<pdfrwt beam="2">  1       -1 0.19708033E+00 0.28438653E+04</pdfrwt>
<totfact> 0.17851024E+00</totfact>
</mgrwt>
</event>
<event>
12    7  0.1544987E-007  0.1408015E+04  0.7818608E-02  0.8948037E-01
          2   -1    0    0  501    0  0.00000000000E+00  0.00000000000E+00  0.18723721628E+04  0.18723721628E+04  0.00000000000E+00 0. -1.
         -1   -1    0    0    0  501 -0.00000000000E+00 -0.00000000000E+00 -0.26470527993E+03  0.26470527993E+03  0.00000000000E+00 0.  1.
         24    2    1    2    0    0 -0.31951292832E+03 -0.67774721388E+02  0.12886625849E+03  0.36028752725E+03  0.80738252996E+02 0.  0.
        254    2    1    2    0    0  0.31951292832E+03  0.67774721388E+02  0.14788006244E+04  0.17767899155E+04  0.92921966877E+03 0.  0.
         23    2    4    4    0    0  0.36051047906E+03  0.44224983219E+03  0.70682386389E+03  0.91293028033E+03  0.91043959608E+02 0.  0.
         23    2    4    4    0    0 -0.40997550744E+02 -0.37447511080E+03  0.77197676049E+03  0.86385963514E+03  0.91613005233E+02 0.  0.
          4    1    3    3  502    0 -0.62206419627E+02 -0.20125510001E+02  0.62214314093E+02  0.90251291812E+02  0.00000000000E+00 0. -1.
         -3    1    3    3    0  502 -0.25730650869E+03 -0.47649211387E+02  0.66651944397E+02  0.27003623544E+03  0.00000000000E+00 0.  1.
         13    1    5    5    0    0  0.31560009535E+03  0.42560857321E+03  0.65119395942E+03  0.83952346636E+03  0.00000000000E+00 0. -1.
        -13    1    5    5    0    0  0.44910383707E+02  0.16641258973E+02  0.55629904479E+02  0.73406813970E+02  0.00000000000E+00 0.  1.
          1    1    6    6  503    0 -0.31208213634E+02 -0.35305249669E+03  0.65709396370E+03  0.74658723211E+03  0.00000000000E+00 0. -1.
         -1    1    6    6    0  503 -0.97893371097E+01 -0.21422614106E+02  0.11488279679E+03  0.11727240303E+03  0.00000000000E+00 0.  1.
<mgrwt>
<rscale>  0 0.14080153E+04</rscale>
<asrwt>0</asrwt>
<pdfrwt beam="1">  1        2 0.28805725E+00 0.14080153E+04</pdfrwt>
<pdfrwt beam="2">  1       -1 0.40723890E-01 0.14080153E+04</pdfrwt>
<totfact> 0.51385751E+01</totfact>
</mgrwt>
</event>
<event>
12    7  0.1544987E-007  0.1393824E+04  0.7818608E-02  0.8958302E-01
         -1   -1    0    0    0  501 -0.00000000000E+00  0.00000000000E+00  0.11206043164E+04  0.11206043164E+04  0.00000000000E+00 0.  1.
          2   -1    0    0  501    0  0.00000000000E+00 -0.00000000000E+00 -0.43341435440E+03  0.43341435440E+03  0.00000000000E+00 0. -1.
         24    2    1    2    0    0  0.23596761394E+02 -0.36538773857E+03  0.45348105476E+03  0.58825183036E+03  0.79562191090E+02 0.  0.
        254    2    1    2    0    0 -0.23596761394E+02  0.36538773857E+03  0.23370890720E+03  0.96576684041E+03  0.86256636272E+03 0.  0.
         23    2    4    4    0    0  0.25019465804E+03  0.53012558120E+03  0.77548816386E+02  0.59848279380E+03  0.92397709955E+02 0.  0.
         23    2    4    4    0    0 -0.27379141943E+03 -0.16473784263E+03  0.15616009081E+03  0.36728404661E+03  0.91713133095E+02 0.  0.
          4    1    3    3  502    0 -0.12512442872E+02 -0.13604174619E+02  0.99240137562E+01  0.20979057241E+02  0.00000000000E+00 0. -1.
         -3    1    3    3    0  502  0.36109204266E+02 -0.35178356395E+03  0.44355704101E+03  0.56727277312E+03  0.00000000000E+00 0.  1.
         13    1    5    5    0    0  0.16744422315E+01  0.46998317564E+01  0.12695333707E+02  0.13640515872E+02  0.00000000000E+00 0.  1.
        -13    1    5    5    0    0  0.24852021580E+03  0.52542574944E+03  0.64853482680E+02  0.58484227793E+03  0.00000000000E+00 0. -1.
          2    1    6    6  503    0 -0.10597884586E+03 -0.10554480009E+03  0.10286549695E+03  0.18152832027E+03  0.00000000000E+00 0. -1.
         -2    1    6    6    0  503 -0.16781257357E+03 -0.59193042540E+02  0.53294593859E+02  0.18575572634E+03  0.00000000000E+00 0.  1.
<mgrwt>
<rscale>  0 0.13938235E+04</rscale>
<asrwt>0</asrwt>
<pdfrwt beam="1">  1        2 0.66679132E-01 0.13938235E+04</pdfrwt>
<pdfrwt beam="2">  1       -1 0.17240066E+00 0.13938235E+04</pdfrwt>
<totfact> 0.19106277E+01</totfact>
</mgrwt>
</event>
<event>
12    7  0.1544987E-007  0.1792843E+04  0.7818608E-02  0.8710115E-01
         -1   -1    0    0    0  501 -0.00000000000E+00  0.00000000000E+00  0.25604664674E+03  0.25604664674E+03  0.00000000000E+00 0.  1.
          2   -1    0    0  501    0  0.00000000000E+00 -0.00000000000E+00 -0.31383785034E+04  0.31383785034E+04  0.00000000000E+00 0. -1.
         24    2    1    2    0    0  0.48678540629E+03 -0.10899440912E+02 -0.19361132087E+04  0.19979891064E+04  0.79669836525E+02 0.  0.
        254    2    1    2    0    0 -0.48678540629E+03  0.10899440912E+02 -0.94621864800E+03  0.13964360438E+04  0.90422622442E+03 0.  0.
         23    2    4    4    0    0  0.16936638730E+03 -0.22216839532E+02  0.50157011088E+02  0.19937883940E+03  0.89764328834E+02 0.  0.
         23    2    4    4    0    0 -0.65615179359E+03  0.33116280444E+02 -0.99637565909E+03  0.11970572044E+04  0.92464221461E+02 0.  0.
          2    1    3    3  502    0  0.43056148496E+03 -0.30852128916E+02 -0.16350511812E+04  0.16910728580E+04  0.00000000000E+00 0. -1.
         -1    1    3    3    0  502  0.56223921327E+02  0.19952688004E+02 -0.30106202750E+03  0.30691624834E+03  0.00000000000E+00 0.  1.
         13    1    5    5    0    0  0.11432609391E+03 -0.54221254591E+02  0.17230839276E+02  0.12770004706E+03  0.00000000000E+00 0.  1.
        -13    1    5    5    0    0  0.55040293393E+02  0.32004415058E+02  0.32926171812E+02  0.71678792332E+02  0.00000000000E+00 0. -1.
          4    1    6    6  503    0 -0.28364470728E+03 -0.29999882833E+02 -0.40765578905E+03  0.49753146160E+03  0.00000000000E+00 0. -1.
         -4    1    6    6    0  503 -0.37250708631E+03  0.63116163277E+02 -0.58871987004E+03  0.69952574277E+03  0.00000000000E+00 0.  1.
<mgrwt>
<rscale>  0 0.17928428E+04</rscale>
<asrwt>0</asrwt>
<pdfrwt beam="1">  1        2 0.48282748E+00 0.17928428E+04</pdfrwt>
<pdfrwt beam="2">  1       -1 0.39391790E-01 0.17928428E+04</pdfrwt>
<totfact> 0.96261171E+00</totfact>
</mgrwt>
</event>
<event>
12    7  0.1544987E-007  0.1328720E+04  0.7818608E-02  0.9007095E-01
          2   -1    0    0  501    0  0.00000000000E+00  0.00000000000E+00  0.25582788454E+03  0.25582788454E+03  0.00000000000E+00 0. -1.
         -1   -1    0    0    0  501 -0.00000000000E+00 -0.00000000000E+00 -0.17252777289E+04  0.17252777289E+04  0.00000000000E+00 0.  1.
         24    2    1    2    0    0  0.57349291881E+02 -0.28234525778E+03 -0.10468335964E+03  0.31698996084E+03  0.80723253261E+02 0.  0.
        254    2    1    2    0    0 -0.57349291881E+02  0.28234525778E+03 -0.13647664847E+04  0.16641156526E+04  0.90757124325E+03 0.  0.
         23    2    4    4    0    0  0.33552006860E+02  0.10668686787E+03 -0.14274611981E+04  0.14347620191E+04  0.91590143816E+02 0.  0.
         23    2    4    4    0    0 -0.90901298741E+02  0.17565838990E+03  0.62694713329E+02  0.22935363355E+03  0.97742243108E+02 0.  0.
          4    1    3    3  502    0  0.34763145713E+02 -0.18454542928E+03 -0.26273247274E+02  0.18962008145E+03  0.00000000000E+00 0. -1.
         -3    1    3    3    0  502  0.22586146167E+02 -0.97799828500E+02 -0.78410112368E+02  0.12736987939E+03  0.00000000000E+00 0.  1.
         13    1    5    5    0    0  0.43759339362E+02  0.18480110443E+02 -0.75055506468E+03  0.75205671288E+03  0.00000000000E+00 0. -1.
        -13    1    5    5    0    0 -0.10207332502E+02  0.88206757429E+02 -0.67690613339E+03  0.68270530620E+03  0.00000000000E+00 0.  1.
          4    1    6    6  503    0 -0.10835525542E+03  0.16527415778E+03  0.66842750959E+02  0.20862493131E+03  0.00000000000E+00 0. -1.
         -4    1    6    6    0  503  0.17453956679E+02  0.10384232122E+02 -0.41480376300E+01  0.20728702243E+02  0.00000000000E+00 0.  1.
<mgrwt>
<rscale>  0 0.13287199E+04</rscale>
<asrwt>0</asrwt>
<pdfrwt beam="1">  1        2 0.39358137E-01 0.13287199E+04</pdfrwt>
<pdfrwt beam="2">  1       -1 0.26542734E+00 0.13287199E+04</pdfrwt>
<totfact> 0.81531770E+00</totfact>
</mgrwt>
</event>
<event>
12    7  0.1740706E-007  0.3191900E+04  0.7818608E-02  0.8190960E-01
         -1   -1    0    0    0  501 -0.00000000000E+00  0.00000000000E+00  0.13972341774E+04  0.13972341774E+04  0.00000000000E+00 0.  1.
          2   -1    0    0  501    0  0.00000000000E+00 -0.00000000000E+00 -0.18229271287E+04  0.18229271287E+04  0.00000000000E+00 0. -1.
         24    2    1    2    0    0  0.12582682736E+04 -0.35897130962E+03 -0.87042699822E+03  0.15735839510E+04  0.80148875227E+02 0.  0.
        254    2    1    2    0    0 -0.12582682736E+04  0.35897130962E+03  0.44473404696E+03  0.16465773551E+04  0.89516990795E+03 0.  0.
         23    2    4    4    0    0 -0.69879393912E+03  0.51297607920E+03 -0.57565356716E+02  0.87356157561E+03  0.91316093413E+02 0.  0.
         23    2    4    4    0    0 -0.55947433451E+03 -0.15400476958E+03  0.50229940368E+03  0.77301577944E+03  0.92302244291E+02 0.  0.
          2    1    3    3  502    0  0.11228835953E+04 -0.30031040150E+03 -0.75212023090E+03  0.13844633428E+04  0.00000000000E+00 0. -1.
         -1    1    3    3    0  502  0.13538467836E+03 -0.58660908121E+02 -0.11830676732E+03  0.18912060826E+03  0.00000000000E+00 0.  1.
         13    1    5    5    0    0 -0.44019636876E+03  0.27693627982E+03 -0.59286683455E+02  0.52343238053E+03  0.00000000000E+00 0. -1.
        -13    1    5    5    0    0 -0.25859757036E+03  0.23603979938E+03  0.17213267387E+01  0.35012919508E+03  0.00000000000E+00 0.  1.
          1    1    6    6  503    0 -0.44686902578E+03 -0.11982397107E+03  0.44576686894E+03  0.64246230371E+03  0.00000000000E+00 0. -1.
         -1    1    6    6    0  503 -0.11260530874E+03 -0.34180798509E+02  0.56532534734E+02  0.13055347573E+03  0.00000000000E+00 0.  1.
<mgrwt>
<rscale>  0 0.31918998E+04</rscale>
<asrwt>0</asrwt>
<pdfrwt beam="1">  1        2 0.28045033E+00 0.31918998E+04</pdfrwt>
<pdfrwt beam="2">  1       -1 0.21495910E+00 0.31918998E+04</pdfrwt>
<totfact> 0.95601331E-01</totfact>
</mgrwt>
</event>
<event>
12    7  0.1544987E-007  0.2192056E+04  0.7818608E-02  0.8521742E-01
         -1   -1    0    0    0  501 -0.00000000000E+00  0.00000000000E+00  0.94076335346E+03  0.94076335346E+03  0.00000000000E+00 0.  1.
          2   -1    0    0  501    0  0.00000000000E+00 -0.00000000000E+00 -0.12769172953E+04  0.12769172953E+04  0.00000000000E+00 0. -1.
         24    2    1    2    0    0  0.85079407015E+03 -0.87350786006E+02  0.17190934367E+03  0.87616368699E+03  0.81420355813E+02 0.  0.
        254    2    1    2    0    0 -0.85079407015E+03  0.87350786006E+02 -0.50806328547E+03  0.13415169617E+04  0.90003263662E+03 0.  0.
         23    2    4    4    0    0 -0.48343376897E+03 -0.36728459788E+03 -0.97428515369E+02  0.62132132952E+03  0.89116183035E+02 0.  0.
         23    2    4    4    0    0 -0.36736030117E+03  0.45463538389E+03 -0.41063477010E+03  0.72019563222E+03  0.91727373731E+02 0.  0.
          4    1    3    3  502    0  0.31924468886E+03 -0.22172230584E+02  0.10320476667E+03  0.33624396357E+03  0.00000000000E+00 0. -1.
         -3    1    3    3    0  502  0.53154938129E+03 -0.65178555422E+02  0.68704577003E+02  0.53991972342E+03  0.00000000000E+00 0.  1.
         13    1    5    5    0    0 -0.16454603896E+03 -0.12071258593E+03 -0.75617083484E+02  0.21763471840E+03  0.00000000000E+00 0.  1.
        -13    1    5    5    0    0 -0.31888773001E+03 -0.24657201196E+03 -0.21811431885E+02  0.40368661112E+03  0.00000000000E+00 0. -1.
          1    1    6    6  503    0 -0.93447593224E+02  0.17669927855E+03 -0.16406488336E+03  0.25859693284E+03  0.00000000000E+00 0. -1.
         -1    1    6    6    0  503 -0.27391270795E+03  0.27793610534E+03 -0.24656988674E+03  0.46159869938E+03  0.00000000000E+00 0.  1.
<mgrwt>
<rscale>  0 0.21920557E+04</rscale>
<asrwt>0</asrwt>
<pdfrwt beam="1">  1        2 0.19644881E+00 0.21920557E+04</pdfrwt>
<pdfrwt beam="2">  1       -1 0.14473282E+00 0.21920557E+04</pdfrwt>
<totfact> 0.68267140E+00</totfact>
</mgrwt>
</event>
<event>
12    7  0.1544987E-007  0.2210023E+04  0.7818608E-02  0.8514268E-01
          2   -1    0    0  501    0  0.00000000000E+00  0.00000000000E+00  0.98048361553E+03  0.98048361553E+03  0.00000000000E+00 0. -1.
         -1   -1    0    0    0  501 -0.00000000000E+00 -0.00000000000E+00 -0.12453547871E+04  0.12453547871E+04  0.00000000000E+00 0.  1.
         24    2    1    2    0    0  0.11543734406E+03  0.90603167222E+03 -0.22347631005E+03  0.94363644943E+03  0.79302686373E+02 0.  0.
        254    2    1    2    0    0 -0.11543734406E+03 -0.90603167222E+03 -0.41394861552E+02  0.12822019532E+04  0.89894891002E+03 0.  0.
         23    2    4    4    0    0  0.38539681810E+03 -0.36533160497E+03 -0.53222707260E+01  0.53870085064E+03  0.90401277219E+02 0.  0.
         23    2    4    4    0    0 -0.50083416216E+03 -0.54070006725E+03 -0.36072590826E+02  0.74350110259E+03  0.91111124634E+02 0.  0.
          2    1    3    3  502    0  0.92054043419E+02  0.83842266832E+03 -0.22154671005E+03  0.87207193648E+03  0.00000000000E+00 0. -1.
         -1    1    3    3    0  502  0.23383300639E+02  0.67609003906E+02 -0.19295999962E+01  0.71564512952E+02  0.00000000000E+00 0.  1.
         13    1    5    5    0    0  0.16071574587E+03 -0.18033433322E+03  0.37747514889E+02  0.24448905413E+03  0.00000000000E+00 0. -1.
        -13    1    5    5    0    0  0.22468107222E+03 -0.18499727175E+03 -0.43069785615E+02  0.29421179650E+03  0.00000000000E+00 0.  1.
          1    1    6    6  503    0 -0.12927050150E+03 -0.15662471402E+03 -0.49171972188E+02  0.20894986587E+03  0.00000000000E+00 0. -1.
         -1    1    6    6    0  503 -0.37156366066E+03 -0.38407535324E+03  0.13099381362E+02  0.53455123672E+03  0.00000000000E+00 0.  1.
<mgrwt>
<rscale>  0 0.22100226E+04</rscale>
<asrwt>0</asrwt>
<pdfrwt beam="1">  1        2 0.15084363E+00 0.22100226E+04</pdfrwt>
<pdfrwt beam="2">  1       -1 0.19159304E+00 0.22100226E+04</pdfrwt>
<totfact> 0.46512442E+00</totfact>
</mgrwt>
</event>
<event>
12    7  0.1544987E-007  0.2604032E+04  0.7818608E-02  0.8366833E-01
         -1   -1    0    0    0  501 -0.00000000000E+00  0.00000000000E+00  0.10685686827E+04  0.10685686827E+04  0.00000000000E+00 0.  1.
          2   -1    0    0  501    0  0.00000000000E+00 -0.00000000000E+00 -0.15864637905E+04  0.15864637905E+04  0.00000000000E+00 0. -1.
         24    2    1    2    0    0 -0.28810892720E+03 -0.52336609189E+03  0.76770120965E+03  0.97597905282E+03  0.79064177498E+02 0.  0.
        254    2    1    2    0    0  0.28810892720E+03  0.52336609189E+03 -0.12855963175E+04  0.16790534203E+04  0.89974645136E+03 0.  0.
         23    2    4    4    0    0  0.25475766425E+03  0.76797092575E+03 -0.10262322421E+04  0.13097685986E+04  0.87523464756E+02 0.  0.
         23    2    4    4    0    0  0.33351262946E+02 -0.24460483386E+03 -0.25936407535E+03  0.36928482170E+03  0.90320122184E+02 0.  0.
          2    1    3    3  502    0 -0.18696188374E+03 -0.26189075379E+03  0.39038252066E+03  0.50590515448E+03  0.00000000000E+00 0. -1.
         -1    1    3    3    0  502 -0.10114704346E+03 -0.26147533811E+03  0.37731868899E+03  0.47007389834E+03  0.00000000000E+00 0.  1.
         13    1    5    5    0    0  0.86071545105E+02  0.30355617243E+03 -0.46608476021E+03  0.56284070961E+03  0.00000000000E+00 0.  1.
        -13    1    5    5    0    0  0.16868611915E+03  0.46441475333E+03 -0.56014748194E+03  0.74692788904E+03  0.00000000000E+00 0. -1.
          2    1    6    6  503    0  0.26711487987E+02 -0.44904198582E+02 -0.16505146019E+02  0.54793343445E+02  0.00000000000E+00 0.  1.
         -2    1    6    6    0  503  0.66397749594E+01 -0.19970063527E+03 -0.24285892933E+03  0.31449147826E+03  0.00000000000E+00 0. -1.
<mgrwt>
<rscale>  0 0.26040319E+04</rscale>
<asrwt>0</asrwt>
<pdfrwt beam="1">  1        2 0.24407135E+00 0.26040319E+04</pdfrwt>
<pdfrwt beam="2">  1       -1 0.16439518E+00 0.26040319E+04</pdfrwt>
<totfact> 0.30944231E+00</totfact>
</mgrwt>
</event>
<event>
12    7  0.1544987E-007  0.1970189E+04  0.7818608E-02  0.8620686E-01
          2   -1    0    0  501    0  0.00000000000E+00  0.00000000000E+00  0.89714641330E+03  0.89714641330E+03  0.00000000000E+00 0. -1.
         -1   -1    0    0    0  501 -0.00000000000E+00 -0.00000000000E+00 -0.10816645233E+04  0.10816645233E+04  0.00000000000E+00 0.  1.
         24    2    1    2    0    0  0.23947154447E+03 -0.63749339300E+03 -0.46247924996E+03  0.82972810739E+03  0.10400590765E+03 0.  0.
        254    2    1    2    0    0 -0.23947154447E+03  0.63749339300E+03  0.27796113993E+03  0.11490828292E+04  0.88282756322E+03 0.  0.
         23    2    4    4    0    0  0.25969184403E+02 -0.15180656896E+03 -0.12820277603E+03  0.21841472199E+03  0.86887318285E+02 0.  0.
         23    2    4    4    0    0 -0.26544072887E+03  0.78929996196E+03  0.40616391596E+03  0.93066810724E+03  0.87868018657E+02 0.  0.
          4    1    3    3  502    0 -0.93866368119E+01 -0.38849280057E+02 -0.19041124534E+02  0.44271208873E+02  0.00000000000E+00 0. -1.
         -3    1    3    3    0  502  0.24885818128E+03 -0.59864411295E+03 -0.44343812542E+03  0.78545689852E+03  0.00000000000E+00 0.  1.
         13    1    5    5    0    0  0.26233690389E+02 -0.15542341270E+03 -0.13703829030E+03  0.20886391918E+03  0.00000000000E+00 0.  1.
        -13    1    5    5    0    0 -0.26450598587E+00  0.36168437381E+01  0.88355142611E+01  0.95508028092E+01  0.00000000000E+00 0. -1.
          1    1    6    6  503    0 -0.10784348264E+03  0.38127704958E+03  0.23693343664E+03  0.46167072539E+03  0.00000000000E+00 0. -1.
         -1    1    6    6    0  503 -0.15759724623E+03  0.40802291238E+03  0.16923047933E+03  0.46899738185E+03  0.00000000000E+00 0.  1.
<mgrwt>
<rscale>  0 0.19701893E+04</rscale>
<asrwt>0</asrwt>
<pdfrwt beam="1">  1        2 0.13802253E+00 0.19701893E+04</pdfrwt>
<pdfrwt beam="2">  1       -1 0.16640992E+00 0.19701893E+04</pdfrwt>
<totfact> 0.81867259E+00</totfact>
</mgrwt>
</event>
<event>
12    7  0.1544987E-007  0.1118690E+04  0.7818608E-02  0.9187165E-01
         -1   -1    0    0    0  501 -0.00000000000E+00  0.00000000000E+00  0.28127049345E+03  0.28127049345E+03  0.00000000000E+00 0.  1.
          2   -1    0    0  501    0  0.00000000000E+00 -0.00000000000E+00 -0.11123334466E+04  0.11123334466E+04  0.00000000000E+00 0. -1.
         24    2    1    2    0    0  0.66813393794E+02 -0.89903332145E+02 -0.31265885739E+03  0.34809074994E+03  0.10423516860E+03 0.  0.
        254    2    1    2    0    0 -0.66813393794E+02  0.89903332145E+02 -0.51840409580E+03  0.10455131901E+04  0.90100409849E+03 0.  0.
         23    2    4    4    0    0  0.21598477988E+03  0.37487685183E+03 -0.90376914154E+02  0.45148668816E+03  0.92142084824E+02 0.  0.
         23    2    4    4    0    0 -0.28279817367E+03 -0.28497351968E+03 -0.42802718165E+03  0.59402650198E+03  0.92062494382E+02 0.  0.
          4    1    3    3  502    0  0.71422970752E+02 -0.96555682906E+02 -0.31694172606E+03  0.33893406198E+03  0.00000000000E+00 0. -1.
         -1    1    3    3    0  502 -0.46095769581E+01  0.66523507614E+01  0.42828686726E+01  0.91566879631E+01  0.00000000000E+00 0.  1.
         13    1    5    5    0    0  0.19655837484E+03  0.36803805435E+03 -0.99537463102E+02  0.42894627953E+03  0.00000000000E+00 0. -1.
        -13    1    5    5    0    0  0.19426405045E+02  0.68387974832E+01  0.91605489480E+01  0.22540408626E+02  0.00000000000E+00 0.  1.
          3    1    6    6  503    0 -0.26841239861E+03 -0.24508097102E+03 -0.34669248860E+03  0.50230028841E+03  0.00000000000E+00 0. -1.
         -3    1    6    6    0  503 -0.14385775062E+02 -0.39892548662E+02 -0.81334693044E+02  0.91726213568E+02  0.00000000000E+00 0.  1.
<mgrwt>
<rscale>  0 0.11186896E+04</rscale>
<asrwt>0</asrwt>
<pdfrwt beam="1">  1        2 0.17112822E+00 0.11186896E+04</pdfrwt>
<pdfrwt beam="2">  1       -1 0.43272383E-01 0.11186896E+04</pdfrwt>
<totfact> 0.12744426E+02</totfact>
</mgrwt>
</event>
<event>
12    7  0.1544987E-007  0.4325241E+04  0.7818608E-02  0.7941967E-01
         -1   -1    0    0    0  501 -0.00000000000E+00  0.00000000000E+00  0.91279640996E+03  0.91279640996E+03  0.00000000000E+00 0.  1.
          2   -1    0    0  501    0  0.00000000000E+00 -0.00000000000E+00 -0.51237353337E+04  0.51237353337E+04  0.00000000000E+00 0. -1.
         24    2    1    2    0    0 -0.78006497422E+02 -0.67909753701E+03  0.71032874211E+03  0.98889603842E+03  0.78038288711E+02 0.  0.
        254    2    1    2    0    0  0.78006497422E+02  0.67909753701E+03 -0.49212676658E+04  0.50476357052E+04  0.89022036341E+03 0.  0.
         23    2    4    4    0    0 -0.26506011953E+02  0.28929189116E+03 -0.42292183674E+04  0.42401682143E+04  0.91357101924E+02 0.  0.
         23    2    4    4    0    0  0.10451250937E+03  0.38980564585E+03 -0.69204929847E+03  0.80746749088E+03  0.10099609482E+03 0.  0.
          2    1    3    3  502    0 -0.39622721285E+01 -0.14714528355E+02  0.27739647432E+01  0.15489087304E+02  0.00000000000E+00 0. -1.
         -1    1    3    3    0  502 -0.74044225293E+02 -0.66438300866E+03  0.70755477737E+03  0.97340695111E+03  0.00000000000E+00 0.  1.
         13    1    5    5    0    0 -0.54889952893E+02  0.22874655752E+03 -0.34967922329E+04  0.35046959660E+04  0.00000000000E+00 0. -1.
        -13    1    5    5    0    0  0.28383940940E+02  0.60545333643E+02 -0.73242613450E+03  0.73547224830E+03  0.00000000000E+00 0.  1.
          1    1    6    6  503    0  0.10404997025E+03  0.38522589514E+03 -0.69541501855E+03  0.80176519918E+03  0.00000000000E+00 0. -1.
         -1    1    6    6    0  503  0.46253912921E+00  0.45797507104E+01  0.33657200785E+01  0.57022917027E+01  0.00000000000E+00 0.  1.
<mgrwt>
<rscale>  0 0.43252409E+04</rscale>
<asrwt>0</asrwt>
<pdfrwt beam="1">  1        2 0.78826696E+00 0.43252409E+04</pdfrwt>
<pdfrwt beam="2">  1       -1 0.14043022E+00 0.43252409E+04</pdfrwt>
<totfact> 0.84135361E-03</totfact>
</mgrwt>
</event>
<event>
12    7  0.1544987E-007  0.1691395E+04  0.7818608E-02  0.8766287E-01
         -1   -1    0    0    0  501 -0.00000000000E+00  0.00000000000E+00  0.39757518453E+03  0.39757518453E+03  0.00000000000E+00 0.  1.
          2   -1    0    0  501    0  0.00000000000E+00 -0.00000000000E+00 -0.17989153161E+04  0.17989153161E+04  0.00000000000E+00 0. -1.
         24    2    1    2    0    0 -0.56866941572E+03 -0.17874807609E+03 -0.62220108552E+03  0.86535238549E+03  0.79779578653E+02 0.  0.
        254    2    1    2    0    0  0.56866941572E+03  0.17874807609E+03 -0.77913904605E+03  0.13311381151E+04  0.89974176820E+03 0.  0.
         23    2    4    4    0    0  0.15073392388E+02 -0.17459513496E+03 -0.61636133056E+03  0.64844744580E+03  0.99358602270E+02 0.  0.
         23    2    4    4    0    0  0.55359602333E+03  0.35334321104E+03 -0.16277771549E+03  0.68269066934E+03  0.90829419887E+02 0.  0.
          4    1    3    3  502    0 -0.41045465036E+03 -0.14492666283E+03 -0.49775008754E+03  0.66123513764E+03  0.00000000000E+00 0. -1.
         -3    1    3    3    0  502 -0.15821476536E+03 -0.33821413255E+02 -0.12445099799E+03  0.20411724785E+03  0.00000000000E+00 0.  1.
         13    1    5    5    0    0  0.35864921223E+02 -0.15360022039E+03 -0.39832619109E+03  0.42841927452E+03  0.00000000000E+00 0. -1.
        -13    1    5    5    0    0 -0.20791528835E+02 -0.20994914562E+02 -0.21803513947E+03  0.22002817127E+03  0.00000000000E+00 0.  1.
          2    1    6    6  503    0  0.14726766320E+03  0.11938426156E+03 -0.83548972959E+02  0.20717335112E+03  0.00000000000E+00 0. -1.
         -2    1    6    6    0  503  0.40632836013E+03  0.23395894948E+03 -0.79228742529E+02  0.47551731822E+03  0.00000000000E+00 0.  1.
<mgrwt>
<rscale>  0 0.16913948E+04</rscale>
<asrwt>0</asrwt>
<pdfrwt beam="1">  1        2 0.27675620E+00 0.16913948E+04</pdfrwt>
<pdfrwt beam="2">  1       -1 0.61165413E-01 0.16913948E+04</pdfrwt>
<totfact> 0.25405683E+01</totfact>
</mgrwt>
</event>
<event>
12    7  0.1544987E-007  0.2159117E+04  0.7818608E-02  0.8535640E-01
          2   -1    0    0  501    0  0.00000000000E+00  0.00000000000E+00  0.17825729526E+04  0.17825729526E+04  0.00000000000E+00 0. -1.
         -1   -1    0    0    0  501 -0.00000000000E+00 -0.00000000000E+00 -0.65379999235E+03  0.65379999235E+03  0.00000000000E+00 0.  1.
         24    2    1    2    0    0 -0.60738636406E+03 -0.31080463032E+02  0.11987728562E+04  0.13466542028E+04  0.80851657860E+02 0.  0.
        254    2    1    2    0    0  0.60738636406E+03  0.31080463032E+02 -0.69999895964E+02  0.10897187422E+04  0.90150028356E+03 0.  0.
         23    2    4    4    0    0  0.19443070104E+03  0.28254064442E+03  0.30716463437E+03  0.46973376990E+03  0.93097737483E+02 0.  0.
         23    2    4    4    0    0  0.41295566302E+03 -0.25146018139E+03 -0.37716453033E+03  0.61998497230E+03  0.91453160140E+02 0.  0.
          2    1    3    3  502    0 -0.53242623636E+03 -0.15367294317E+02  0.10950090884E+04  0.12176858193E+04  0.00000000000E+00 0. -1.
         -1    1    3    3    0  502 -0.74960127692E+02 -0.15713168714E+02  0.10376376785E+03  0.12896838346E+03  0.00000000000E+00 0.  1.
         13    1    5    5    0    0  0.74059328630E+02  0.14855902938E+03  0.94364118628E+02  0.19094280885E+03  0.00000000000E+00 0. -1.
        -13    1    5    5    0    0  0.12037137241E+03  0.13398161504E+03  0.21280051574E+03  0.27879096105E+03  0.00000000000E+00 0.  1.
          3    1    6    6  503    0  0.57571184042E+02 -0.22077139050E+01 -0.36647233317E+02  0.68281292771E+02  0.00000000000E+00 0. -1.
         -3    1    6    6    0  503  0.35538447897E+03 -0.24925246749E+03 -0.34051729701E+03  0.55170367953E+03  0.00000000000E+00 0.  1.
<mgrwt>
<rscale>  0 0.21591167E+04</rscale>
<asrwt>0</asrwt>
<pdfrwt beam="1">  1        2 0.27424199E+00 0.21591167E+04</pdfrwt>
<pdfrwt beam="2">  1       -1 0.10058462E+00 0.21591167E+04</pdfrwt>
<totfact> 0.86646953E+00</totfact>
</mgrwt>
</event>
<event>
12    7  0.1544987E-007  0.1482172E+04  0.7818608E-02  0.8896396E-01
          2   -1    0    0  501    0  0.00000000000E+00  0.00000000000E+00  0.24068074910E+04  0.24068074910E+04  0.00000000000E+00 0. -1.
         -1   -1    0    0    0  501 -0.00000000000E+00 -0.00000000000E+00 -0.22818966720E+03  0.22818966720E+03  0.00000000000E+00 0.  1.
         24    2    1    2    0    0  0.10796034772E+03 -0.15223889370E+03 -0.63498359189E+02  0.21261575392E+03  0.79632278388E+02 0.  0.
        254    2    1    2    0    0 -0.10796034772E+03  0.15223889370E+03  0.22421161830E+04  0.24223814043E+04  0.89778314329E+03 0.  0.
         23    2    4    4    0    0 -0.13388623626E+03  0.30059185166E+03  0.22180534604E+04  0.22444020298E+04  0.96427861607E+02 0.  0.
         23    2    4    4    0    0  0.25925888544E+02 -0.14835295796E+03  0.24062722633E+02  0.17797937456E+03  0.91743617301E+02 0.  0.
          4    1    3    3  502    0  0.42598387107E+02 -0.10000916955E+03 -0.19015647022E+01  0.10872015695E+03  0.00000000000E+00 0. -1.
         -3    1    3    3    0  502  0.65361960610E+02 -0.52229724153E+02 -0.61596794487E+02  0.10389559698E+03  0.00000000000E+00 0.  1.
         13    1    5    5    0    0 -0.73076409803E+02  0.21352179855E+03  0.12185685134E+04  0.12392904994E+04  0.00000000000E+00 0. -1.
        -13    1    5    5    0    0 -0.60809826458E+02  0.87070053115E+02  0.99948494701E+03  0.10051115304E+04  0.00000000000E+00 0.  1.
          4    1    6    6  503    0  0.47674761384E+02 -0.14699657706E+03  0.21963100390E+02  0.15608732914E+03  0.00000000000E+00 0.  1.
         -4    1    6    6    0  503 -0.21748872840E+02 -0.13563809011E+01  0.20996222430E+01  0.21892045416E+02  0.00000000000E+00 0. -1.
<mgrwt>
<rscale>  0 0.14821722E+04</rscale>
<asrwt>0</asrwt>
<pdfrwt beam="1">  1        2 0.37027806E+00 0.14821722E+04</pdfrwt>
<pdfrwt beam="2">  1       -1 0.35106104E-01 0.14821722E+04</pdfrwt>
<totfact> 0.33581629E+01</totfact>
</mgrwt>
</event>
<event>
12    7  0.1544987E-007  0.2358330E+04  0.7818608E-02  0.8455271E-01
          2   -1    0    0  501    0  0.00000000000E+00  0.00000000000E+00  0.22998532536E+04  0.22998532536E+04  0.00000000000E+00 0. -1.
         -1   -1    0    0    0  501 -0.00000000000E+00 -0.00000000000E+00 -0.60457337116E+03  0.60457337116E+03  0.00000000000E+00 0.  1.
         24    2    1    2    0    0 -0.48469489128E+03  0.85107159161E+03  0.41351819618E+03  0.10661797606E+04  0.80560485017E+02 0.  0.
        254    2    1    2    0    0  0.48469489128E+03 -0.85107159161E+03  0.12817616863E+04  0.18382468641E+04  0.88146838934E+03 0.  0.
         23    2    4    4    0    0 -0.15507469296E+03 -0.35341775791E+03  0.79628519848E+03  0.88918839700E+03  0.87370567341E+02 0.  0.
         23    2    4    4    0    0  0.63976958424E+03 -0.49765383370E+03  0.48547648777E+03  0.94905846711E+03  0.89778030224E+02 0.  0.
          2    1    3    3  502    0 -0.21239931521E+02  0.47731161694E+02  0.42239574908E+02  0.67183183729E+02  0.00000000000E+00 0. -1.
         -1    1    3    3    0  502 -0.46345495976E+03  0.80334042991E+03  0.37127862127E+03  0.99899657691E+03  0.00000000000E+00 0.  1.
         13    1    5    5    0    0 -0.74202615878E+02 -0.25181635492E+03  0.58472248148E+03  0.64095076656E+03  0.00000000000E+00 0.  1.
        -13    1    5    5    0    0 -0.80872077079E+02 -0.10160140298E+03  0.21156271700E+03  0.24823763044E+03  0.00000000000E+00 0. -1.
          4    1    6    6  503    0  0.26548914842E+03 -0.16592869764E+03  0.22178082436E+03  0.38367115435E+03  0.00000000000E+00 0. -1.
         -4    1    6    6    0  503  0.37428043581E+03 -0.33172513606E+03  0.26369566342E+03  0.56538731276E+03  0.00000000000E+00 0.  1.
<mgrwt>
<rscale>  0 0.23583299E+04</rscale>
<asrwt>0</asrwt>
<pdfrwt beam="1">  1        2 0.35382357E+00 0.23583299E+04</pdfrwt>
<pdfrwt beam="2">  1       -1 0.93011289E-01 0.23583299E+04</pdfrwt>
<totfact> 0.52258207E+00</totfact>
</mgrwt>
</event>
<event>
12    7  0.1544987E-007  0.2785951E+04  0.7818608E-02  0.8307643E-01
          2   -1    0    0  501    0  0.00000000000E+00  0.00000000000E+00  0.15801207157E+04  0.15801207157E+04  0.00000000000E+00 0. -1.
         -1   -1    0    0    0  501 -0.00000000000E+00 -0.00000000000E+00 -0.12279951547E+04  0.12279951547E+04  0.00000000000E+00 0.  1.
         24    2    1    2    0    0  0.47144648607E+03  0.85821362423E+03  0.93570160663E+03  0.13567504954E+04  0.80262046135E+02 0.  0.
        254    2    1    2    0    0 -0.47144648607E+03 -0.85821362423E+03 -0.58357604565E+03  0.14513653751E+04  0.89839191721E+03 0.  0.
         23    2    4    4    0    0  0.36045495752E+02 -0.67340664764E+03 -0.59418047348E+03  0.90356539275E+03  0.92758789748E+02 0.  0.
         23    2    4    4    0    0 -0.50749198182E+03 -0.18480697659E+03  0.10604427825E+02  0.54779998234E+03  0.90943040118E+02 0.  0.
          4    1    3    3  502    0  0.42137477866E+03  0.77973486762E+03  0.87598592264E+03  0.12461518786E+04  0.00000000000E+00 0. -1.
         -3    1    3    3    0  502  0.50071707407E+02  0.78478756605E+02  0.59715683996E+02  0.11059861679E+03  0.00000000000E+00 0.  1.
         13    1    5    5    0    0  0.39162503467E+02 -0.66511402264E+03 -0.59664612424E+03  0.89436958936E+03  0.00000000000E+00 0. -1.
        -13    1    5    5    0    0 -0.31170077144E+01 -0.82926249939E+01  0.24656507669E+01  0.91958033953E+01  0.00000000000E+00 0.  1.
          2    1    6    6  503    0 -0.47058825034E+03 -0.14828423450E+03 -0.55328921678E+01  0.49342894976E+03  0.00000000000E+00 0. -1.
         -2    1    6    6    0  503 -0.36903731480E+02 -0.36522742095E+02  0.16137319993E+02  0.54371032580E+02  0.00000000000E+00 0.  1.
<mgrwt>
<rscale>  0 0.27859509E+04</rscale>
<asrwt>0</asrwt>
<pdfrwt beam="1">  1        2 0.24309550E+00 0.27859509E+04</pdfrwt>
<pdfrwt beam="2">  1       -1 0.18892233E+00 0.27859509E+04</pdfrwt>
<totfact> 0.20407478E+00</totfact>
</mgrwt>
</event>
<event>
12    7  0.1544987E-007  0.1366341E+04  0.7818608E-02  0.8978549E-01
         -1   -1    0    0    0  501 -0.00000000000E+00  0.00000000000E+00  0.26427832862E+03  0.26427832862E+03  0.00000000000E+00 0.  1.
          2   -1    0    0  501    0  0.00000000000E+00 -0.00000000000E+00 -0.17660247370E+04  0.17660247370E+04  0.00000000000E+00 0. -1.
         24    2    1    2    0    0  0.33750948637E+03 -0.10374952119E+03 -0.67742486530E+03  0.76803663221E+03  0.79367523263E+02 0.  0.
        254    2    1    2    0    0 -0.33750948637E+03  0.10374952119E+03 -0.82432154307E+03  0.12622664334E+04  0.88833210343E+03 0.  0.
         23    2    4    4    0    0 -0.36913564358E+03 -0.16107278509E+03 -0.88251857180E+03  0.97434575973E+03  0.91132126468E+02 0.  0.
         23    2    4    4    0    0  0.31626157210E+02  0.26482230628E+03  0.58197028722E+02  0.28792067367E+03  0.91544264994E+02 0.  0.
          4    1    3    3  502    0  0.28149687608E+03 -0.10043069846E+03 -0.61700001025E+03  0.68557700449E+03  0.00000000000E+00 0. -1.
         -3    1    3    3    0  502  0.56012610290E+02 -0.33188227334E+01 -0.60424855055E+02  0.82459627723E+02  0.00000000000E+00 0.  1.
         13    1    5    5    0    0 -0.27516360353E+03 -0.87619977593E+02 -0.68834080168E+03  0.74646187340E+03  0.00000000000E+00 0. -1.
        -13    1    5    5    0    0 -0.93972040048E+02 -0.73452807500E+02 -0.19417777012E+03  0.22788388633E+03  0.00000000000E+00 0.  1.
          3    1    6    6  503    0 -0.16931932293E+02  0.12807368578E+03 -0.58073727288E+01  0.12931854043E+03  0.00000000000E+00 0. -1.
         -3    1    6    6    0  503  0.48558089503E+02  0.13674862050E+03  0.64004401451E+02  0.15860213324E+03  0.00000000000E+00 0.  1.
<mgrwt>
<rscale>  0 0.13663412E+04</rscale>
<asrwt>0</asrwt>
<pdfrwt beam="1">  1        2 0.27169611E+00 0.13663412E+04</pdfrwt>
<pdfrwt beam="2">  1       -1 0.40658205E-01 0.13663412E+04</pdfrwt>
<totfact> 0.59211946E+01</totfact>
</mgrwt>
</event>
<event>
12    7  0.1544987E-007  0.1681558E+04  0.7818608E-02  0.8771953E-01
         -1   -1    0    0    0  501 -0.00000000000E+00  0.00000000000E+00  0.80105756563E+03  0.80105756563E+03  0.00000000000E+00 0.  1.
          2   -1    0    0  501    0  0.00000000000E+00 -0.00000000000E+00 -0.88247025536E+03  0.88247025536E+03  0.00000000000E+00 0. -1.
         24    2    1    2    0    0 -0.14056844607E+03  0.50105003583E+03  0.13869971259E+02  0.52657912706E+03  0.79262693069E+02 0.  0.
        254    2    1    2    0    0  0.14056844607E+03 -0.50105003583E+03 -0.95282660991E+02  0.11569486939E+04  0.10289027498E+04 0.  0.
         23    2    4    4    0    0 -0.20696702025E+03  0.15995366860E+03  0.20637404488E+03  0.34634059841E+03  0.94557073436E+02 0.  0.
         23    2    4    4    0    0  0.34753546633E+03 -0.66100370444E+03 -0.30165670587E+03  0.81060809551E+03  0.91552819098E+02 0.  0.
          4    1    3    3  502    0 -0.58265937330E+01  0.73259323469E+01  0.11455328477E+02  0.14793344105E+02  0.00000000000E+00 0. -1.
         -3    1    3    3    0  502 -0.13474185234E+03  0.49372410349E+03  0.24146427820E+01  0.51178578296E+03  0.00000000000E+00 0.  1.
         13    1    5    5    0    0 -0.38415591863E+02  0.82745295641E+02  0.85444363139E+02  0.12499312318E+03  0.00000000000E+00 0.  1.
        -13    1    5    5    0    0 -0.16855142839E+03  0.77208372961E+02  0.12092968174E+03  0.22134747524E+03  0.00000000000E+00 0. -1.
          4    1    6    6  503    0  0.15714492636E+02 -0.14419725197E+02  0.48311241604E+01  0.21868093521E+02  0.00000000000E+00 0. -1.
         -4    1    6    6    0  503  0.33182097369E+03 -0.64658397924E+03 -0.30648783003E+03  0.78874000199E+03  0.00000000000E+00 0.  1.
<mgrwt>
<rscale>  0 0.16815582E+04</rscale>
<asrwt>0</asrwt>
<pdfrwt beam="1">  1        2 0.13576465E+00 0.16815582E+04</pdfrwt>
<pdfrwt beam="2">  1       -1 0.12323963E+00 0.16815582E+04</pdfrwt>
<totfact> 0.19005712E+01</totfact>
</mgrwt>
</event>
<event>
12    7  0.1544987E-007  0.2362458E+04  0.7818608E-02  0.8453694E-01
          2   -1    0    0  501    0  0.00000000000E+00  0.00000000000E+00  0.12461028900E+04  0.12461028900E+04  0.00000000000E+00 0. -1.
         -1   -1    0    0    0  501 -0.00000000000E+00 -0.00000000000E+00 -0.11197327686E+04  0.11197327686E+04  0.00000000000E+00 0.  1.
         24    2    1    2    0    0 -0.15086968621E+03  0.49827582956E+03  0.92078517411E+03  0.10608620812E+04  0.80886055520E+02 0.  0.
        254    2    1    2    0    0  0.15086968621E+03 -0.49827582956E+03 -0.79441505264E+03  0.13049735774E+04  0.89488563361E+03 0.  0.
         23    2    4    4    0    0 -0.33656512567E+03 -0.12136390847E+03 -0.12471520274E+03  0.39025848674E+03  0.93501457644E+02 0.  0.
         23    2    4    4    0    0  0.48743481188E+03 -0.37691192109E+03 -0.66969984990E+03  0.91471509063E+03  0.92469000138E+02 0.  0.
          2    1    3    3  502    0 -0.12292218972E+03  0.45875340131E+03  0.79469069979E+03  0.92579579620E+03  0.00000000000E+00 0. -1.
         -1    1    3    3    0  502 -0.27947496489E+02  0.39522428256E+02  0.12609447433E+03  0.13506628503E+03  0.00000000000E+00 0.  1.
         13    1    5    5    0    0 -0.24927685758E+03 -0.10162337887E+03 -0.13323202824E+03  0.30036150920E+03  0.00000000000E+00 0.  1.
        -13    1    5    5    0    0 -0.87288268091E+02 -0.19740529595E+02  0.85168254951E+01  0.89896977544E+02  0.00000000000E+00 0. -1.
          1    1    6    6  503    0  0.83292186065E+02 -0.62679648141E+02 -0.66880463690E+02  0.12385202047E+03  0.00000000000E+00 0. -1.
         -1    1    6    6    0  503  0.40414262582E+03 -0.31423227295E+03 -0.60281938621E+03  0.79086307017E+03  0.00000000000E+00 0.  1.
<mgrwt>
<rscale>  0 0.23624582E+04</rscale>
<asrwt>0</asrwt>
<pdfrwt beam="1">  1        2 0.19170814E+00 0.23624582E+04</pdfrwt>
<pdfrwt beam="2">  1       -1 0.17226658E+00 0.23624582E+04</pdfrwt>
<totfact> 0.43292676E+00</totfact>
</mgrwt>
</event>
<event>
12    7  0.1544987E-007  0.1725806E+04  0.7818608E-02  0.8746782E-01
         -1   -1    0    0    0  501 -0.00000000000E+00  0.00000000000E+00  0.18417391231E+04  0.18417391231E+04  0.00000000000E+00 0.  1.
          2   -1    0    0  501    0  0.00000000000E+00 -0.00000000000E+00 -0.40429270217E+03  0.40429270217E+03  0.00000000000E+00 0. -1.
         24    2    1    2    0    0  0.38653171376E+03  0.33277469903E+03  0.99847196542E+03  0.11240765313E+04  0.80349340185E+02 0.  0.
        254    2    1    2    0    0 -0.38653171376E+03 -0.33277469903E+03  0.43897445549E+03  0.11219552939E+04  0.89774124500E+03 0.  0.
         23    2    4    4    0    0 -0.50261374684E+02  0.15502259513E+03 -0.18020582240E+03  0.26014293887E+03  0.92962354894E+02 0.  0.
         23    2    4    4    0    0 -0.33627033907E+03 -0.48779729416E+03  0.61918027789E+03  0.86181235508E+03  0.91172241947E+02 0.  0.
          4    1    3    3  502    0  0.54904920311E+02  0.72264331937E+02  0.23432425989E+03  0.25128577898E+03  0.00000000000E+00 0. -1.
         -3    1    3    3    0  502  0.33162679344E+03  0.26051036709E+03  0.76414770553E+03  0.87279075233E+03  0.00000000000E+00 0.  1.
         13    1    5    5    0    0 -0.16674952297E+02  0.12777353255E+03 -0.17389675230E+03  0.21643523307E+03  0.00000000000E+00 0. -1.
        -13    1    5    5    0    0 -0.33586422387E+02  0.27249062588E+02 -0.63090701045E+01  0.43707705799E+02  0.00000000000E+00 0.  1.
          4    1    6    6  503    0 -0.28563049774E+03 -0.37253781806E+03  0.44447501885E+03  0.64647293022E+03  0.00000000000E+00 0. -1.
         -4    1    6    6    0  503 -0.50639841333E+02 -0.11525947610E+03  0.17470525904E+03  0.21533942486E+03  0.00000000000E+00 0.  1.
<mgrwt>
<rscale>  0 0.17258061E+04</rscale>
<asrwt>0</asrwt>
<pdfrwt beam="1">  1        2 0.62198878E-01 0.17258061E+04</pdfrwt>
<pdfrwt beam="2">  1       -1 0.28334448E+00 0.17258061E+04</pdfrwt>
<totfact> 0.36158947E+00</totfact>
</mgrwt>
</event>
<event>
12    7  0.1544987E-007  0.1720915E+04  0.7818608E-02  0.8749525E-01
         -1   -1    0    0    0  501 -0.00000000000E+00  0.00000000000E+00  0.49395619878E+03  0.49395619878E+03  0.00000000000E+00 0.  1.
          2   -1    0    0  501    0  0.00000000000E+00 -0.00000000000E+00 -0.14988916094E+04  0.14988916094E+04  0.00000000000E+00 0. -1.
         24    2    1    2    0    0 -0.36603209204E+03  0.41765663479E+03 -0.68959031848E+03  0.88903154903E+03  0.80160656483E+02 0.  0.
        254    2    1    2    0    0  0.36603209204E+03 -0.41765663479E+03 -0.31534509218E+03  0.11038162592E+04  0.90030619785E+03 0.  0.
         23    2    4    4    0    0  0.36733565460E+03 -0.26884302642E+03  0.23994419216E+03  0.52166594758E+03  0.85732663068E+02 0.  0.
         23    2    4    4    0    0 -0.13035625529E+01 -0.14881360836E+03 -0.55528928434E+03  0.58215031161E+03  0.91682095850E+02 0.  0.
          4    1    3    3  502    0 -0.33410756783E+03  0.39688403859E+03 -0.66605291820E+03  0.84425783787E+03  0.00000000000E+00 0. -1.
         -1    1    3    3    0  502 -0.31924524212E+02  0.20772596202E+02 -0.23537400277E+02  0.44773711159E+02  0.00000000000E+00 0.  1.
         13    1    5    5    0    0  0.61035159448E+02 -0.88167204680E+02  0.64354774123E+02  0.12506111955E+03  0.00000000000E+00 0.  1.
        -13    1    5    5    0    0  0.30630049515E+03 -0.18067582174E+03  0.17558941803E+03  0.39660482803E+03  0.00000000000E+00 0. -1.
          1    1    6    6  503    0 -0.43984951736E+02 -0.47002233036E+02 -0.19983590470E+03  0.20994826672E+03  0.00000000000E+00 0. -1.
         -1    1    6    6    0  503  0.42681389184E+02 -0.10181137533E+03 -0.35545337963E+03  0.37220204489E+03  0.00000000000E+00 0.  1.
<mgrwt>
<rscale>  0 0.17209146E+04</rscale>
<asrwt>0</asrwt>
<pdfrwt beam="1">  1        2 0.23059871E+00 0.17209146E+04</pdfrwt>
<pdfrwt beam="2">  1       -1 0.75993262E-01 0.17209146E+04</pdfrwt>
<totfact> 0.23933242E+01</totfact>
</mgrwt>
</event>
<event>
12    7  0.1544987E-007  0.1453157E+04  0.7818608E-02  0.8916215E-01
         -1   -1    0    0    0  501 -0.00000000000E+00  0.00000000000E+00  0.68907835193E+03  0.68907835193E+03  0.00000000000E+00 0.  1.
          2   -1    0    0  501    0  0.00000000000E+00 -0.00000000000E+00 -0.76611949742E+03  0.76611949742E+03  0.00000000000E+00 0. -1.
         24    2    1    2    0    0 -0.20529896142E+03 -0.34234913473E+03  0.16549664940E+03  0.43956602308E+03  0.80489465619E+02 0.  0.
        254    2    1    2    0    0  0.20529896142E+03  0.34234913473E+03 -0.24253779489E+03  0.10156318263E+04  0.90184967204E+03 0.  0.
         23    2    4    4    0    0  0.37101255057E+03 -0.12921267743E+03  0.84400048726E+02  0.41157137422E+03  0.89002242435E+02 0.  0.
         23    2    4    4    0    0 -0.16571358915E+03  0.47156181216E+03 -0.32693784362E+03  0.60406045205E+03  0.90383293944E+02 0.  0.
          2    1    3    3  502    0  0.61017596295E+01 -0.83193119658E+01 -0.15162911026E+01  0.10427922174E+02  0.00000000000E+00 0. -1.
         -1    1    3    3    0  502 -0.21140072105E+03 -0.33402982276E+03  0.16701294050E+03  0.42913810091E+03  0.00000000000E+00 0.  1.
         13    1    5    5    0    0  0.63288991201E+02  0.85514204117E+01 -0.60365340461E+00  0.63866952298E+02  0.00000000000E+00 0. -1.
        -13    1    5    5    0    0  0.30772355937E+03 -0.13776409784E+03  0.85003702130E+02  0.34770442192E+03  0.00000000000E+00 0.  1.
          4    1    6    6  503    0 -0.46128993140E+01 -0.34830932926E+01 -0.70813023484E+01  0.91408764304E+01  0.00000000000E+00 0. -1.
         -4    1    6    6    0  503 -0.16110068984E+03  0.47504490545E+03 -0.31985654127E+03  0.59491957562E+03  0.00000000000E+00 0.  1.
<mgrwt>
<rscale>  0 0.14531571E+04</rscale>
<asrwt>0</asrwt>
<pdfrwt beam="1">  1        2 0.11786454E+00 0.14531571E+04</pdfrwt>
<pdfrwt beam="2">  1       -1 0.10601205E+00 0.14531571E+04</pdfrwt>
<totfact> 0.33629271E+01</totfact>
</mgrwt>
</event>
<event>
12    7  0.1544987E-007  0.3602898E+04  0.7818608E-02  0.8089828E-01
          2   -1    0    0  501    0  0.00000000000E+00  0.00000000000E+00  0.23257052995E+04  0.23257052995E+04  0.00000000000E+00 0. -1.
         -1   -1    0    0    0  501 -0.00000000000E+00 -0.00000000000E+00 -0.13953698764E+04  0.13953698764E+04  0.00000000000E+00 0.  1.
         24    2    1    2    0    0 -0.95142253883E+03  0.13890396687E+04  0.54853395994E+03  0.17723881768E+04  0.76382558117E+02 0.  0.
        254    2    1    2    0    0  0.95142253883E+03 -0.13890396687E+04  0.38180146319E+03  0.19486869992E+04  0.90386537432E+03 0.  0.
         23    2    4    4    0    0  0.52321530175E+03 -0.12808402276E+04  0.51426284048E+03  0.14787572311E+04  0.89166916161E+02 0.  0.
         23    2    4    4    0    0  0.42820723708E+03 -0.10819944114E+03 -0.13246137728E+03  0.46992976808E+03  0.90660981128E+02 0.  0.
          2    1    3    3  502    0 -0.36571077911E+03  0.59070068865E+03  0.20559283355E+03  0.72452749481E+03  0.00000000000E+00 0. -1.
         -1    1    3    3    0  502 -0.58571175973E+03  0.79833898008E+03  0.34294112639E+03  0.10478606819E+04  0.00000000000E+00 0.  1.
         13    1    5    5    0    0  0.60568237058E+02 -0.92567634261E+02  0.53753195622E+02  0.12299058620E+03  0.00000000000E+00 0. -1.
        -13    1    5    5    0    0  0.46264706469E+03 -0.11882725933E+04  0.46050964486E+03  0.13557666449E+04  0.00000000000E+00 0.  1.
          1    1    6    6  503    0  0.18162148453E+03 -0.80051175217E+02 -0.90824632676E+02  0.21827429578E+03  0.00000000000E+00 0. -1.
         -1    1    6    6    0  503  0.24658575255E+03 -0.28148265926E+02 -0.41636744608E+02  0.25165547230E+03  0.00000000000E+00 0.  1.
<mgrwt>
<rscale>  0 0.36028983E+04</rscale>
<asrwt>0</asrwt>
<pdfrwt beam="1">  1        2 0.35780081E+00 0.36028983E+04</pdfrwt>
<pdfrwt beam="2">  1       -1 0.21467229E+00 0.36028983E+04</pdfrwt>
<totfact> 0.48531246E-01</totfact>
</mgrwt>
</event>
<event>
12    7  0.1544987E-007  0.1884787E+04  0.7818608E-02  0.8662466E-01
          2   -1    0    0  501    0  0.00000000000E+00  0.00000000000E+00  0.21472096444E+04  0.21472096444E+04  0.00000000000E+00 0. -1.
         -1   -1    0    0    0  501 -0.00000000000E+00 -0.00000000000E+00 -0.41360909887E+03  0.41360909887E+03  0.00000000000E+00 0.  1.
         24    2    1    2    0    0  0.86571293974E+02 -0.50278197122E+01  0.17633005973E+04  0.17671604859E+04  0.78149335427E+02 0.  0.
        254    2    1    2    0    0 -0.86571293974E+02  0.50278197122E+01 -0.29700051790E+02  0.79365825734E+03  0.78834730193E+03 0.  0.
         23    2    4    4    0    0 -0.24936193471E+03 -0.70041383556E+02 -0.33206681425E+03  0.43080040640E+03  0.90738366366E+02 0.  0.
         23    2    4    4    0    0  0.16279064073E+03  0.75069203268E+02  0.30236676247E+03  0.36285785094E+03  0.90022124822E+02 0.  0.
          4    1    3    3  502    0  0.76799903204E+02 -0.11140022797E+02  0.17330809082E+04  0.17348175004E+04  0.00000000000E+00 0. -1.
         -3    1    3    3    0  502  0.97713907702E+01  0.61122030848E+01  0.30219689058E+02  0.32342985497E+02  0.00000000000E+00 0.  1.
         13    1    5    5    0    0 -0.19403018969E+03 -0.86496572820E+02 -0.22686150764E+03  0.31079819058E+03  0.00000000000E+00 0.  1.
        -13    1    5    5    0    0 -0.55331745021E+02  0.16455189264E+02 -0.10520530662E+03  0.12000221582E+03  0.00000000000E+00 0. -1.
          4    1    6    6  503    0 -0.33170474452E-02  0.14988825726E+02  0.89938737897E+00  0.15015785205E+02  0.00000000000E+00 0. -1.
         -4    1    6    6    0  503  0.16279395778E+03  0.60080377542E+02  0.30146737509E+03  0.34784206574E+03  0.00000000000E+00 0.  1.
<mgrwt>
<rscale>  0 0.18847869E+04</rscale>
<asrwt>0</asrwt>
<pdfrwt beam="1">  1        2 0.33033994E+00 0.18847869E+04</pdfrwt>
<pdfrwt beam="2">  1       -1 0.63632170E-01 0.18847869E+04</pdfrwt>
<totfact> 0.14787351E+01</totfact>
</mgrwt>
</event>
<event>
12    7  0.1544987E-007  0.2119078E+04  0.7818608E-02  0.8552885E-01
         -1   -1    0    0    0  501 -0.00000000000E+00  0.00000000000E+00  0.86756954695E+03  0.86756954695E+03  0.00000000000E+00 0.  1.
          2   -1    0    0  501    0  0.00000000000E+00 -0.00000000000E+00 -0.12939866297E+04  0.12939866297E+04  0.00000000000E+00 0. -1.
         24    2    1    2    0    0 -0.79461085169E+03  0.34228564572E+03 -0.10396968565E+03  0.87518601519E+03  0.81086353698E+02 0.  0.
        254    2    1    2    0    0  0.79461085169E+03 -0.34228564572E+03 -0.32244739711E+03  0.12863701615E+04  0.89566176627E+03 0.  0.
         23    2    4    4    0    0  0.24328774179E+03  0.17359193566E+03 -0.41585729135E+03  0.52060162443E+03  0.93625205766E+02 0.  0.
         23    2    4    4    0    0  0.55132310990E+03 -0.51587758138E+03  0.93409894248E+02  0.76576853705E+03  0.87115977315E+02 0.  0.
          4    1    3    3  502    0 -0.74983595379E+03  0.31703104539E+03 -0.11617765823E+03  0.82235022321E+03  0.00000000000E+00 0. -1.
         -1    1    3    3    0  502 -0.44774897900E+02  0.25254600326E+02  0.12207972577E+02  0.52835791979E+02  0.00000000000E+00 0.  1.
         13    1    5    5    0    0  0.14224119911E+03  0.13283372592E+03 -0.20149892023E+03  0.28014134347E+03  0.00000000000E+00 0. -1.
        -13    1    5    5    0    0  0.10104654268E+03  0.40758209742E+02 -0.21435837113E+03  0.24046028096E+03  0.00000000000E+00 0.  1.
          2    1    6    6  503    0  0.24186966357E+03 -0.28176953135E+03  0.29528277272E+02  0.37251432471E+03  0.00000000000E+00 0. -1.
         -2    1    6    6    0  503  0.30945344633E+03 -0.23410805003E+03  0.63881616976E+02  0.39325421234E+03  0.00000000000E+00 0.  1.
<mgrwt>
<rscale>  0 0.21190785E+04</rscale>
<asrwt>0</asrwt>
<pdfrwt beam="1">  1        2 0.19907486E+00 0.21190785E+04</pdfrwt>
<pdfrwt beam="2">  1       -1 0.13347224E+00 0.21190785E+04</pdfrwt>
<totfact> 0.82900271E+00</totfact>
</mgrwt>
</event>
<event>
12    7  0.1544987E-007  0.1988610E+04  0.7818608E-02  0.8611965E-01
         -1   -1    0    0    0  501 -0.00000000000E+00  0.00000000000E+00  0.10542782193E+04  0.10542782193E+04  0.00000000000E+00 0.  1.
          2   -1    0    0  501    0  0.00000000000E+00 -0.00000000000E+00 -0.93774309537E+03  0.93774309537E+03  0.00000000000E+00 0. -1.
         24    2    1    2    0    0  0.41382288282E+03  0.51619344710E+02 -0.62526024370E+03  0.75566268360E+03  0.78497031432E+02 0.  0.
        254    2    1    2    0    0 -0.41382288282E+03 -0.51619344710E+02  0.74179536766E+03  0.12363586311E+04  0.89688815474E+03 0.  0.
         23    2    4    4    0    0  0.17329625020E+03 -0.20281853979E+03  0.50655155717E+03  0.57964229787E+03  0.90684965640E+02 0.  0.
         23    2    4    4    0    0 -0.58711913302E+03  0.15119919508E+03  0.23524381049E+03  0.65671633323E+03  0.91469224334E+02 0.  0.
          2    1    3    3  502    0  0.34314254352E+03  0.66040332194E+02 -0.48292231129E+03  0.59608899452E+03  0.00000000000E+00 0. -1.
         -1    1    3    3    0  502  0.70680339297E+02 -0.14420987484E+02 -0.14233793241E+03  0.15957368908E+03  0.00000000000E+00 0.  1.
         13    1    5    5    0    0 -0.46317114452E+01 -0.22864847062E+02  0.18100499706E+02  0.29527649274E+02  0.00000000000E+00 0. -1.
        -13    1    5    5    0    0  0.17792796165E+03 -0.17995369273E+03  0.48845105746E+03  0.55011464859E+03  0.00000000000E+00 0.  1.
          1    1    6    6  503    0 -0.12536530511E+03  0.14215223846E+00  0.27591456154E+02  0.12836576018E+03  0.00000000000E+00 0. -1.
         -1    1    6    6    0  503 -0.46175382791E+03  0.15105704284E+03  0.20765235434E+03  0.52835057305E+03  0.00000000000E+00 0.  1.
<mgrwt>
<rscale>  0 0.19886097E+04</rscale>
<asrwt>0</asrwt>
<pdfrwt beam="1">  1        2 0.14426817E+00 0.19886097E+04</pdfrwt>
<pdfrwt beam="2">  1       -1 0.16219665E+00 0.19886097E+04</pdfrwt>
<totfact> 0.82548338E+00</totfact>
</mgrwt>
</event>
<event>
12    7  0.1544987E-007  0.1524245E+04  0.7818608E-02  0.8868489E-01
          4   -1    0    0  501    0  0.00000000000E+00  0.00000000000E+00  0.17256698823E+04  0.17256698823E+04  0.00000000000E+00 0. -1.
         -3   -1    0    0    0  501 -0.00000000000E+00 -0.00000000000E+00 -0.33658265871E+03  0.33658265871E+03  0.00000000000E+00 0.  1.
         24    2    1    2    0    0  0.14504626007E+03  0.41748207096E+03  0.74218895181E+03  0.86760126278E+03  0.80980330086E+02 0.  0.
        254    2    1    2    0    0 -0.14504626007E+03 -0.41748207096E+03  0.64689827180E+03  0.11946512783E+04  0.90187837619E+03 0.  0.
         23    2    4    4    0    0  0.74004008884E+02  0.25776354368E+03  0.13452148057E+03  0.31325783781E+03  0.90087770712E+02 0.  0.
         23    2    4    4    0    0 -0.21905026895E+03 -0.67524561464E+03  0.51237679123E+03  0.88139344044E+03  0.10190564386E+03 0.  0.
          4    1    3    3  502    0  0.10943936848E+03  0.35548706867E+03  0.66798640960E+03  0.76456123024E+03  0.00000000000E+00 0. -1.
         -3    1    3    3    0  502  0.35606891584E+02  0.61995002288E+02  0.74202542204E+02  0.10304003254E+03  0.00000000000E+00 0.  1.
         13    1    5    5    0    0  0.81089068126E+02  0.26150785212E+03  0.12547964141E+03  0.30117591885E+03  0.00000000000E+00 0. -1.
        -13    1    5    5    0    0 -0.70850592425E+01 -0.37443084397E+01  0.90418391626E+01  0.12081918954E+02  0.00000000000E+00 0.  1.
          1    1    6    6  503    0 -0.11584766692E+03 -0.50468813004E+03  0.36969225218E+03  0.63624142576E+03  0.00000000000E+00 0. -1.
         -1    1    6    6    0  503 -0.10320260203E+03 -0.17055748460E+03  0.14268453906E+03  0.24515201469E+03  0.00000000000E+00 0.  1.
<mgrwt>
<rscale>  0 0.15242448E+04</rscale>
<asrwt>0</asrwt>
<pdfrwt beam="1">  1        4 0.26548767E+00 0.15242448E+04</pdfrwt>
<pdfrwt beam="2">  1       -3 0.51781949E-01 0.15242448E+04</pdfrwt>
<totfact> 0.41309722E-01</totfact>
</mgrwt>
</event>
<event>
12    7  0.1544987E-007  0.1126227E+04  0.7818608E-02  0.9180000E-01
         -1   -1    0    0    0  501 -0.00000000000E+00  0.00000000000E+00  0.90943004031E+03  0.90943004031E+03  0.00000000000E+00 0.  1.
          2   -1    0    0  501    0  0.00000000000E+00 -0.00000000000E+00 -0.34867631073E+03  0.34867631073E+03  0.00000000000E+00 0. -1.
         24    2    1    2    0    0 -0.11910252508E+03  0.13387235691E+03  0.10537283762E+03  0.22291368432E+03  0.80497554763E+02 0.  0.
        254    2    1    2    0    0  0.11910252508E+03 -0.13387235691E+03  0.45538089196E+03  0.10351926667E+04  0.91221975479E+03 0.  0.
         23    2    4    4    0    0  0.13466693846E+03 -0.46577979907E+03  0.48301237076E+03  0.68946803324E+03  0.83541684277E+02 0.  0.
         23    2    4    4    0    0 -0.15564413377E+02  0.33190744217E+03 -0.27631478799E+02  0.34572463348E+03  0.91417845327E+02 0.  0.
          2    1    3    3  502    0 -0.79982306422E+02  0.13435978236E+03  0.92758023780E+02  0.18180696200E+03  0.00000000000E+00 0. -1.
         -1    1    3    3    0  502 -0.39120218660E+02 -0.48742544939E+00  0.12614813843E+02  0.41106722320E+02  0.00000000000E+00 0.  1.
         13    1    5    5    0    0  0.13462516202E+03 -0.33731217042E+03  0.36804037252E+03  0.51706590525E+03  0.00000000000E+00 0. -1.
        -13    1    5    5    0    0  0.41776434347E-01 -0.12846762865E+03  0.11497199824E+03  0.17240212799E+03  0.00000000000E+00 0.  1.
          2    1    6    6  503    0 -0.92729781125E+01  0.32415356823E+03 -0.43280193068E+02  0.32716157939E+03  0.00000000000E+00 0. -1.
         -2    1    6    6    0  503 -0.62914352649E+01  0.77538739375E+01  0.15648714269E+02  0.18563054086E+02  0.00000000000E+00 0.  1.
<mgrwt>
<rscale>  0 0.11262268E+04</rscale>
<asrwt>0</asrwt>
<pdfrwt beam="1">  1        2 0.53642509E-01 0.11262268E+04</pdfrwt>
<pdfrwt beam="2">  1       -1 0.13991231E+00 0.11262268E+04</pdfrwt>
<totfact> 0.44242319E+01</totfact>
</mgrwt>
</event>
<event>
12    7  0.1544987E-007  0.1616051E+04  0.7818608E-02  0.8810748E-01
          2   -1    0    0  501    0  0.00000000000E+00  0.00000000000E+00  0.15709666501E+04  0.15709666501E+04  0.00000000000E+00 0. -1.
         -1   -1    0    0    0  501 -0.00000000000E+00 -0.00000000000E+00 -0.41560716292E+03  0.41560716292E+03  0.00000000000E+00 0.  1.
         24    2    1    2    0    0 -0.39706921902E+03  0.19744499557E+03 -0.31530637980E+01  0.45059726348E+03  0.79871528576E+02 0.  0.
        254    2    1    2    0    0  0.39706921902E+03 -0.19744499557E+03  0.11585125509E+04  0.15359765495E+04  0.90577267511E+03 0.  0.
         23    2    4    4    0    0  0.22467396130E+03 -0.42509057805E+03  0.11338542231E+04  0.12349926611E+04  0.91657434726E+02 0.  0.
         23    2    4    4    0    0  0.17239525772E+03  0.22764558248E+03  0.24658327808E+02  0.30098388836E+03  0.91872911194E+02 0.  0.
          2    1    3    3  502    0 -0.18239241580E+03  0.47016300848E+02 -0.59092931713E+01  0.18844746120E+03  0.00000000000E+00 0. -1.
         -1    1    3    3    0  502 -0.21467680322E+03  0.15042869472E+03  0.27562293733E+01  0.26214980228E+03  0.00000000000E+00 0.  1.
         13    1    5    5    0    0  0.67968916715E+02 -0.15046051440E+03  0.50175783074E+03  0.52822254850E+03  0.00000000000E+00 0. -1.
        -13    1    5    5    0    0  0.15670504458E+03 -0.27463006365E+03  0.63209639239E+03  0.70677011264E+03  0.00000000000E+00 0.  1.
          1    1    6    6  503    0  0.73293105920E+02  0.10553082362E+03  0.56773621283E+02  0.14047020389E+03  0.00000000000E+00 0. -1.
         -1    1    6    6    0  503  0.99102151801E+02  0.12211475887E+03 -0.32115293475E+02  0.16051368446E+03  0.00000000000E+00 0.  1.
<mgrwt>
<rscale>  0 0.16160507E+04</rscale>
<asrwt>0</asrwt>
<pdfrwt beam="1">  1        2 0.24168717E+00 0.16160507E+04</pdfrwt>
<pdfrwt beam="2">  1       -1 0.63939564E-01 0.16160507E+04</pdfrwt>
<totfact> 0.31339314E+01</totfact>
</mgrwt>
</event>
<event>
12    7  0.1544987E-007  0.2801255E+04  0.7818608E-02  0.8302879E-01
          2   -1    0    0  501    0  0.00000000000E+00  0.00000000000E+00  0.13469383820E+04  0.13469383820E+04  0.00000000000E+00 0. -1.
         -1   -1    0    0    0  501 -0.00000000000E+00 -0.00000000000E+00 -0.14564561916E+04  0.14564561916E+04  0.00000000000E+00 0.  1.
         24    2    1    2    0    0 -0.11006877550E+04  0.61095647356E+03  0.10947211181E+03  0.12664842235E+04  0.84951743554E+02 0.  0.
        254    2    1    2    0    0  0.11006877550E+04 -0.61095647356E+03 -0.21898992136E+03  0.15369103500E+04  0.85402312142E+03 0.  0.
         23    2    4    4    0    0  0.81945251110E+03 -0.69916744203E+03  0.10945891340E+03  0.10861180324E+04  0.85636420657E+02 0.  0.
         23    2    4    4    0    0  0.28123524386E+03  0.88210968472E+02 -0.32844883476E+03  0.45079231769E+03  0.91981733434E+02 0.  0.
          4    1    3    3  502    0 -0.89573723162E+03  0.48873568036E+03  0.12120627002E+03  0.10275693228E+04  0.00000000000E+00 0. -1.
         -3    1    3    3    0  502 -0.20495052334E+03  0.12222079320E+03 -0.11734158217E+02  0.23891490070E+03  0.00000000000E+00 0.  1.
         13    1    5    5    0    0  0.80547520984E+03 -0.67695537748E+03  0.11740233707E+03  0.10586983544E+04  0.00000000000E+00 0. -1.
        -13    1    5    5    0    0  0.13977301257E+02 -0.22212064553E+02 -0.79434236643E+01  0.27419678000E+02  0.00000000000E+00 0.  1.
          3    1    6    6  503    0  0.23206292095E+03  0.95778044382E+02 -0.30709137714E+03  0.39665066114E+03  0.00000000000E+00 0. -1.
         -3    1    6    6    0  503  0.49172322918E+02 -0.75670759100E+01 -0.21357457620E+02  0.54141656559E+02  0.00000000000E+00 0.  1.
<mgrwt>
<rscale>  0 0.28012545E+04</rscale>
<asrwt>0</asrwt>
<pdfrwt beam="1">  1        2 0.20722129E+00 0.28012545E+04</pdfrwt>
<pdfrwt beam="2">  1       -1 0.22407018E+00 0.28012545E+04</pdfrwt>
<totfact> 0.15904668E+00</totfact>
</mgrwt>
</event>
<event>
12    7  0.1544987E-007  0.3054266E+04  0.7818608E-02  0.8228403E-01
         -1   -1    0    0    0  501 -0.00000000000E+00  0.00000000000E+00  0.73266172924E+03  0.73266172924E+03  0.00000000000E+00 0.  1.
          2   -1    0    0  501    0  0.00000000000E+00 -0.00000000000E+00 -0.31830986443E+04  0.31830986443E+04  0.00000000000E+00 0. -1.
         24    2    1    2    0    0 -0.82811463768E+03  0.70052831460E+03 -0.22364171229E+04  0.24870120496E+04  0.84579044602E+02 0.  0.
        254    2    1    2    0    0  0.82811463768E+03 -0.70052831460E+03 -0.21401979217E+03  0.14287483239E+04  0.90498813745E+03 0.  0.
         23    2    4    4    0    0  0.82147449330E+03 -0.64347184353E+03  0.14189035760E+03  0.10570160802E+04  0.90960231321E+02 0.  0.
         23    2    4    4    0    0  0.66401443785E+01 -0.57056471071E+02 -0.35591014976E+03  0.37173224369E+03  0.90627224882E+02 0.  0.
          2    1    3    3  502    0 -0.54308527693E+03  0.49884294658E+03 -0.14583035681E+04  0.16341466275E+04  0.00000000000E+00 0. -1.
         -1    1    3    3    0  502 -0.28502936075E+03  0.20168536802E+03 -0.77811355477E+03  0.85286542214E+03  0.00000000000E+00 0.  1.
         13    1    5    5    0    0  0.52292729864E+03 -0.42893346377E+03  0.13286708939E+03  0.68926811870E+03  0.00000000000E+00 0.  1.
        -13    1    5    5    0    0  0.29854719466E+03 -0.21453837975E+03  0.90232682085E+01  0.36774796151E+03  0.00000000000E+00 0. -1.
          1    1    6    6  503    0  0.28456238719E+01 -0.29568341608E+02 -0.22743223981E+02  0.37411744649E+02  0.00000000000E+00 0. -1.
         -1    1    6    6    0  503  0.37945205066E+01 -0.27488129463E+02 -0.33316692578E+03  0.33432049904E+03  0.00000000000E+00 0.  1.
<mgrwt>
<rscale>  0 0.30542656E+04</rscale>
<asrwt>0</asrwt>
<pdfrwt beam="1">  1        2 0.48970748E+00 0.30542656E+04</pdfrwt>
<pdfrwt beam="2">  1       -1 0.11271719E+00 0.30542656E+04</pdfrwt>
<totfact> 0.92661234E-01</totfact>
</mgrwt>
</event>
<event>
12    7  0.1544987E-007  0.2693644E+04  0.7818608E-02  0.8337070E-01
          2   -1    0    0  501    0  0.00000000000E+00  0.00000000000E+00  0.23294462874E+04  0.23294462874E+04  0.00000000000E+00 0. -1.
         -1   -1    0    0    0  501 -0.00000000000E+00 -0.00000000000E+00 -0.77869545689E+03  0.77869545689E+03  0.00000000000E+00 0.  1.
         24    2    1    2    0    0 -0.63458952310E+03  0.18377797843E+02  0.18613072864E+04  0.19682358518E+04  0.80286658887E+02 0.  0.
        254    2    1    2    0    0  0.63458952310E+03 -0.18377797843E+02 -0.31055645586E+03  0.11399058925E+04  0.89437046310E+03 0.  0.
         23    2    4    4    0    0  0.51302921494E+03  0.12032438697E+03  0.21446140592E+03  0.57621847033E+03  0.91417161603E+02 0.  0.
         23    2    4    4    0    0  0.12156030816E+03 -0.13870218481E+03 -0.52501786177E+03  0.56368742221E+03  0.89914126719E+02 0.  0.
          2    1    3    3  502    0 -0.58551700647E+03  0.31285723753E+02  0.17566690436E+04  0.18519435979E+04  0.00000000000E+00 0. -1.
         -1    1    3    3    0  502 -0.49072516631E+02 -0.12907925910E+02  0.10463824283E+03  0.11629225384E+03  0.00000000000E+00 0.  1.
         13    1    5    5    0    0  0.21145387268E+03  0.70191639813E+01  0.10311710619E+03  0.23536173547E+03  0.00000000000E+00 0.  1.
        -13    1    5    5    0    0  0.30157534226E+03  0.11330522298E+03  0.11134429973E+03  0.34085673486E+03  0.00000000000E+00 0. -1.
          3    1    6    6  503    0  0.11283354484E+03 -0.14956277479E+03 -0.50938957418E+03  0.54275056031E+03  0.00000000000E+00 0. -1.
         -3    1    6    6    0  503  0.87267633204E+01  0.10860589977E+02 -0.15628287595E+02  0.20936861891E+02  0.00000000000E+00 0.  1.
<mgrwt>
<rscale>  0 0.26936438E+04</rscale>
<asrwt>0</asrwt>
<pdfrwt beam="1">  1        2 0.35837635E+00 0.26936438E+04</pdfrwt>
<pdfrwt beam="2">  1       -1 0.11979930E+00 0.26936438E+04</pdfrwt>
<totfact> 0.27062041E+00</totfact>
</mgrwt>
</event>
<event>
12    7  0.1544987E-007  0.1868933E+04  0.7818608E-02  0.8670477E-01
          2   -1    0    0  501    0  0.00000000000E+00  0.00000000000E+00  0.26951178187E+04  0.26951178187E+04  0.00000000000E+00 0. -1.
         -1   -1    0    0    0  501 -0.00000000000E+00 -0.00000000000E+00 -0.32400363456E+03  0.32400363456E+03  0.00000000000E+00 0.  1.
         24    2    1    2    0    0 -0.28856412935E+03  0.52695196594E+03  0.15004045412E+04  0.16181988792E+04  0.80038704758E+02 0.  0.
        254    2    1    2    0    0  0.28856412935E+03 -0.52695196594E+03  0.87070964292E+03  0.14009225740E+04  0.91842318404E+03 0.  0.
         23    2    4    4    0    0 -0.28798079664E+03 -0.35607776047E+03  0.51993530636E+03  0.69871894569E+03  0.90283617140E+02 0.  0.
         23    2    4    4    0    0  0.57654492599E+03 -0.17087420547E+03  0.35077433655E+03  0.70220362834E+03  0.91898066783E+02 0.  0.
          2    1    3    3  502    0 -0.28627397959E+03  0.51710451262E+03  0.14927833887E+04  0.16055379516E+04  0.00000000000E+00 0. -1.
         -1    1    3    3    0  502 -0.22901497650E+01  0.98474533271E+01  0.76211524705E+01  0.12660927610E+02  0.00000000000E+00 0.  1.
         13    1    5    5    0    0 -0.29971201737E+02 -0.41032303221E+02  0.10865603643E+03  0.11995022757E+03  0.00000000000E+00 0. -1.
        -13    1    5    5    0    0 -0.25800959491E+03 -0.31504545725E+03  0.41127926994E+03  0.57876871812E+03  0.00000000000E+00 0.  1.
          3    1    6    6  503    0  0.64820405221E+01 -0.34765877940E+01  0.21942403374E+02  0.23142441052E+02  0.00000000000E+00 0. -1.
         -3    1    6    6    0  503  0.57006288547E+03 -0.16739761768E+03  0.32883193318E+03  0.67906118728E+03  0.00000000000E+00 0.  1.
<mgrwt>
<rscale>  0 0.18689334E+04</rscale>
<asrwt>0</asrwt>
<pdfrwt beam="1">  1        2 0.41463350E+00 0.18689334E+04</pdfrwt>
<pdfrwt beam="2">  1       -1 0.49846715E-01 0.18689334E+04</pdfrwt>
<totfact> 0.11556389E+01</totfact>
</mgrwt>
</event>
<event>
12    7  0.1544987E-007  0.2064864E+04  0.7818608E-02  0.8576881E-01
         -1   -1    0    0    0  501 -0.00000000000E+00  0.00000000000E+00  0.66055312818E+03  0.66055312818E+03  0.00000000000E+00 0.  1.
          2   -1    0    0  501    0  0.00000000000E+00 -0.00000000000E+00 -0.16136710793E+04  0.16136710793E+04  0.00000000000E+00 0. -1.
         24    2    1    2    0    0  0.25614815717E+03 -0.20880695702E+03  0.45616792645E+03  0.56887100275E+03  0.79453237398E+02 0.  0.
        254    2    1    2    0    0 -0.25614815717E+03  0.20880695702E+03 -0.14092858776E+04  0.17053532047E+04  0.90162666578E+03 0.  0.
         23    2    4    4    0    0 -0.48687161316E+02  0.13084198795E+03 -0.14523195482E+04  0.14618514587E+04  0.91035992191E+02 0.  0.
         23    2    4    4    0    0 -0.20746099586E+03  0.77964969071E+02  0.43033670640E+02  0.24350174597E+03  0.91228297576E+02 0.  0.
          2    1    3    3  502    0  0.18578250756E+02 -0.42456752047E+02  0.37772978737E+02  0.59787332422E+02  0.00000000000E+00 0. -1.
         -1    1    3    3    0  502  0.23756990642E+03 -0.16635020497E+03  0.41839494771E+03  0.50908367033E+03  0.00000000000E+00 0.  1.
         13    1    5    5    0    0 -0.51646136592E+02  0.14384775326E+03 -0.13015263369E+04  0.13104694980E+04  0.00000000000E+00 0. -1.
        -13    1    5    5    0    0  0.29589752761E+01 -0.13005765313E+02 -0.15079321128E+03  0.15138196073E+03  0.00000000000E+00 0.  1.
          4    1    6    6  503    0 -0.15799799939E+03  0.81679467915E+02  0.43142335798E-01  0.17786203966E+03  0.00000000000E+00 0. -1.
         -4    1    6    6    0  503 -0.49462996471E+02 -0.37144988445E+01  0.42990528305E+02  0.65639706318E+02  0.00000000000E+00 0.  1.
<mgrwt>
<rscale>  0 0.20648637E+04</rscale>
<asrwt>0</asrwt>
<pdfrwt beam="1">  1        2 0.24825709E+00 0.20648637E+04</pdfrwt>
<pdfrwt beam="2">  1       -1 0.10162356E+00 0.20648637E+04</pdfrwt>
<totfact> 0.10593936E+01</totfact>
</mgrwt>
</event>
<event>
12    7  0.1544987E-007  0.1127904E+04  0.7818608E-02  0.9178414E-01
          2   -1    0    0  501    0  0.00000000000E+00  0.00000000000E+00  0.18824571734E+03  0.18824571734E+03  0.00000000000E+00 0. -1.
         -1   -1    0    0    0  501 -0.00000000000E+00 -0.00000000000E+00 -0.16895029024E+04  0.16895029024E+04  0.00000000000E+00 0.  1.
         24    2    1    2    0    0  0.21720277155E+03  0.32190441399E+02 -0.36546689492E+03  0.43252602213E+03  0.72797253052E+02 0.  0.
        254    2    1    2    0    0 -0.21720277155E+03 -0.32190441399E+02 -0.11357902902E+04  0.14452225976E+04  0.86627680622E+03 0.  0.
         23    2    4    4    0    0 -0.29628918754E+03 -0.37319084948E+03 -0.41395537103E+03  0.63799556912E+03  0.92847209060E+02 0.  0.
         23    2    4    4    0    0  0.79086415993E+02  0.34100040808E+03 -0.72183491913E+03  0.80722702850E+03  0.89631945030E+02 0.  0.
          2    1    3    3  502    0 -0.55202909159E+01 -0.21803962180E+01 -0.82660439637E+01  0.10176208639E+02  0.00000000000E+00 0. -1.
         -1    1    3    3    0  502  0.22272306247E+03  0.34370837617E+02 -0.35720085096E+03  0.42234981349E+03  0.00000000000E+00 0.  1.
         13    1    5    5    0    0 -0.10524540577E+03 -0.86926262475E+02 -0.15979968192E+03  0.21016352891E+03  0.00000000000E+00 0.  1.
        -13    1    5    5    0    0 -0.19104378178E+03 -0.28626458700E+03 -0.25415568911E+03  0.42783204022E+03  0.00000000000E+00 0. -1.
          2    1    6    6  503    0 -0.15016313833E+02  0.12203311650E+03 -0.25262000748E+03  0.28095273514E+03  0.00000000000E+00 0. -1.
         -2    1    6    6    0  503  0.94102729826E+02  0.21896729158E+03 -0.46921491165E+03  0.52627429336E+03  0.00000000000E+00 0.  1.
<mgrwt>
<rscale>  0 0.11279037E+04</rscale>
<asrwt>0</asrwt>
<pdfrwt beam="1">  1        2 0.28960880E-01 0.11279037E+04</pdfrwt>
<pdfrwt beam="2">  1       -1 0.25992352E+00 0.11279037E+04</pdfrwt>
<totfact> 0.12723410E+01</totfact>
</mgrwt>
</event>
<event>
12    7  0.1544987E-007  0.1599277E+04  0.7818608E-02  0.8820992E-01
          2   -1    0    0  501    0  0.00000000000E+00  0.00000000000E+00  0.13600521803E+04  0.13600521803E+04  0.00000000000E+00 0. -1.
         -1   -1    0    0    0  501 -0.00000000000E+00 -0.00000000000E+00 -0.47014486005E+03  0.47014486005E+03  0.00000000000E+00 0.  1.
         24    2    1    2    0    0 -0.52355777769E+03 -0.14535480493E+03  0.36605326816E+03  0.65824473106E+03  0.63642477501E+02 0.  0.
        254    2    1    2    0    0  0.52355777769E+03  0.14535480493E+03  0.52385405208E+03  0.11719523093E+04  0.89655361327E+03 0.  0.
         23    2    4    4    0    0  0.76595836158E+03  0.15460097302E+03  0.41035183006E+03  0.88730046697E+03  0.91213056792E+02 0.  0.
         23    2    4    4    0    0 -0.24240058389E+03 -0.92461680977E+01  0.11350222202E+03  0.28465184231E+03  0.96438489360E+02 0.  0.
          2    1    3    3  502    0 -0.20907798216E+02 -0.11112174119E+02  0.30889686350E+01  0.23877984989E+02  0.00000000000E+00 0. -1.
         -1    1    3    3    0  502 -0.50264997947E+03 -0.13424263081E+03  0.36296429952E+03  0.63436674607E+03  0.00000000000E+00 0.  1.
         13    1    5    5    0    0  0.31790081640E+03  0.32419118597E+02  0.20390871619E+03  0.37906555219E+03  0.00000000000E+00 0.  1.
        -13    1    5    5    0    0  0.44805754518E+03  0.12218185443E+03  0.20644311386E+03  0.50823491478E+03  0.00000000000E+00 0. -1.
          2    1    6    6  503    0 -0.49306537316E+02 -0.24123172695E+01  0.71562380974E+02  0.86937496325E+02  0.00000000000E+00 0. -1.
         -2    1    6    6    0  503 -0.19309404658E+03 -0.68338508282E+01  0.41939841045E+02  0.19771434598E+03  0.00000000000E+00 0.  1.
<mgrwt>
<rscale>  0 0.15992768E+04</rscale>
<asrwt>0</asrwt>
<pdfrwt beam="1">  1        2 0.20923879E+00 0.15992768E+04</pdfrwt>
<pdfrwt beam="2">  1       -1 0.72329979E-01 0.15992768E+04</pdfrwt>
<totfact> 0.32157818E+01</totfact>
</mgrwt>
</event>
<event>
12    7  0.1544987E-007  0.1562003E+04  0.7818608E-02  0.8844237E-01
         -1   -1    0    0    0  501 -0.00000000000E+00  0.00000000000E+00  0.32376338490E+03  0.32376338490E+03  0.00000000000E+00 0.  1.
          2   -1    0    0  501    0  0.00000000000E+00 -0.00000000000E+00 -0.18839789508E+04  0.18839789508E+04  0.00000000000E+00 0. -1.
         24    2    1    2    0    0  0.51898823915E+03 -0.18257356573E+02 -0.57681245835E+03  0.77985823667E+03  0.76053492658E+02 0.  0.
        254    2    1    2    0    0 -0.51898823915E+03  0.18257356573E+02 -0.98340310754E+03  0.14278840990E+04  0.89559433054E+03 0.  0.
         23    2    4    4    0    0 -0.67051297106E+01 -0.33206056840E+02 -0.89163067394E+03  0.89697061892E+03  0.91670232538E+02 0.  0.
         23    2    4    4    0    0 -0.51228310944E+03  0.51463413414E+02 -0.91772433606E+02  0.53091348011E+03  0.91457512837E+02 0.  0.
          4    1    3    3  502    0  0.30264638440E+03  0.25788570424E+02 -0.34752648635E+03  0.46155665206E+03  0.00000000000E+00 0. -1.
         -3    1    3    3    0  502  0.21634185475E+03 -0.44045926997E+02 -0.22928597201E+03  0.31830158460E+03  0.00000000000E+00 0.  1.
         13    1    5    5    0    0 -0.34255807208E+02  0.17691117910E+02 -0.43030912773E+03  0.43203284758E+03  0.00000000000E+00 0.  1.
        -13    1    5    5    0    0  0.27550677497E+02 -0.50897174751E+02 -0.46132154621E+03  0.46493777135E+03  0.00000000000E+00 0. -1.
          1    1    6    6  503    0 -0.48753834633E+03  0.66016733793E+02 -0.75016283603E+02  0.49767388026E+03  0.00000000000E+00 0. -1.
         -1    1    6    6    0  503 -0.24744763105E+02 -0.14553320380E+02 -0.16756150003E+02  0.33239599849E+02  0.00000000000E+00 0.  1.
<mgrwt>
<rscale>  0 0.15620031E+04</rscale>
<asrwt>0</asrwt>
<pdfrwt beam="1">  1        2 0.28984292E+00 0.15620031E+04</pdfrwt>
<pdfrwt beam="2">  1       -1 0.49809751E-01 0.15620031E+04</pdfrwt>
<totfact> 0.34331883E+01</totfact>
</mgrwt>
</event>
<event>
12    7  0.1544987E-007  0.1496987E+04  0.7818608E-02  0.8886459E-01
         -1   -1    0    0    0  501 -0.00000000000E+00  0.00000000000E+00  0.84158895469E+03  0.84158895469E+03  0.00000000000E+00 0.  1.
          2   -1    0    0  501    0  0.00000000000E+00 -0.00000000000E+00 -0.66569574568E+03  0.66569574568E+03  0.00000000000E+00 0. -1.
         24    2    1    2    0    0  0.41281771137E+03  0.22954442690E+03  0.23026005482E+02  0.47958416532E+03  0.79760064920E+02 0.  0.
        254    2    1    2    0    0 -0.41281771137E+03 -0.22954442690E+03  0.15286720353E+03  0.10277005351E+04  0.89982826200E+03 0.  0.
         23    2    4    4    0    0 -0.57551517458E+03  0.14120528872E+03  0.11024209583E+03  0.60928182364E+03  0.88962751684E+02 0.  0.
         23    2    4    4    0    0  0.16269746321E+03 -0.37074971562E+03  0.42625107707E+02  0.41841871141E+03  0.96599700245E+02 0.  0.
          4    1    3    3  502    0  0.31552588506E+03  0.17419893673E+03 -0.16714907892E+02  0.36080637723E+03  0.00000000000E+00 0. -1.
         -3    1    3    3    0  502  0.97291826308E+02  0.55345490169E+02  0.39740913374E+02  0.11877778809E+03  0.00000000000E+00 0.  1.
         13    1    5    5    0    0 -0.20749765658E+03  0.14564826644E+02  0.14689214251E+02  0.20852622060E+03  0.00000000000E+00 0.  1.
        -13    1    5    5    0    0 -0.36801751800E+03  0.12664046208E+03  0.95552881575E+02  0.40075560304E+03  0.00000000000E+00 0. -1.
          3    1    6    6  503    0  0.17416361371E+03 -0.33870430962E+03  0.29711311962E+02  0.38201614594E+03  0.00000000000E+00 0. -1.
         -3    1    6    6    0  503 -0.11466150500E+02 -0.32045405998E+02  0.12913795745E+02  0.36402565479E+02  0.00000000000E+00 0.  1.
<mgrwt>
<rscale>  0 0.14969866E+04</rscale>
<asrwt>0</asrwt>
<pdfrwt beam="1">  1        2 0.10241473E+00 0.14969866E+04</pdfrwt>
<pdfrwt beam="2">  1       -1 0.12947522E+00 0.14969866E+04</pdfrwt>
<totfact> 0.24694074E+01</totfact>
</mgrwt>
</event>
<event>
12    7  0.1774402E-007  0.2562219E+04  0.7818608E-02  0.8381149E-01
          2   -1    0    0  501    0  0.00000000000E+00  0.00000000000E+00  0.25240573082E+04  0.25240573082E+04  0.00000000000E+00 0. -1.
         -1   -1    0    0    0  501 -0.00000000000E+00 -0.00000000000E+00 -0.65023949974E+03  0.65023949974E+03  0.00000000000E+00 0.  1.
         24    2    1    2    0    0 -0.24647245460E+03 -0.10950601070E+03  0.21215941766E+04  0.21399637881E+04  0.74450837311E+02 0.  0.
        254    2    1    2    0    0  0.24647245460E+03  0.10950601070E+03 -0.24777636807E+03  0.10343330199E+04  0.96732178212E+03 0.  0.
         23    2    4    4    0    0  0.87767267973E+02 -0.31105672421E+03 -0.42570755218E+03  0.54219259317E+03  0.91030264786E+02 0.  0.
         23    2    4    4    0    0  0.15870518662E+03  0.42056273491E+03  0.17793118411E+03  0.49214042669E+03  0.92099636503E+02 0.  0.
          2    1    3    3  502    0 -0.24654548887E+03 -0.11047253798E+03  0.21218347725E+04  0.21389650912E+04  0.00000000000E+00 0. -1.
         -1    1    3    3    0  502  0.73034270950E-01  0.96652728389E+00 -0.24059596347E+00  0.99869685734E+00  0.00000000000E+00 0.  1.
         13    1    5    5    0    0 -0.12160076225E+02 -0.10535811238E+03 -0.11557795688E+03  0.15686447468E+03  0.00000000000E+00 0. -1.
        -13    1    5    5    0    0  0.99927344198E+02 -0.20569861183E+03 -0.31012959529E+03  0.38532811850E+03  0.00000000000E+00 0.  1.
          4    1    6    6  503    0  0.13804178094E+03  0.27906683936E+03  0.89267012997E+02  0.32388645190E+03  0.00000000000E+00 0.  1.
         -4    1    6    6    0  503  0.20663405684E+02  0.14149589555E+03  0.88664171114E+02  0.16825397479E+03  0.00000000000E+00 0. -1.
<mgrwt>
<rscale>  0 0.25622192E+04</rscale>
<asrwt>0</asrwt>
<pdfrwt beam="1">  1        2 0.38831650E+00 0.25622192E+04</pdfrwt>
<pdfrwt beam="2">  1       -1 0.10003685E+00 0.25622192E+04</pdfrwt>
<totfact> 0.32386854E+00</totfact>
</mgrwt>
</event>
<event>
12    7  0.1544987E-007  0.1382998E+04  0.7818608E-02  0.8966218E-01
          2   -1    0    0  501    0  0.00000000000E+00  0.00000000000E+00  0.10097992567E+04  0.10097992567E+04  0.00000000000E+00 0. -1.
         -1   -1    0    0    0  501 -0.00000000000E+00 -0.00000000000E+00 -0.47353058786E+03  0.47353058786E+03  0.00000000000E+00 0.  1.
         24    2    1    2    0    0 -0.23045465820E+02  0.26186097344E+03 -0.13425842820E+03  0.30529178739E+03  0.77945410374E+02 0.  0.
        254    2    1    2    0    0  0.23045465820E+02 -0.26186097344E+03  0.67052709702E+03  0.11780380572E+04  0.93223645786E+03 0.  0.
         23    2    4    4    0    0  0.60144166521E+02 -0.46480205645E+03  0.78981872182E+03  0.92301175535E+03  0.92080479561E+02 0.  0.
         23    2    4    4    0    0 -0.37098700702E+02  0.20294108301E+03 -0.11929162480E+03  0.25502630181E+03  0.90810385408E+02 0.  0.
          4    1    3    3  502    0  0.11556675951E+02  0.30002118278E+01 -0.12002032941E+02  0.16929466169E+02  0.00000000000E+00 0. -1.
         -3    1    3    3    0  502 -0.34602141770E+02  0.25886076161E+03 -0.12225639526E+03  0.28836232122E+03  0.00000000000E+00 0.  1.
         13    1    5    5    0    0  0.17531559464E+02 -0.80690184537E+02  0.80926982327E+02  0.11561763674E+03  0.00000000000E+00 0.  1.
        -13    1    5    5    0    0  0.42612607057E+02 -0.38411187191E+03  0.70889173950E+03  0.80739411860E+03  0.00000000000E+00 0. -1.
          4    1    6    6  503    0 -0.55164000694E+02  0.68145960797E+02 -0.31552283282E+02  0.93179855794E+02  0.00000000000E+00 0.  1.
         -4    1    6    6    0  503  0.18065299992E+02  0.13479512221E+03 -0.87739341522E+02  0.16184644601E+03  0.00000000000E+00 0. -1.
<mgrwt>
<rscale>  0 0.13829980E+04</rscale>
<asrwt>0</asrwt>
<pdfrwt beam="1">  1        2 0.15535373E+00 0.13829980E+04</pdfrwt>
<pdfrwt beam="2">  1       -1 0.72850860E-01 0.13829980E+04</pdfrwt>
<totfact> 0.52443677E+01</totfact>
</mgrwt>
</event>
<event>
12    7  0.1544987E-007  0.1135135E+04  0.7818608E-02  0.9171608E-01
         -1   -1    0    0    0  501 -0.00000000000E+00  0.00000000000E+00  0.44335012956E+03  0.44335012956E+03  0.00000000000E+00 0.  1.
          2   -1    0    0  501    0  0.00000000000E+00 -0.00000000000E+00 -0.72658807176E+03  0.72658807176E+03  0.00000000000E+00 0. -1.
         24    2    1    2    0    0 -0.19192646303E+03 -0.33339071792E+02 -0.34369130380E+02  0.21313853807E+03  0.79369631280E+02 0.  0.
        254    2    1    2    0    0  0.19192646303E+03  0.33339071792E+02 -0.24886881182E+03  0.95679966325E+03  0.90309614614E+03 0.  0.
         23    2    4    4    0    0  0.45310033319E+03  0.27549653136E+03 -0.23463217370E+03  0.58869783010E+03  0.10156095465E+03 0.  0.
         23    2    4    4    0    0 -0.26117387016E+03 -0.24215745957E+03 -0.14236638127E+02  0.36810183314E+03  0.91892611361E+02 0.  0.
          2    1    3    3  502    0 -0.51273122123E+02 -0.23635424269E+02 -0.44354729080E+02  0.71797690244E+02  0.00000000000E+00 0. -1.
         -1    1    3    3    0  502 -0.14065334091E+03 -0.97036475232E+01  0.99855986999E+01  0.14134084783E+03  0.00000000000E+00 0.  1.
         13    1    5    5    0    0  0.43988525518E+03  0.28247589645E+03 -0.23622734373E+03  0.57366804663E+03  0.00000000000E+00 0.  1.
        -13    1    5    5    0    0  0.13215078007E+02 -0.69793650912E+01  0.15951700307E+01  0.15029783473E+02  0.00000000000E+00 0. -1.
          1    1    6    6  503    0  0.62943927252E+01 -0.14186575456E+01 -0.49437380915E+01  0.81285001894E+01  0.00000000000E+00 0. -1.
         -1    1    6    6    0  503 -0.26746826288E+03 -0.24073880202E+03 -0.92929000357E+01  0.35997333296E+03  0.00000000000E+00 0.  1.
<mgrwt>
<rscale>  0 0.11351351E+04</rscale>
<asrwt>0</asrwt>
<pdfrwt beam="1">  1        2 0.11178278E+00 0.11351351E+04</pdfrwt>
<pdfrwt beam="2">  1       -1 0.68207713E-01 0.11351351E+04</pdfrwt>
<totfact> 0.96215929E+01</totfact>
</mgrwt>
</event>
<event>
12    7  0.1544987E-007  0.1896757E+04  0.7818608E-02  0.8656472E-01
          2   -1    0    0  501    0  0.00000000000E+00  0.00000000000E+00  0.12754820266E+04  0.12754820266E+04  0.00000000000E+00 0. -1.
         -1   -1    0    0    0  501 -0.00000000000E+00 -0.00000000000E+00 -0.70516235843E+03  0.70516235843E+03  0.00000000000E+00 0.  1.
         24    2    1    2    0    0 -0.55667166347E+03 -0.22995181118E+03 -0.20090875304E+03  0.63992973697E+03  0.79903471951E+02 0.  0.
        254    2    1    2    0    0  0.55667166347E+03  0.22995181118E+03  0.77122842116E+03  0.13407146480E+04  0.91649403348E+03 0.  0.
         23    2    4    4    0    0  0.69556022663E+03  0.20213963145E+02  0.80636812346E+03  0.10698094078E+04  0.10024961525E+03 0.  0.
         23    2    4    4    0    0 -0.13888856316E+03  0.20973784804E+03 -0.35139702294E+02  0.27090524019E+03  0.94206436132E+02 0.  0.
          2    1    3    3  502    0 -0.39769776635E+03 -0.19084781295E+03 -0.11910085402E+03  0.45691510644E+03  0.00000000000E+00 0. -1.
         -1    1    3    3    0  502 -0.15897389713E+03 -0.39103998229E+02 -0.81807899021E+02  0.18301463053E+03  0.00000000000E+00 0.  1.
         13    1    5    5    0    0  0.57048325813E+03 -0.13097516842E+02  0.69336227948E+03  0.89798326452E+03  0.00000000000E+00 0. -1.
        -13    1    5    5    0    0  0.12507696851E+03  0.33311479987E+02  0.11300584398E+03  0.17182614331E+03  0.00000000000E+00 0.  1.
          2    1    6    6  503    0 -0.79528038356E+02  0.49762166772E+02 -0.35402554588E+02  0.10027124711E+03  0.00000000000E+00 0.  1.
         -2    1    6    6    0  503 -0.59360524806E+02  0.15997568127E+03  0.26285229362E+00  0.17063399308E+03  0.00000000000E+00 0. -1.
<mgrwt>
<rscale>  0 0.18967571E+04</rscale>
<asrwt>0</asrwt>
<pdfrwt beam="1">  1        2 0.19622800E+00 0.18967571E+04</pdfrwt>
<pdfrwt beam="2">  1       -1 0.10848652E+00 0.18967571E+04</pdfrwt>
<totfact> 0.14391318E+01</totfact>
</mgrwt>
</event>
<event>
12    7  0.1544987E-007  0.2919125E+04  0.7818608E-02  0.8267210E-01
         -1   -1    0    0    0  501 -0.00000000000E+00  0.00000000000E+00  0.89759717734E+03  0.89759717734E+03  0.00000000000E+00 0.  1.
          2   -1    0    0  501    0  0.00000000000E+00 -0.00000000000E+00 -0.23733621995E+04  0.23733621995E+04  0.00000000000E+00 0. -1.
         24    2    1    2    0    0 -0.15562898297E+03 -0.13806303326E+03  0.78101333510E+03  0.81225820650E+03  0.80621231216E+02 0.  0.
        254    2    1    2    0    0  0.15562898297E+03  0.13806303326E+03 -0.22567783573E+04  0.24587011703E+04  0.95335256319E+03 0.  0.
         23    2    4    4    0    0  0.18087636429E+02 -0.39178360173E+03 -0.11875850203E+04  0.12540804386E+04  0.92401368549E+02 0.  0.
         23    2    4    4    0    0  0.13754134654E+03  0.52984663499E+03 -0.10691933370E+04  0.12046207318E+04  0.91003499263E+02 0.  0.
          2    1    3    3  502    0 -0.84846370281E+02 -0.29450781083E+02  0.24981599253E+03  0.26546993272E+03  0.00000000000E+00 0. -1.
         -1    1    3    3    0  502 -0.70782612690E+02 -0.10861225218E+03  0.53119734258E+03  0.54678827378E+03  0.00000000000E+00 0.  1.
         13    1    5    5    0    0 -0.35817591294E+02 -0.19654897081E+03 -0.62431620272E+03  0.65550371376E+03  0.00000000000E+00 0. -1.
        -13    1    5    5    0    0  0.53905227723E+02 -0.19523463092E+03 -0.56326881755E+03  0.59857672483E+03  0.00000000000E+00 0.  1.
          2    1    6    6  503    0  0.14903123418E+03  0.48262328536E+03 -0.95082545605E+03  0.10766636393E+04  0.00000000000E+00 0. -1.
         -2    1    6    6    0  503 -0.11489887636E+02  0.47223349632E+02 -0.11836788095E+03  0.12795709245E+03  0.00000000000E+00 0.  1.
<mgrwt>
<rscale>  0 0.29191254E+04</rscale>
<asrwt>0</asrwt>
<pdfrwt beam="1">  1        2 0.36513263E+00 0.29191254E+04</pdfrwt>
<pdfrwt beam="2">  1       -1 0.13809188E+00 0.29191254E+04</pdfrwt>
<totfact> 0.17522483E+00</totfact>
</mgrwt>
</event>
<event>
12    7  0.1544987E-007  0.2937085E+04  0.7818608E-02  0.8261928E-01
          2   -1    0    0  501    0  0.00000000000E+00  0.00000000000E+00  0.16790062996E+04  0.16790062996E+04  0.00000000000E+00 0. -1.
         -1   -1    0    0    0  501 -0.00000000000E+00 -0.00000000000E+00 -0.12844602284E+04  0.12844602284E+04  0.00000000000E+00 0.  1.
         24    2    1    2    0    0 -0.71604056399E+03  0.12018326068E+03  0.13059672392E+04  0.14965703728E+04  0.83751688129E+02 0.  0.
        254    2    1    2    0    0  0.71604056399E+03 -0.12018326068E+03 -0.91142116805E+03  0.14668961551E+04  0.89103180581E+03 0.  0.
         23    2    4    4    0    0 -0.15552163397E+03  0.14281325028E+03 -0.13267385770E+03  0.26547181081E+03  0.91051231356E+02 0.  0.
         23    2    4    4    0    0  0.87156219796E+03 -0.26299651096E+03 -0.77874731035E+03  0.12014243443E+04  0.90472382931E+02 0.  0.
          2    1    3    3  502    0 -0.41487416171E+03  0.70882803380E+02  0.67105493147E+03  0.79212351493E+03  0.00000000000E+00 0. -1.
         -1    1    3    3    0  502 -0.30116640228E+03  0.49300457296E+02  0.63491230778E+03  0.70444685785E+03  0.00000000000E+00 0.  1.
         13    1    5    5    0    0 -0.66746156534E+01  0.15257707359E+02 -0.50045260654E+02  0.52743494782E+02  0.00000000000E+00 0. -1.
        -13    1    5    5    0    0 -0.14884701831E+03  0.12755554292E+03 -0.82628597046E+02  0.21272831603E+03  0.00000000000E+00 0.  1.
          1    1    6    6  503    0  0.47893988623E+03 -0.12411642102E+03 -0.36922768881E+03  0.61734705537E+03  0.00000000000E+00 0. -1.
         -1    1    6    6    0  503  0.39262231173E+03 -0.13888008994E+03 -0.40951962153E+03  0.58407728895E+03  0.00000000000E+00 0.  1.
<mgrwt>
<rscale>  0 0.29370848E+04</rscale>
<asrwt>0</asrwt>
<pdfrwt beam="1">  1        2 0.25830866E+00 0.29370848E+04</pdfrwt>
<pdfrwt beam="2">  1       -1 0.19760927E+00 0.29370848E+04</pdfrwt>
<totfact> 0.15427946E+00</totfact>
</mgrwt>
</event>
<event>
12    7  0.1544987E-007  0.1712599E+04  0.7818608E-02  0.8754211E-01
          2   -1    0    0  501    0  0.00000000000E+00  0.00000000000E+00  0.27463366586E+04  0.27463366586E+04  0.00000000000E+00 0. -1.
         -1   -1    0    0    0  501 -0.00000000000E+00 -0.00000000000E+00 -0.26699163377E+03  0.26699163377E+03  0.00000000000E+00 0.  1.
         24    2    1    2    0    0  0.36118557139E+03  0.43813863965E+03  0.47988634955E+03  0.74780924842E+03  0.80667707258E+02 0.  0.
        254    2    1    2    0    0 -0.36118557139E+03 -0.43813863965E+03  0.19994586753E+04  0.22655190439E+04  0.90128855523E+03 0.  0.
         23    2    4    4    0    0 -0.42207980430E+02 -0.74979021352E+01 -0.70295063988E+02  0.12562144207E+03  0.94876859868E+02 0.  0.
         23    2    4    4    0    0 -0.31897759096E+03 -0.43064073752E+03  0.20697537393E+04  0.21398976019E+04  0.89905822646E+02 0.  0.
          2    1    3    3  502    0 -0.36408142672E+01  0.91227684680E+00  0.54876408547E+01  0.66484569431E+01  0.00000000000E+00 0. -1.
         -1    1    3    3    0  502  0.36482638566E+03  0.43722636281E+03  0.47439870869E+03  0.74116079147E+03  0.00000000000E+00 0.  1.
         13    1    5    5    0    0 -0.62107559288E+02  0.18922454245E+02 -0.25084663812E+02  0.69603509638E+02  0.00000000000E+00 0. -1.
        -13    1    5    5    0    0  0.19899578857E+02 -0.26420356380E+02 -0.45210400175E+02  0.56017932432E+02  0.00000000000E+00 0.  1.
          4    1    6    6  503    0 -0.56346857686E+02 -0.14337239725E+03  0.60760617411E+03  0.62683002120E+03  0.00000000000E+00 0. -1.
         -4    1    6    6    0  503 -0.26263073327E+03 -0.28726834027E+03  0.14621475652E+04  0.15130675807E+04  0.00000000000E+00 0.  1.
<mgrwt>
<rscale>  0 0.17125991E+04</rscale>
<asrwt>0</asrwt>
<pdfrwt beam="1">  1        2 0.42251331E+00 0.17125991E+04</pdfrwt>
<pdfrwt beam="2">  1       -1 0.41075638E-01 0.17125991E+04</pdfrwt>
<totfact> 0.15688456E+01</totfact>
</mgrwt>
</event>
<event>
12    7  0.1544987E-007  0.2488666E+04  0.7818608E-02  0.8407034E-01
         -1   -1    0    0    0  501 -0.00000000000E+00  0.00000000000E+00  0.96424617756E+03  0.96424617756E+03  0.00000000000E+00 0.  1.
          2   -1    0    0  501    0  0.00000000000E+00 -0.00000000000E+00 -0.16057775204E+04  0.16057775204E+04  0.00000000000E+00 0. -1.
         24    2    1    2    0    0  0.37667286889E+03 -0.53252750789E+03 -0.12197935863E+04  0.13856006143E+04  0.80775444751E+02 0.  0.
        254    2    1    2    0    0 -0.37667286889E+03  0.53252750789E+03  0.57826224341E+03  0.11844230837E+04  0.80187456760E+03 0.  0.
         23    2    4    4    0    0 -0.23081949081E+02  0.64371984877E+03  0.39751287491E+03  0.76208644779E+03  0.88607268912E+02 0.  0.
         23    2    4    4    0    0 -0.35359091981E+03 -0.11119234088E+03  0.18074936849E+03  0.42233663588E+03  0.91146171359E+02 0.  0.
          4    1    3    3  502    0  0.20327016800E+03 -0.34655827679E+03 -0.78761608474E+03  0.88417221023E+03  0.00000000000E+00 0. -1.
         -1    1    3    3    0  502  0.17340270090E+03 -0.18596923109E+03 -0.43217750154E+03  0.50142840409E+03  0.00000000000E+00 0.  1.
         13    1    5    5    0    0 -0.49553153069E+02  0.21408274514E+03  0.13571736332E+03  0.25827531716E+03  0.00000000000E+00 0. -1.
        -13    1    5    5    0    0  0.26471203989E+02  0.42963710363E+03  0.26179551159E+03  0.50381113063E+03  0.00000000000E+00 0.  1.
          4    1    6    6  503    0 -0.26917955137E+03 -0.42131305459E+02  0.13497269812E+03  0.30405642077E+03  0.00000000000E+00 0.  1.
         -4    1    6    6    0  503 -0.84411368445E+02 -0.69061035425E+02  0.45776670378E+02  0.11828021511E+03  0.00000000000E+00 0. -1.
<mgrwt>
<rscale>  0 0.24886662E+04</rscale>
<asrwt>0</asrwt>
<pdfrwt beam="1">  1        2 0.24704269E+00 0.24886662E+04</pdfrwt>
<pdfrwt beam="2">  1       -1 0.14834557E+00 0.24886662E+04</pdfrwt>
<totfact> 0.40452114E+00</totfact>
</mgrwt>
</event>
<event>
12    7  0.1544987E-007  0.1408935E+04  0.7818608E-02  0.8947376E-01
         -1   -1    0    0    0  501 -0.00000000000E+00  0.00000000000E+00  0.47300250082E+03  0.47300250082E+03  0.00000000000E+00 0.  1.
          2   -1    0    0  501    0  0.00000000000E+00 -0.00000000000E+00 -0.10491999430E+04  0.10491999430E+04  0.00000000000E+00 0. -1.
         24    2    1    2    0    0 -0.39364728786E+03 -0.15552165784E+03 -0.12964113090E+03  0.44892000127E+03  0.74680462138E+02 0.  0.
        254    2    1    2    0    0  0.39364728786E+03  0.15552165784E+03 -0.44655631126E+03  0.10732824425E+04  0.87941883596E+03 0.  0.
         23    2    4    4    0    0  0.62910123476E+03  0.10329120130E+03 -0.49328398585E+03  0.81126627354E+03  0.91577508397E+02 0.  0.
         23    2    4    4    0    0 -0.23545394690E+03  0.52230456543E+02  0.46727674587E+02  0.26201616900E+03  0.91117591829E+02 0.  0.
          2    1    3    3  502    0 -0.45715521763E+01 -0.12435230387E+02 -0.12305681239E+02  0.18082141323E+02  0.00000000000E+00 0. -1.
         -1    1    3    3    0  502 -0.38907573568E+03 -0.14308642746E+03 -0.11733544966E+03  0.43083785995E+03  0.00000000000E+00 0.  1.
         13    1    5    5    0    0  0.57483180641E+03  0.80261970796E+02 -0.41614041386E+03  0.71417535218E+03  0.00000000000E+00 0.  1.
        -13    1    5    5    0    0  0.54269428354E+02  0.23029230506E+02 -0.77143571984E+02  0.97090921358E+02  0.00000000000E+00 0. -1.
          4    1    6    6  503    0 -0.11107470983E+03  0.55896231138E+02 -0.11024573313E+02  0.12483397389E+03  0.00000000000E+00 0. -1.
         -4    1    6    6    0  503 -0.12437923707E+03 -0.36657745951E+01  0.57752247900E+02  0.13718219511E+03  0.00000000000E+00 0.  1.
<mgrwt>
<rscale>  0 0.14089346E+04</rscale>
<asrwt>0</asrwt>
<pdfrwt beam="1">  1        2 0.16141537E+00 0.14089346E+04</pdfrwt>
<pdfrwt beam="2">  1       -1 0.72769617E-01 0.14089346E+04</pdfrwt>
<totfact> 0.49521954E+01</totfact>
</mgrwt>
</event>
<event>
12    7  0.1544987E-007  0.2965559E+04  0.7818608E-02  0.8253635E-01
          2   -1    0    0  501    0  0.00000000000E+00  0.00000000000E+00  0.14324962807E+04  0.14324962807E+04  0.00000000000E+00 0. -1.
         -1   -1    0    0    0  501 -0.00000000000E+00 -0.00000000000E+00 -0.15348277577E+04  0.15348277577E+04  0.00000000000E+00 0.  1.
         24    2    1    2    0    0  0.10687908373E+03 -0.10817221620E+04 -0.83836164914E+03  0.13751711361E+04  0.81850012544E+02 0.  0.
        254    2    1    2    0    0 -0.10687908373E+03  0.10817221620E+04  0.73603017215E+03  0.15921529023E+04  0.90092423430E+03 0.  0.
         23    2    4    4    0    0  0.14922340817E+03 -0.69746626723E+02 -0.17921641982E+02  0.18902341700E+03  0.90974993480E+02 0.  0.
         23    2    4    4    0    0 -0.25610249190E+03  0.11514687887E+04  0.75395181413E+03  0.14031294853E+04  0.94128406828E+02 0.  0.
          4    1    3    3  502    0 -0.42397930624E+01 -0.34237540489E+03 -0.26003141103E+03  0.42994793690E+03  0.00000000000E+00 0. -1.
         -3    1    3    3    0  502  0.11111887679E+03 -0.73934675706E+03 -0.57833023811E+03  0.94522319918E+03  0.00000000000E+00 0.  1.
         13    1    5    5    0    0  0.12053537194E+03 -0.92184539155E+02 -0.15025456708E+02  0.15248780115E+03  0.00000000000E+00 0.  1.
        -13    1    5    5    0    0  0.28688036225E+02  0.22437912433E+02 -0.28961852744E+01  0.36535615855E+02  0.00000000000E+00 0. -1.
          2    1    6    6  503    0 -0.24403806766E+03  0.94935964821E+03  0.64229318931E+03  0.11719124802E+04  0.00000000000E+00 0. -1.
         -2    1    6    6    0  503 -0.12064424237E+02  0.20210914046E+03  0.11165862482E+03  0.23121700519E+03  0.00000000000E+00 0.  1.
<mgrwt>
<rscale>  0 0.29655590E+04</rscale>
<asrwt>0</asrwt>
<pdfrwt beam="1">  1        2 0.22038404E+00 0.29655590E+04</pdfrwt>
<pdfrwt beam="2">  1       -1 0.23612735E+00 0.29655590E+04</pdfrwt>
<totfact> 0.11653610E+00</totfact>
</mgrwt>
</event>
<event>
12    7  0.1544987E-007  0.2185878E+04  0.7818608E-02  0.8524329E-01
         -1   -1    0    0    0  501 -0.00000000000E+00  0.00000000000E+00  0.14104190701E+04  0.14104190701E+04  0.00000000000E+00 0.  1.
          2   -1    0    0  501    0  0.00000000000E+00 -0.00000000000E+00 -0.84692271520E+03  0.84692271520E+03  0.00000000000E+00 0. -1.
         24    2    1    2    0    0 -0.70421785087E+02  0.32638525982E+03 -0.64109399889E+03  0.72555195687E+03  0.62749988580E+02 0.  0.
        254    2    1    2    0    0  0.70421785087E+02 -0.32638525982E+03  0.12045903537E+04  0.15317898284E+04  0.88535619520E+03 0.  0.
         23    2    4    4    0    0  0.41663677000E+03 -0.36597317642E+03  0.55944341914E+03  0.79290213172E+03  0.90522302815E+02 0.  0.
         23    2    4    4    0    0 -0.34621498491E+03  0.39587916599E+02  0.64514693460E+03  0.73888769666E+03  0.91150656268E+02 0.  0.
          4    1    3    3  502    0 -0.15648124986E+02  0.21374356794E+03 -0.39337395243E+03  0.44796678795E+03  0.00000000000E+00 0. -1.
         -3    1    3    3    0  502 -0.54773660101E+02  0.11264169187E+03 -0.24772004646E+03  0.27758516892E+03  0.00000000000E+00 0.  1.
         13    1    5    5    0    0  0.20455738117E+03 -0.21681882287E+03  0.24878943393E+03  0.38826576797E+03  0.00000000000E+00 0.  1.
        -13    1    5    5    0    0  0.21207938883E+03 -0.14915435354E+03  0.31065398521E+03  0.40463636375E+03  0.00000000000E+00 0. -1.
          2    1    6    6  503    0 -0.34076390433E+03  0.21777693028E+02  0.60754634650E+03  0.69692673184E+03  0.00000000000E+00 0. -1.
         -2    1    6    6    0  503 -0.54510805736E+01  0.17810223571E+02  0.37600588105E+02  0.41960964824E+02  0.00000000000E+00 0.  1.
<mgrwt>
<rscale>  0 0.21858783E+04</rscale>
<asrwt>0</asrwt>
<pdfrwt beam="1">  1        2 0.13029580E+00 0.21858783E+04</pdfrwt>
<pdfrwt beam="2">  1       -1 0.21698755E+00 0.21858783E+04</pdfrwt>
<totfact> 0.38391762E+00</totfact>
</mgrwt>
</event>
<event>
12    7  0.1544987E-007  0.1590082E+04  0.7818608E-02  0.8826664E-01
          2   -1    0    0  501    0  0.00000000000E+00  0.00000000000E+00  0.16583540878E+04  0.16583540878E+04  0.00000000000E+00 0. -1.
         -1   -1    0    0    0  501 -0.00000000000E+00 -0.00000000000E+00 -0.38115532658E+03  0.38115532658E+03  0.00000000000E+00 0.  1.
         24    2    1    2    0    0  0.34982727329E+03  0.40705807852E+03  0.29443319314E+03  0.61704930167E+03  0.77353313106E+02 0.  0.
        254    2    1    2    0    0 -0.34982727329E+03 -0.40705807852E+03  0.98276556811E+03  0.14224601127E+04  0.87720534087E+03 0.  0.
         23    2    4    4    0    0 -0.49244926681E+03 -0.11880848821E+02  0.22169949695E+03  0.54834548623E+03  0.94258529431E+02 0.  0.
         23    2    4    4    0    0  0.14262199352E+03 -0.39517722970E+03  0.76106607116E+03  0.87411462651E+03  0.91371438114E+02 0.  0.
          4    1    3    3  502    0 -0.38225174392E+01  0.57653142201E+01  0.10837024779E+01  0.70017782520E+01  0.00000000000E+00 0. -1.
         -1    1    3    3    0  502  0.35364979073E+03  0.40129276430E+03  0.29334949066E+03  0.61004752342E+03  0.00000000000E+00 0.  1.
         13    1    5    5    0    0 -0.98849681866E+02 -0.37623596335E+02  0.30948806183E+02  0.11020264611E+03  0.00000000000E+00 0. -1.
        -13    1    5    5    0    0 -0.39359958494E+03  0.25742747514E+02  0.19075069077E+03  0.43814284011E+03  0.00000000000E+00 0.  1.
          3    1    6    6  503    0  0.14553535421E+01  0.38655280218E+01  0.11847672508E+01  0.42969796669E+01  0.00000000000E+00 0. -1.
         -3    1    6    6    0  503  0.14116663998E+03 -0.39904275772E+03  0.75988130391E+03  0.86981764685E+03  0.00000000000E+00 0.  1.
<mgrwt>
<rscale>  0 0.15900824E+04</rscale>
<asrwt>0</asrwt>
<pdfrwt beam="1">  1        2 0.25513139E+00 0.15900824E+04</pdfrwt>
<pdfrwt beam="2">  1       -1 0.58639282E-01 0.15900824E+04</pdfrwt>
<totfact> 0.33333103E+01</totfact>
</mgrwt>
</event>
<event>
12    7  0.1544987E-007  0.1853850E+04  0.7818608E-02  0.8678175E-01
          2   -1    0    0  501    0  0.00000000000E+00  0.00000000000E+00  0.54988044902E+03  0.54988044902E+03  0.00000000000E+00 0. -1.
         -1   -1    0    0    0  501 -0.00000000000E+00 -0.00000000000E+00 -0.15625035279E+04  0.15625035279E+04  0.00000000000E+00 0.  1.
         24    2    1    2    0    0 -0.45765812245E+03  0.42776183850E+03 -0.27708367898E+01  0.63144013249E+03  0.79232669188E+02 0.  0.
        254    2    1    2    0    0  0.45765812245E+03 -0.42776183850E+03 -0.10098522421E+04  0.14809438444E+04  0.88372052820E+03 0.  0.
         23    2    4    4    0    0  0.40909649477E+03 -0.44517994894E+03 -0.17004772623E+03  0.63451721668E+03  0.90281449357E+02 0.  0.
         23    2    4    4    0    0  0.48561627682E+02  0.17418110440E+02 -0.83980451587E+03  0.84642662775E+03  0.92221413089E+02 0.  0.
          4    1    3    3  502    0 -0.18026159485E+03  0.22237987745E+03 -0.35703996107E+01  0.28628622081E+03  0.00000000000E+00 0. -1.
         -3    1    3    3    0  502 -0.27739652760E+03  0.20538196105E+03  0.79956282084E+00  0.34515391168E+03  0.00000000000E+00 0.  1.
         13    1    5    5    0    0  0.81547867498E+02 -0.14721254806E+03 -0.54384101405E+02  0.17685932117E+03  0.00000000000E+00 0.  1.
        -13    1    5    5    0    0  0.32754862727E+03 -0.29796740088E+03 -0.11566362483E+03  0.45765789551E+03  0.00000000000E+00 0. -1.
          1    1    6    6  503    0  0.42538777361E+02 -0.32048436958E+02 -0.34030879658E+03  0.34445134187E+03  0.00000000000E+00 0. -1.
         -1    1    6    6    0  503  0.60228503207E+01  0.49466547398E+02 -0.49949571929E+03  0.50197528587E+03  0.00000000000E+00 0.  1.
<mgrwt>
<rscale>  0 0.18538502E+04</rscale>
<asrwt>0</asrwt>
<pdfrwt beam="1">  1        2 0.84596995E-01 0.18538502E+04</pdfrwt>
<pdfrwt beam="2">  1       -1 0.24038515E+00 0.18538502E+04</pdfrwt>
<totfact> 0.47662450E+00</totfact>
</mgrwt>
</event>
<event>
12    7  0.1544987E-007  0.2824303E+04  0.7818608E-02  0.8295763E-01
          2   -1    0    0  501    0  0.00000000000E+00  0.00000000000E+00  0.14479293221E+04  0.14479293221E+04  0.00000000000E+00 0. -1.
         -1   -1    0    0    0  501 -0.00000000000E+00 -0.00000000000E+00 -0.13772574103E+04  0.13772574103E+04  0.00000000000E+00 0.  1.
         24    2    1    2    0    0 -0.90745074133E+03  0.60594215337E+03 -0.63542293487E+03  0.12651842777E+04  0.79348655522E+02 0.  0.
        254    2    1    2    0    0  0.90745074133E+03 -0.60594215337E+03  0.70609484670E+03  0.15600024547E+04  0.86278907329E+03 0.  0.
         23    2    4    4    0    0  0.65660832705E+03 -0.13149523655E+03  0.75481371947E+03  0.10131995167E+04  0.91673426811E+02 0.  0.
         23    2    4    4    0    0  0.25084241428E+03 -0.47444691682E+03 -0.48718872765E+02  0.54680293800E+03  0.92726106126E+02 0.  0.
          4    1    3    3  502    0 -0.29498217749E+01  0.50473529296E+01 -0.11232398194E+02  0.12662700711E+02  0.00000000000E+00 0. -1.
         -3    1    3    3    0  502 -0.90450091956E+03  0.60089480044E+03 -0.62419053668E+03  0.12525215770E+04  0.00000000000E+00 0.  1.
         13    1    5    5    0    0  0.19361948625E+03 -0.21113778273E+00  0.24234366774E+03  0.31019188147E+03  0.00000000000E+00 0. -1.
        -13    1    5    5    0    0  0.46298884080E+03 -0.13128409877E+03  0.51247005172E+03  0.70300763524E+03  0.00000000000E+00 0.  1.
          2    1    6    6  503    0  0.21868936367E+03 -0.44589150404E+03 -0.64902335473E+02  0.50085585182E+03  0.00000000000E+00 0.  1.
         -2    1    6    6    0  503  0.32153050615E+02 -0.28555412787E+02  0.16183462708E+02  0.45947086181E+02  0.00000000000E+00 0. -1.
<mgrwt>
<rscale>  0 0.28243027E+04</rscale>
<asrwt>0</asrwt>
<pdfrwt beam="1">  1        2 0.22275836E+00 0.28243027E+04</pdfrwt>
<pdfrwt beam="2">  1       -1 0.21188575E+00 0.28243027E+04</pdfrwt>
<totfact> 0.16774190E+00</totfact>
</mgrwt>
</event>
<event>
12    7  0.1544987E-007  0.1614496E+04  0.7818608E-02  0.8811692E-01
          2   -1    0    0  501    0  0.00000000000E+00  0.00000000000E+00  0.37499991442E+03  0.37499991442E+03  0.00000000000E+00 0. -1.
         -3   -1    0    0    0  501 -0.00000000000E+00 -0.00000000000E+00 -0.17377320063E+04  0.17377320063E+04  0.00000000000E+00 0.  1.
         24    2    1    2    0    0  0.51452437300E+02 -0.47188022904E+03 -0.79562076273E+03  0.92991738908E+03  0.80097743772E+02 0.  0.
        254    2    1    2    0    0 -0.51452437300E+02  0.47188022904E+03 -0.56711132915E+03  0.11828145316E+04  0.92310164812E+03 0.  0.
         23    2    4    4    0    0 -0.24271609777E+03  0.24422661160E+03 -0.74469380014E+03  0.82535065706E+03  0.89872738960E+02 0.  0.
         23    2    4    4    0    0  0.19126366047E+03  0.22765361744E+03  0.17758247099E+03  0.35746387459E+03  0.88526438311E+02 0.  0.
          4    1    3    3  502    0 -0.21409134782E+02 -0.11092381251E+03 -0.17617044193E+03  0.20928083487E+03  0.00000000000E+00 0. -1.
         -3    1    3    3    0  502  0.72861572082E+02 -0.36095641653E+03 -0.61945032080E+03  0.72063655421E+03  0.00000000000E+00 0.  1.
         13    1    5    5    0    0 -0.15673795907E+03  0.99579167270E+02 -0.34804068899E+03  0.39448082280E+03  0.00000000000E+00 0. -1.
        -13    1    5    5    0    0 -0.85978138706E+02  0.14464744433E+03 -0.39665311115E+03  0.43086983426E+03  0.00000000000E+00 0.  1.
          3    1    6    6  503    0  0.51356273198E+02  0.91446458714E+02  0.20507686333E+02  0.10686667772E+03  0.00000000000E+00 0. -1.
         -3    1    6    6    0  503  0.13990738727E+03  0.13620715873E+03  0.15707478466E+03  0.25059719687E+03  0.00000000000E+00 0.  1.
<mgrwt>
<rscale>  0 0.16144960E+04</rscale>
<asrwt>0</asrwt>
<pdfrwt beam="1">  1        2 0.57692294E-01 0.16144960E+04</pdfrwt>
<pdfrwt beam="2">  1       -3 0.26734339E+00 0.16144960E+04</pdfrwt>
<totfact> 0.29680331E+00</totfact>
</mgrwt>
</event>
<event>
12    7  0.1544987E-007  0.1465969E+04  0.7818608E-02  0.8907404E-01
          2   -1    0    0  501    0  0.00000000000E+00  0.00000000000E+00  0.28461907940E+03  0.28461907940E+03  0.00000000000E+00 0. -1.
         -1   -1    0    0    0  501 -0.00000000000E+00 -0.00000000000E+00 -0.18876668858E+04  0.18876668858E+04  0.00000000000E+00 0.  1.
         24    2    1    2    0    0 -0.37516679995E+03 -0.20061641433E+03 -0.27230366307E+03  0.51135567199E+03  0.79613220469E+02 0.  0.
        254    2    1    2    0    0  0.37516679995E+03  0.20061641433E+03 -0.13307441433E+04  0.16609302932E+04  0.89822736008E+03 0.  0.
         23    2    4    4    0    0  0.34058227528E+03  0.31780377462E+03 -0.19399043392E+03  0.51392841666E+03  0.97440256551E+02 0.  0.
         23    2    4    4    0    0  0.34584524667E+02 -0.11718736029E+03 -0.11367537094E+04  0.11470018765E+04  0.92061621739E+02 0.  0.
          2    1    3    3  502    0 -0.33861778239E+03 -0.20211051443E+03 -0.23475273040E+03  0.45893300930E+03  0.00000000000E+00 0. -1.
         -1    1    3    3    0  502 -0.36549017559E+02  0.14941000963E+01 -0.37550932665E+02  0.52422662691E+02  0.00000000000E+00 0.  1.
         13    1    5    5    0    0  0.16228152232E+02 -0.35272692044E+01  0.26370787854E+01  0.16815134178E+02  0.00000000000E+00 0.  1.
        -13    1    5    5    0    0  0.32435412305E+03  0.32133104383E+03 -0.19662751271E+03  0.49711328248E+03  0.00000000000E+00 0. -1.
          1    1    6    6  503    0  0.18346973251E+02 -0.80990514403E+02 -0.10260378418E+04  0.10293928928E+04  0.00000000000E+00 0. -1.
         -1    1    6    6    0  503  0.16237551415E+02 -0.36196845889E+02 -0.11071586756E+03  0.11760898375E+03  0.00000000000E+00 0.  1.
<mgrwt>
<rscale>  0 0.14659686E+04</rscale>
<asrwt>0</asrwt>
<pdfrwt beam="1">  1        2 0.43787552E-01 0.14659686E+04</pdfrwt>
<pdfrwt beam="2">  1       -1 0.29041028E+00 0.14659686E+04</pdfrwt>
<totfact> 0.49341259E+00</totfact>
</mgrwt>
</event>
<event>
12    7  0.1544987E-007  0.2422696E+04  0.7818608E-02  0.8431055E-01
         -1   -1    0    0    0  501 -0.00000000000E+00  0.00000000000E+00  0.83569828152E+03  0.83569828152E+03  0.00000000000E+00 0.  1.
          2   -1    0    0  501    0  0.00000000000E+00 -0.00000000000E+00 -0.17558540400E+04  0.17558540400E+04  0.00000000000E+00 0. -1.
         24    2    1    2    0    0 -0.12319345442E+03 -0.10058370137E+04 -0.16178772257E+03  0.10293618880E+04  0.80783067070E+02 0.  0.
        254    2    1    2    0    0  0.12319345442E+03  0.10058370137E+04 -0.75836803594E+03  0.15621904336E+04  0.91565940591E+03 0.  0.
         23    2    4    4    0    0 -0.20984407928E+03  0.70872700684E+03 -0.85728191040E+02  0.74948381371E+03  0.89711517873E+02 0.  0.
         23    2    4    4    0    0  0.33303753369E+03  0.29711000682E+03 -0.67263984490E+03  0.81270661989E+03  0.94124035558E+02 0.  0.
          4    1    3    3  502    0 -0.12295843685E+03 -0.97625454112E+03 -0.14296767066E+03  0.99429948261E+03  0.00000000000E+00 0. -1.
         -3    1    3    3    0  502 -0.23501756541E+00 -0.29582472539E+02 -0.18820051904E+02  0.35062405343E+02  0.00000000000E+00 0.  1.
         13    1    5    5    0    0 -0.82005962791E+02  0.26378055141E+03  0.11353591752E+02  0.27646710705E+03  0.00000000000E+00 0.  1.
        -13    1    5    5    0    0 -0.12783811649E+03  0.44494645543E+03 -0.97081782792E+02  0.47301670666E+03  0.00000000000E+00 0. -1.
          1    1    6    6  503    0  0.17773933602E+03  0.98589106617E+02 -0.32467039571E+03  0.38304301242E+03  0.00000000000E+00 0. -1.
         -1    1    6    6    0  503  0.15529819768E+03  0.19852090021E+03 -0.34796944918E+03  0.42966360747E+03  0.00000000000E+00 0.  1.
<mgrwt>
<rscale>  0 0.24226962E+04</rscale>
<asrwt>0</asrwt>
<pdfrwt beam="1">  1        2 0.27013139E+00 0.24226962E+04</pdfrwt>
<pdfrwt beam="2">  1       -1 0.12856897E+00 0.24226962E+04</pdfrwt>
<totfact> 0.48653198E+00</totfact>
</mgrwt>
</event>
<event>
12    7  0.1544987E-007  0.2375670E+04  0.7818608E-02  0.8448669E-01
         -1   -1    0    0    0  501 -0.00000000000E+00  0.00000000000E+00  0.92479113916E+03  0.92479113916E+03  0.00000000000E+00 0.  1.
          2   -1    0    0  501    0  0.00000000000E+00 -0.00000000000E+00 -0.15256974669E+04  0.15256974669E+04  0.00000000000E+00 0. -1.
         24    2    1    2    0    0 -0.42115939766E+03  0.92801627157E+03 -0.22077215301E+03  0.10457532933E+04  0.79184394162E+02 0.  0.
        254    2    1    2    0    0  0.42115939766E+03 -0.92801627157E+03 -0.38013417477E+03  0.14047353128E+04  0.88892624542E+03 0.  0.
         23    2    4    4    0    0 -0.16443706195E+03 -0.63370092127E+03 -0.41543041395E+02  0.66161817692E+03  0.86002225459E+02 0.  0.
         23    2    4    4    0    0  0.58559645961E+03 -0.29431535029E+03 -0.33859113338E+03  0.74311713592E+03  0.89634720811E+02 0.  0.
          4    1    3    3  502    0 -0.12465037227E+03  0.28028478534E+03 -0.29610707710E+02  0.30817863361E+03  0.00000000000E+00 0. -1.
         -3    1    3    3    0  502 -0.29650902539E+03  0.64773148623E+03 -0.19116144530E+03  0.73757465965E+03  0.00000000000E+00 0.  1.
         13    1    5    5    0    0 -0.11595584186E+03 -0.42829240724E+03 -0.68079287860E+02  0.44890414656E+03  0.00000000000E+00 0.  1.
        -13    1    5    5    0    0 -0.48481220090E+02 -0.20540851403E+03  0.26536246465E+02  0.21271403037E+03  0.00000000000E+00 0. -1.
          4    1    6    6  503    0  0.29781037125E+03 -0.19733070435E+03 -0.19815851629E+03  0.40853056395E+03  0.00000000000E+00 0. -1.
         -4    1    6    6    0  503  0.28778608836E+03 -0.96984645940E+02 -0.14043261709E+03  0.33458657197E+03  0.00000000000E+00 0.  1.
<mgrwt>
<rscale>  0 0.23756696E+04</rscale>
<asrwt>0</asrwt>
<pdfrwt beam="1">  1        2 0.23472269E+00 0.23756696E+04</pdfrwt>
<pdfrwt beam="2">  1       -1 0.14227556E+00 0.23756696E+04</pdfrwt>
<totfact> 0.50623120E+00</totfact>
</mgrwt>
</event>
<event>
12    7  0.1544987E-007  0.1389071E+04  0.7818608E-02  0.8961768E-01
          2   -1    0    0  501    0  0.00000000000E+00  0.00000000000E+00  0.21939256346E+04  0.21939256346E+04  0.00000000000E+00 0. -1.
         -1   -1    0    0    0  501 -0.00000000000E+00 -0.00000000000E+00 -0.21987043128E+03  0.21987043128E+03  0.00000000000E+00 0.  1.
         24    2    1    2    0    0  0.64294081004E+02 -0.92429952791E+02  0.12406467330E+04  0.12482666311E+04  0.79298431928E+02 0.  0.
        254    2    1    2    0    0 -0.64294081004E+02  0.92429952791E+02  0.73340847033E+03  0.11655294347E+04  0.89882915723E+03 0.  0.
         23    2    4    4    0    0  0.60725876286E+02 -0.36665904715E+03  0.15703546165E+03  0.41267326578E+03  0.86675251135E+02 0.  0.
         23    2    4    4    0    0 -0.12501995729E+03  0.45908899994E+03  0.57637300867E+03  0.75285616897E+03  0.90519978117E+02 0.  0.
          4    1    3    3  502    0  0.70916756121E+02 -0.59102200152E+02  0.10867191935E+04  0.10906332390E+04  0.00000000000E+00 0. -1.
         -3    1    3    3    0  502 -0.66226751167E+01 -0.33327752639E+02  0.15392753947E+03  0.15763339218E+03  0.00000000000E+00 0.  1.
         13    1    5    5    0    0  0.60340804515E+02 -0.36177765073E+03  0.13616359011E+03  0.39123471795E+03  0.00000000000E+00 0.  1.
        -13    1    5    5    0    0  0.38507177074E+00 -0.48813964266E+01  0.20871871542E+02  0.21438547829E+02  0.00000000000E+00 0. -1.
          1    1    6    6  503    0 -0.57790977768E+02  0.86401633895E+02  0.99390332011E+02  0.14381751475E+03  0.00000000000E+00 0. -1.
         -1    1    6    6    0  503 -0.67228979523E+02  0.37268736605E+03  0.47698267666E+03  0.60903865422E+03  0.00000000000E+00 0.  1.
<mgrwt>
<rscale>  0 0.13890707E+04</rscale>
<asrwt>0</asrwt>
<pdfrwt beam="1">  1        2 0.33752700E+00 0.13890707E+04</pdfrwt>
<pdfrwt beam="2">  1       -1 0.33826222E-01 0.13890707E+04</pdfrwt>
<totfact> 0.47706118E+01</totfact>
</mgrwt>
</event>
<event>
12    7  0.1544987E-007  0.1593327E+04  0.7818608E-02  0.8824658E-01
         -1   -1    0    0    0  501 -0.00000000000E+00  0.00000000000E+00  0.56209257745E+03  0.56209257745E+03  0.00000000000E+00 0.  1.
          2   -1    0    0  501    0  0.00000000000E+00 -0.00000000000E+00 -0.11291250551E+04  0.11291250551E+04  0.00000000000E+00 0. -1.
         24    2    1    2    0    0  0.22581544861E+03  0.44821816393E+02  0.31743484105E+03  0.39976425712E+03  0.77749410939E+02 0.  0.
        254    2    1    2    0    0 -0.22581544861E+03 -0.44821816393E+02 -0.88446731869E+03  0.12914533754E+04  0.91245151707E+03 0.  0.
         23    2    4    4    0    0 -0.49162534667E+03  0.18088548340E+03 -0.72222007237E+03  0.89622605011E+03  0.84877914513E+02 0.  0.
         23    2    4    4    0    0  0.26580989806E+03 -0.22570729980E+03 -0.16224724632E+03  0.39522732531E+03  0.91004300158E+02 0.  0.
          2    1    3    3  502    0  0.37476297097E+02 -0.21454837317E+02  0.51173704426E+02  0.66959173479E+02  0.00000000000E+00 0. -1.
         -1    1    3    3    0  502  0.18833915152E+03  0.66276653710E+02  0.26626113663E+03  0.33280508364E+03  0.00000000000E+00 0.  1.
         13    1    5    5    0    0 -0.34898509093E+03  0.13836637789E+03 -0.57626620590E+03  0.68776346827E+03  0.00000000000E+00 0. -1.
        -13    1    5    5    0    0 -0.14264025575E+03  0.42519105510E+02 -0.14595386647E+03  0.20846258184E+03  0.00000000000E+00 0.  1.
          2    1    6    6  503    0  0.25658896804E+03 -0.20408911968E+03 -0.12437606497E+03  0.35065606059E+03  0.00000000000E+00 0. -1.
         -2    1    6    6    0  503  0.92209300226E+01 -0.21618180111E+02 -0.37871181354E+02  0.44571264722E+02  0.00000000000E+00 0.  1.
<mgrwt>
<rscale>  0 0.15933271E+04</rscale>
<asrwt>0</asrwt>
<pdfrwt beam="1">  1        2 0.17371155E+00 0.15933271E+04</pdfrwt>
<pdfrwt beam="2">  1       -1 0.86475781E-01 0.15933271E+04</pdfrwt>
<totfact> 0.30171613E+01</totfact>
</mgrwt>
</event>
<event>
12    7  0.1544987E-007  0.1670789E+04  0.7818608E-02  0.8778202E-01
          2   -1    0    0  501    0  0.00000000000E+00  0.00000000000E+00  0.16125269228E+04  0.16125269228E+04  0.00000000000E+00 0. -1.
         -1   -1    0    0    0  501 -0.00000000000E+00 -0.00000000000E+00 -0.43278912991E+03  0.43278912991E+03  0.00000000000E+00 0.  1.
         24    2    1    2    0    0 -0.30198619440E+03  0.13971667527E+03  0.10219554052E+04  0.10776099889E+04  0.78320030487E+02 0.  0.
        254    2    1    2    0    0  0.30198619440E+03 -0.13971667527E+03  0.15778238778E+03  0.96770606382E+03  0.89489850436E+03 0.  0.
         23    2    4    4    0    0  0.70181945117E+02  0.23283352480E+03  0.38597158016E+03  0.46467687126E+03  0.88394447240E+02 0.  0.
         23    2    4    4    0    0  0.23180424928E+03 -0.37255020007E+03 -0.22818919238E+03  0.50302919256E+03  0.91876000622E+02 0.  0.
          2    1    3    3  502    0 -0.21781634616E+03  0.12705514986E+03  0.83382185844E+03  0.87111759446E+03  0.00000000000E+00 0. -1.
         -1    1    3    3    0  502 -0.84169848243E+02  0.12661525411E+02  0.18813354672E+03  0.20649239448E+03  0.00000000000E+00 0.  1.
         13    1    5    5    0    0  0.39042682320E+02  0.18212901219E+03  0.34613194596E+03  0.39306822835E+03  0.00000000000E+00 0. -1.
        -13    1    5    5    0    0  0.31139262798E+02  0.50704512603E+02  0.39839634199E+02  0.71608642907E+02  0.00000000000E+00 0.  1.
          2    1    6    6  503    0  0.11589237901E+03 -0.26719283235E+03 -0.13804093061E+03  0.32230164705E+03  0.00000000000E+00 0. -1.
         -2    1    6    6    0  503  0.11591187028E+03 -0.10535736772E+03 -0.90148261773E+02  0.18072754551E+03  0.00000000000E+00 0.  1.
<mgrwt>
<rscale>  0 0.16707892E+04</rscale>
<asrwt>0</asrwt>
<pdfrwt beam="1">  1        2 0.24808106E+00 0.16707892E+04</pdfrwt>
<pdfrwt beam="2">  1       -1 0.66582944E-01 0.16707892E+04</pdfrwt>
<totfact> 0.27249996E+01</totfact>
</mgrwt>
</event>
<event>
12    7  0.1544987E-007  0.1851108E+04  0.7818608E-02  0.8679583E-01
          2   -1    0    0  501    0  0.00000000000E+00  0.00000000000E+00  0.20837811462E+04  0.20837811462E+04  0.00000000000E+00 0. -1.
         -1   -1    0    0    0  501 -0.00000000000E+00 -0.00000000000E+00 -0.41110387839E+03  0.41110387839E+03  0.00000000000E+00 0.  1.
         24    2    1    2    0    0 -0.61507269975E+02 -0.61590794579E+03  0.21461658640E+03  0.66001257577E+03  0.80190891406E+02 0.  0.
        254    2    1    2    0    0  0.61507269975E+02  0.61590794579E+03  0.14580606814E+04  0.18348724488E+04  0.92611565738E+03 0.  0.
         23    2    4    4    0    0  0.26304204026E+03  0.26758357129E+03  0.13559880875E+04  0.14100111434E+04  0.92928189209E+02 0.  0.
         23    2    4    4    0    0 -0.20153477029E+03  0.34832437450E+03  0.10207259385E+03  0.42486130543E+03  0.90234034214E+02 0.  0.
          2    1    3    3  502    0 -0.26451045312E+02 -0.37755472649E+03  0.17040350574E+03  0.41507178182E+03  0.00000000000E+00 0. -1.
         -1    1    3    3    0  502 -0.35056224663E+02 -0.23835321930E+03  0.44213080659E+02  0.24494079395E+03  0.00000000000E+00 0.  1.
         13    1    5    5    0    0 -0.77784618275E+01  0.87902867689E+01  0.33555631610E+02  0.35549318174E+02  0.00000000000E+00 0. -1.
        -13    1    5    5    0    0  0.27082050209E+03  0.25879328452E+03  0.13224324559E+04  0.13744618252E+04  0.00000000000E+00 0.  1.
          3    1    6    6  503    0 -0.19189292905E+02  0.58568374529E+00  0.96317248361E+01  0.21478875924E+02  0.00000000000E+00 0. -1.
         -3    1    6    6    0  503 -0.18234547738E+03  0.34773869076E+03  0.92440869019E+02  0.40338242951E+03  0.00000000000E+00 0.  1.
<mgrwt>
<rscale>  0 0.18511083E+04</rscale>
<asrwt>0</asrwt>
<pdfrwt beam="1">  1        2 0.32058171E+00 0.18511083E+04</pdfrwt>
<pdfrwt beam="2">  1       -1 0.63246752E-01 0.18511083E+04</pdfrwt>
<totfact> 0.16288066E+01</totfact>
</mgrwt>
</event>
<event>
12    7  0.1544987E-007  0.1762490E+04  0.7818608E-02  0.8726505E-01
         -1   -1    0    0    0  501 -0.00000000000E+00  0.00000000000E+00  0.76430903083E+03  0.76430903083E+03  0.00000000000E+00 0.  1.
          2   -1    0    0  501    0  0.00000000000E+00 -0.00000000000E+00 -0.10160712910E+04  0.10160712910E+04  0.00000000000E+00 0. -1.
         24    2    1    2    0    0 -0.18964653884E+03 -0.61167432485E+03 -0.81201920563E+02  0.65027979242E+03  0.78477813171E+02 0.  0.
        254    2    1    2    0    0  0.18964653884E+03  0.61167432485E+03 -0.17056033962E+03  0.11301005294E+04  0.91538248167E+03 0.  0.
         23    2    4    4    0    0  0.37970488562E+03 -0.31424939869E+02 -0.22122306209E+03  0.45147482881E+03  0.98623277356E+02 0.  0.
         23    2    4    4    0    0 -0.19005834678E+03  0.64309926472E+03  0.50662722477E+02  0.67862570060E+03  0.90924642462E+02 0.  0.
          4    1    3    3  502    0 -0.39573577989E+02 -0.61407446755E+02  0.59462017110E+01  0.73295974695E+02  0.00000000000E+00 0. -1.
         -1    1    3    3    0  502 -0.15007296085E+03 -0.55026687809E+03 -0.87148122274E+02  0.57698381773E+03  0.00000000000E+00 0.  1.
         13    1    5    5    0    0  0.29626227986E+03  0.10425458101E+01 -0.20552349711E+03  0.36057223026E+03  0.00000000000E+00 0. -1.
        -13    1    5    5    0    0  0.83442605759E+02 -0.32467485679E+02 -0.15699564982E+02  0.90902598548E+02  0.00000000000E+00 0.  1.
          1    1    6    6  503    0 -0.11916127697E+03  0.27153461118E+03 -0.31613196202E+01  0.29654754920E+03  0.00000000000E+00 0. -1.
         -1    1    6    6    0  503 -0.70897069809E+02  0.37156465354E+03  0.53824042097E+02  0.38207815140E+03  0.00000000000E+00 0.  1.
<mgrwt>
<rscale>  0 0.17624897E+04</rscale>
<asrwt>0</asrwt>
<pdfrwt beam="1">  1        2 0.15631866E+00 0.17624897E+04</pdfrwt>
<pdfrwt beam="2">  1       -1 0.11758601E+00 0.17624897E+04</pdfrwt>
<totfact> 0.17288711E+01</totfact>
</mgrwt>
</event>
<event>
12    7  0.1544987E-007  0.1555279E+04  0.7818608E-02  0.8848503E-01
          2   -1    0    0  501    0  0.00000000000E+00  0.00000000000E+00  0.20283056611E+04  0.20283056611E+04  0.00000000000E+00 0. -1.
         -1   -1    0    0    0  501 -0.00000000000E+00 -0.00000000000E+00 -0.29814214539E+03  0.29814214539E+03  0.00000000000E+00 0.  1.
         24    2    1    2    0    0  0.45920336340E+03  0.53706244921E+01  0.93296908299E+03  0.10434947659E+04  0.86910552087E+02 0.  0.
        254    2    1    2    0    0 -0.45920336340E+03 -0.53706244921E+01  0.79719443270E+03  0.12829530406E+04  0.89417725771E+03 0.  0.
         23    2    4    4    0    0 -0.28816153199E+03 -0.41864410162E+03  0.58189568660E+03  0.77804824022E+03  0.91959347997E+02 0.  0.
         23    2    4    4    0    0 -0.17104183141E+03  0.41327347713E+03  0.21529874610E+03  0.50490480034E+03  0.92331101727E+02 0.  0.
          2    1    3    3  502    0  0.45465212825E+03  0.47999558141E+01  0.88179876138E+03  0.99211927351E+03  0.00000000000E+00 0. -1.
         -1    1    3    3    0  502  0.45512351571E+01  0.57066867798E+00  0.51170321611E+02  0.51375492387E+02  0.00000000000E+00 0.  1.
         13    1    5    5    0    0 -0.42549020489E+02 -0.67267091181E+02  0.46572472190E+02  0.92218630799E+02  0.00000000000E+00 0.  1.
        -13    1    5    5    0    0 -0.24561251150E+03 -0.35137701044E+03  0.53532321441E+03  0.68582960942E+03  0.00000000000E+00 0. -1.
          3    1    6    6  503    0 -0.12726516738E+03  0.21727978394E+03  0.86141545578E+02  0.26613397605E+03  0.00000000000E+00 0. -1.
         -3    1    6    6    0  503 -0.43776664031E+02  0.19599369320E+03  0.12915720052E+03  0.23877082429E+03  0.00000000000E+00 0.  1.
<mgrwt>
<rscale>  0 0.15552793E+04</rscale>
<asrwt>0</asrwt>
<pdfrwt beam="1">  1        2 0.31204702E+00 0.15552793E+04</pdfrwt>
<pdfrwt beam="2">  1       -1 0.45868024E-01 0.15552793E+04</pdfrwt>
<totfact> 0.33378623E+01</totfact>
</mgrwt>
</event>
<event>
12    7  0.1544987E-007  0.2273447E+04  0.7818608E-02  0.8488465E-01
         -1   -1    0    0    0  501 -0.00000000000E+00  0.00000000000E+00  0.35720212151E+03  0.35720212151E+03  0.00000000000E+00 0.  1.
          2   -1    0    0  501    0  0.00000000000E+00 -0.00000000000E+00 -0.36173924857E+04  0.36173924857E+04  0.00000000000E+00 0. -1.
         24    2    1    2    0    0  0.29320543544E+03  0.42650006468E+03  0.29254589809E+02  0.52461975604E+03  0.80612188057E+02 0.  0.
        254    2    1    2    0    0 -0.29320543544E+03 -0.42650006468E+03 -0.32894449540E+04  0.34499748512E+04  0.90222316298E+03 0.  0.
         23    2    4    4    0    0 -0.40711460392E+03 -0.22898273818E+03 -0.68718654786E+03  0.83611077695E+03  0.93169118652E+02 0.  0.
         23    2    4    4    0    0  0.11390916848E+03 -0.19751732649E+03 -0.26022584061E+04  0.26138640742E+04  0.92456439770E+02 0.  0.
          2    1    3    3  502    0  0.10448860420E+03  0.14600787004E+03  0.48578241733E+02  0.18600003250E+03  0.00000000000E+00 0. -1.
         -1    1    3    3    0  502  0.18871683124E+03  0.28049219464E+03 -0.19323651924E+02  0.33861972354E+03  0.00000000000E+00 0.  1.
         13    1    5    5    0    0 -0.56595866715E+02  0.14393081805E+01 -0.73968814026E+02  0.93147996144E+02  0.00000000000E+00 0. -1.
        -13    1    5    5    0    0 -0.35051873720E+03 -0.23042204637E+03 -0.61321773383E+03  0.74296278081E+03  0.00000000000E+00 0.  1.
          1    1    6    6  503    0 -0.81213436283E+00  0.83271474947E+01 -0.17306263389E+03  0.17326475752E+03  0.00000000000E+00 0. -1.
         -1    1    6    6    0  503  0.11472130284E+03 -0.20584447399E+03 -0.24291957722E+04  0.24405993167E+04  0.00000000000E+00 0.  1.
<mgrwt>
<rscale>  0 0.22734470E+04</rscale>
<asrwt>0</asrwt>
<pdfrwt beam="1">  1        2 0.55652192E+00 0.22734470E+04</pdfrwt>
<pdfrwt beam="2">  1       -1 0.54954173E-01 0.22734470E+04</pdfrwt>
<totfact> 0.23285405E+00</totfact>
</mgrwt>
</event>
<event>
12    7  0.1544987E-007  0.1621929E+04  0.7818608E-02  0.8807188E-01
         -1   -1    0    0    0  501 -0.00000000000E+00  0.00000000000E+00  0.12526597889E+04  0.12526597889E+04  0.00000000000E+00 0.  1.
          2   -1    0    0  501    0  0.00000000000E+00 -0.00000000000E+00 -0.52501359625E+03  0.52501359625E+03  0.00000000000E+00 0. -1.
         24    2    1    2    0    0  0.34545029117E+03 -0.18409991708E+03  0.68818981338E+03  0.79571539443E+03  0.79555556414E+02 0.  0.
        254    2    1    2    0    0 -0.34545029117E+03  0.18409991708E+03  0.39456379244E+02  0.98195799070E+03  0.89969773063E+03 0.  0.
         23    2    4    4    0    0 -0.22189434182E+03 -0.18889984060E+03  0.35589029864E+03  0.46915231201E+03  0.92334925591E+02 0.  0.
         23    2    4    4    0    0 -0.12355594935E+03  0.37299975768E+03 -0.31643391940E+03  0.51280567870E+03  0.91893127651E+02 0.  0.
          2    1    3    3  502    0  0.12490431241E+03 -0.28412016299E+02  0.25331532149E+03  0.28386084977E+03  0.00000000000E+00 0. -1.
         -1    1    3    3    0  502  0.22054597876E+03 -0.15568790078E+03  0.43487449189E+03  0.51185454466E+03  0.00000000000E+00 0.  1.
         13    1    5    5    0    0 -0.69432592428E+02 -0.23991612971E+02  0.13747888292E+03  0.15587471133E+03  0.00000000000E+00 0. -1.
        -13    1    5    5    0    0 -0.15246174939E+03 -0.16490822763E+03  0.21841141573E+03  0.31327760068E+03  0.00000000000E+00 0.  1.
          3    1    6    6  503    0 -0.75149008986E+01  0.12458103337E+03 -0.13594084441E+03  0.18454490183E+03  0.00000000000E+00 0. -1.
         -3    1    6    6    0  503 -0.11604104846E+03  0.24841872430E+03 -0.18049307499E+03  0.32826077687E+03  0.00000000000E+00 0.  1.
<mgrwt>
<rscale>  0 0.16219290E+04</rscale>
<asrwt>0</asrwt>
<pdfrwt beam="1">  1        2 0.80771323E-01 0.16219290E+04</pdfrwt>
<pdfrwt beam="2">  1       -1 0.19271689E+00 0.16219290E+04</pdfrwt>
<totfact> 0.10760089E+01</totfact>
</mgrwt>
</event>
<event>
12    7  0.1544987E-007  0.1355971E+04  0.7818608E-02  0.8986320E-01
          2   -1    0    0  501    0  0.00000000000E+00  0.00000000000E+00  0.49668452274E+04  0.49668452274E+04  0.00000000000E+00 0. -1.
         -1   -1    0    0    0  501 -0.00000000000E+00 -0.00000000000E+00 -0.92546597247E+02  0.92546597247E+02  0.00000000000E+00 0.  1.
         24    2    1    2    0    0  0.16685977963E+03  0.10893401389E+03  0.25911039081E+04  0.25999748269E+04  0.79629345329E+02 0.  0.
        254    2    1    2    0    0 -0.16685977963E+03 -0.10893401389E+03  0.22831947221E+04  0.24594169977E+04  0.89221355316E+03 0.  0.
         23    2    4    4    0    0 -0.57197996176E+02  0.34899059613E+03  0.14716707763E+04  0.15165171254E+04  0.94568867777E+02 0.  0.
         23    2    4    4    0    0 -0.10966178346E+03 -0.45792461002E+03  0.81152394577E+03  0.94289987238E+03  0.93639732796E+02 0.  0.
          2    1    3    3  502    0  0.16248665060E+03  0.97299812755E+02  0.25502331003E+04  0.25572559573E+04  0.00000000000E+00 0. -1.
         -1    1    3    3    0  502  0.43731290309E+01  0.11634201131E+02  0.40870807795E+02  0.42718869640E+02  0.00000000000E+00 0.  1.
         13    1    5    5    0    0 -0.31334760230E+02  0.28316303138E+02  0.12464009007E+03  0.13160103447E+03  0.00000000000E+00 0. -1.
        -13    1    5    5    0    0 -0.25863235946E+02  0.32067429299E+03  0.13470306862E+04  0.13849160909E+04  0.00000000000E+00 0.  1.
          3    1    6    6  503    0  0.22543735675E+01 -0.18523289416E+03  0.30474132974E+03  0.35662807704E+03  0.00000000000E+00 0. -1.
         -3    1    6    6    0  503 -0.11191615702E+03 -0.27269171585E+03  0.50678261603E+03  0.58627179534E+03  0.00000000000E+00 0.  1.
<mgrwt>
<rscale>  0 0.13559714E+04</rscale>
<asrwt>0</asrwt>
<pdfrwt beam="1">  1        2 0.76412982E+00 0.13559714E+04</pdfrwt>
<pdfrwt beam="2">  1       -1 0.14237942E-01 0.13559714E+04</pdfrwt>
<totfact> 0.16014810E+00</totfact>
</mgrwt>
</event>
<event>
12    7  0.1544987E-007  0.1625035E+04  0.7818608E-02  0.8805314E-01
         -1   -1    0    0    0  501 -0.00000000000E+00  0.00000000000E+00  0.34028953879E+03  0.34028953879E+03  0.00000000000E+00 0.  1.
          2   -1    0    0  501    0  0.00000000000E+00 -0.00000000000E+00 -0.19400686286E+04  0.19400686286E+04  0.00000000000E+00 0. -1.
         24    2    1    2    0    0 -0.30565816424E+02  0.52235487475E+03 -0.81936555439E+03  0.97550917563E+03  0.80432305146E+02 0.  0.
        254    2    1    2    0    0  0.30565816424E+02 -0.52235487475E+03 -0.78041353541E+03  0.13048489918E+04  0.90542626465E+03 0.  0.
         23    2    4    4    0    0  0.21927127294E+03 -0.31270030259E+03  0.74747737129E+02  0.39968069701E+03  0.91082736992E+02 0.  0.
         23    2    4    4    0    0 -0.18870545652E+03 -0.20965457216E+03 -0.85516127254E+03  0.90516829474E+03  0.92000276138E+02 0.  0.
          4    1    3    3  502    0 -0.21157599943E+02  0.48476476703E+03 -0.78906305634E+03  0.92631799630E+03  0.00000000000E+00 0. -1.
         -3    1    3    3    0  502 -0.94082164807E+01  0.37590107724E+02 -0.30302498047E+02  0.49191179330E+02  0.00000000000E+00 0.  1.
         13    1    5    5    0    0 -0.40572991415E+01 -0.26630755128E+01  0.11369900617E+02  0.12362373864E+02  0.00000000000E+00 0. -1.
        -13    1    5    5    0    0  0.22332857209E+03 -0.31003722707E+03  0.63377836512E+02  0.38731832314E+03  0.00000000000E+00 0.  1.
          4    1    6    6  503    0 -0.19262898152E+03 -0.19744287897E+03 -0.74798402264E+03  0.79722626217E+03  0.00000000000E+00 0.  1.
         -4    1    6    6    0  503  0.39235250025E+01 -0.12211693199E+02 -0.10717724990E+03  0.10794203257E+03  0.00000000000E+00 0. -1.
<mgrwt>
<rscale>  0 0.16250355E+04</rscale>
<asrwt>0</asrwt>
<pdfrwt beam="1">  1        2 0.29847210E+00 0.16250355E+04</pdfrwt>
<pdfrwt beam="2">  1       -1 0.52352236E-01 0.16250355E+04</pdfrwt>
<totfact> 0.28910026E+01</totfact>
</mgrwt>
</event>
<event>
12    7  0.1544987E-007  0.2510510E+04  0.7818608E-02  0.8399251E-01
         -1   -1    0    0    0  501 -0.00000000000E+00  0.00000000000E+00  0.58211878624E+03  0.58211878624E+03  0.00000000000E+00 0.  1.
          2   -1    0    0  501    0  0.00000000000E+00 -0.00000000000E+00 -0.27067755626E+04  0.27067755626E+04  0.00000000000E+00 0. -1.
         24    2    1    2    0    0  0.50103369131E+03  0.29072252707E+03 -0.21601156170E+04  0.22379319379E+04  0.81765103955E+02 0.  0.
        254    2    1    2    0    0 -0.50103369131E+03 -0.29072252707E+03  0.35458840732E+02  0.10509624109E+04  0.87619079662E+03 0.  0.
         23    2    4    4    0    0 -0.40807668659E+03  0.15851697997E+03  0.27553094878E+03  0.52571153730E+03  0.93814186751E+02 0.  0.
         23    2    4    4    0    0 -0.92957004724E+02 -0.44923950704E+03 -0.24007210805E+03  0.52525087356E+03  0.88299058283E+02 0.  0.
          4    1    3    3  502    0  0.26910996313E+03  0.11323810285E+03 -0.10143432402E+04  0.10555260532E+04  0.00000000000E+00 0. -1.
         -3    1    3    3    0  502  0.23192372819E+03  0.17748442421E+03 -0.11457723769E+04  0.11824058847E+04  0.00000000000E+00 0.  1.
         13    1    5    5    0    0 -0.54054194838E+02  0.38637057878E+01  0.57216623395E+01  0.54493317222E+02  0.00000000000E+00 0.  1.
        -13    1    5    5    0    0 -0.35402249175E+03  0.15465327419E+03  0.26980928644E+03  0.47121822008E+03  0.00000000000E+00 0. -1.
          2    1    6    6  503    0 -0.49560428856E+02 -0.38587035400E+03 -0.21477462732E+03  0.44438756367E+03  0.00000000000E+00 0. -1.
         -2    1    6    6    0  503 -0.43396575868E+02 -0.63369153042E+02 -0.25297480726E+02  0.80863309884E+02  0.00000000000E+00 0.  1.
<mgrwt>
<rscale>  0 0.25105098E+04</rscale>
<asrwt>0</asrwt>
<pdfrwt beam="1">  1        2 0.41642700E+00 0.25105098E+04</pdfrwt>
<pdfrwt beam="2">  1       -1 0.89556738E-01 0.25105098E+04</pdfrwt>
<totfact> 0.32555694E+00</totfact>
</mgrwt>
</event>
<event>
12    7  0.1544987E-007  0.1533696E+04  0.7818608E-02  0.8862350E-01
          2   -1    0    0  501    0  0.00000000000E+00  0.00000000000E+00  0.15440738227E+04  0.15440738227E+04  0.00000000000E+00 0. -1.
         -1   -1    0    0    0  501 -0.00000000000E+00 -0.00000000000E+00 -0.38084680673E+03  0.38084680673E+03  0.00000000000E+00 0.  1.
         24    2    1    2    0    0 -0.20055398670E+03  0.22614487890E+03  0.87775451140E+03  0.93176534664E+03  0.79813978011E+02 0.  0.
        254    2    1    2    0    0  0.20055398670E+03 -0.22614487890E+03  0.28547250459E+03  0.99315528282E+03  0.90194204751E+03 0.  0.
         23    2    4    4    0    0 -0.27413196751E+03 -0.32974533356E+03  0.36675478870E+02  0.43975988143E+03  0.90351214415E+02 0.  0.
         23    2    4    4    0    0  0.47468595421E+03  0.10360045466E+03  0.24879702573E+03  0.55339540138E+03  0.91031318421E+02 0.  0.
          2    1    3    3  502    0 -0.11601615231E+03  0.18314348514E+03  0.57560201850E+03  0.61507639156E+03  0.00000000000E+00 0. -1.
         -1    1    3    3    0  502 -0.84537834387E+02  0.43001393756E+02  0.30215249290E+03  0.31668895508E+03  0.00000000000E+00 0.  1.
         13    1    5    5    0    0 -0.19423734840E+03 -0.28983121337E+03  0.27544246711E+02  0.34998423576E+03  0.00000000000E+00 0.  1.
        -13    1    5    5    0    0 -0.79894619117E+02 -0.39914120197E+02  0.91312321584E+01  0.89775645672E+02  0.00000000000E+00 0. -1.
          1    1    6    6  503    0  0.18425632019E+03 -0.36572891723E+01  0.10391145163E+03  0.21156879986E+03  0.00000000000E+00 0. -1.
         -1    1    6    6    0  503  0.29042963402E+03  0.10725774384E+03  0.14488557410E+03  0.34182660153E+03  0.00000000000E+00 0.  1.
<mgrwt>
<rscale>  0 0.15336956E+04</rscale>
<asrwt>0</asrwt>
<pdfrwt beam="1">  1        2 0.23754982E+00 0.15336956E+04</pdfrwt>
<pdfrwt beam="2">  1       -1 0.58591817E-01 0.15336956E+04</pdfrwt>
<totfact> 0.38857514E+01</totfact>
</mgrwt>
</event>
<event>
12    7  0.1544987E-007  0.1568718E+04  0.7818608E-02  0.8839999E-01
          2   -1    0    0  501    0  0.00000000000E+00  0.00000000000E+00  0.13303697096E+04  0.13303697096E+04  0.00000000000E+00 0. -1.
         -1   -1    0    0    0  501 -0.00000000000E+00 -0.00000000000E+00 -0.46244224814E+03  0.46244224814E+03  0.00000000000E+00 0.  1.
         24    2    1    2    0    0 -0.89450421693E+02  0.21779948147E+03 -0.23490714387E+03  0.34202276297E+03  0.79750937764E+02 0.  0.
        254    2    1    2    0    0  0.89450421693E+02 -0.21779948147E+03  0.11028346054E+04  0.14507891948E+04  0.91274702349E+03 0.  0.
         23    2    4    4    0    0  0.40814579362E+02  0.24970732746E+03  0.88266932700E+03  0.92274911433E+03  0.91330213527E+02 0.  0.
         23    2    4    4    0    0  0.48635842331E+02 -0.46750680894E+03  0.22016527836E+03  0.52804008046E+03  0.97085092662E+02 0.  0.
          4    1    3    3  502    0 -0.26746742667E+01  0.78875576525E+02 -0.43565895787E+02  0.90147089416E+02  0.00000000000E+00 0. -1.
         -3    1    3    3    0  502 -0.86775747426E+02  0.13892390495E+03 -0.19134124809E+03  0.25187567355E+03  0.00000000000E+00 0.  1.
         13    1    5    5    0    0  0.41544255592E+01  0.67759339239E+02  0.39815925539E+03  0.40390516208E+03  0.00000000000E+00 0. -1.
        -13    1    5    5    0    0  0.36660153802E+02  0.18194798823E+03  0.48451007161E+03  0.51884395225E+03  0.00000000000E+00 0.  1.
          4    1    6    6  503    0  0.76172156127E+02 -0.39711197386E+03  0.18416857698E+03  0.44431765877E+03  0.00000000000E+00 0. -1.
         -4    1    6    6    0  503 -0.27536313796E+02 -0.70394835077E+02  0.35996701383E+02  0.83722421689E+02  0.00000000000E+00 0.  1.
<mgrwt>
<rscale>  0 0.15687182E+04</rscale>
<asrwt>0</asrwt>
<pdfrwt beam="1">  1        2 0.20467226E+00 0.15687182E+04</pdfrwt>
<pdfrwt beam="2">  1       -1 0.71144962E-01 0.15687182E+04</pdfrwt>
<totfact> 0.34701943E+01</totfact>
</mgrwt>
</event>
<event>
12    7  0.1544987E-007  0.1633700E+04  0.7818608E-02  0.8800108E-01
          2   -1    0    0  501    0  0.00000000000E+00  0.00000000000E+00  0.16253693331E+04  0.16253693331E+04  0.00000000000E+00 0. -1.
         -1   -1    0    0    0  501 -0.00000000000E+00 -0.00000000000E+00 -0.41051856381E+03  0.41051856381E+03  0.00000000000E+00 0.  1.
         24    2    1    2    0    0  0.32269630305E+03 -0.19728099228E+02 -0.15204856706E+03  0.36551482276E+03  0.77202441753E+02 0.  0.
        254    2    1    2    0    0 -0.32269630305E+03  0.19728099228E+02  0.13668993364E+04  0.16703730742E+04  0.90399685245E+03 0.  0.
         23    2    4    4    0    0 -0.88072079033E+02  0.68218519149E+02  0.14039973264E+04  0.14113151500E+04  0.90506919845E+02 0.  0.
         23    2    4    4    0    0 -0.23462422402E+03 -0.48490419921E+02 -0.37097990068E+02  0.25905792416E+03  0.91295672861E+02 0.  0.
          2    1    3    3  502    0  0.62272623907E+02  0.21854216954E+02 -0.12580110925E+02  0.67184415438E+02  0.00000000000E+00 0. -1.
         -1    1    3    3    0  502  0.26042367914E+03 -0.41582316182E+02 -0.13946845613E+03  0.29833040732E+03  0.00000000000E+00 0.  1.
         13    1    5    5    0    0 -0.56291731741E+02  0.74676610822E+02  0.65788025111E+03  0.66449362681E+03  0.00000000000E+00 0.  1.
        -13    1    5    5    0    0 -0.31780347292E+02 -0.64580916732E+01  0.74611707533E+03  0.74682152320E+03  0.00000000000E+00 0. -1.
          3    1    6    6  503    0 -0.10781243067E+03  0.23091060280E+02 -0.79036597830E+01  0.11054042297E+03  0.00000000000E+00 0. -1.
         -3    1    6    6    0  503 -0.12681179335E+03 -0.71581480201E+02 -0.29194330286E+02  0.14851750119E+03  0.00000000000E+00 0.  1.
<mgrwt>
<rscale>  0 0.16337004E+04</rscale>
<asrwt>0</asrwt>
<pdfrwt beam="1">  1        2 0.25005682E+00 0.16337004E+04</pdfrwt>
<pdfrwt beam="2">  1       -1 0.63156703E-01 0.16337004E+04</pdfrwt>
<totfact> 0.29905166E+01</totfact>
</mgrwt>
</event>
<event>
12    7  0.1544987E-007  0.2376602E+04  0.7818608E-02  0.8448316E-01
         -1   -1    0    0    0  501 -0.00000000000E+00  0.00000000000E+00  0.10301689800E+04  0.10301689800E+04  0.00000000000E+00 0.  1.
          2   -1    0    0  501    0  0.00000000000E+00 -0.00000000000E+00 -0.13707062777E+04  0.13707062777E+04  0.00000000000E+00 0. -1.
         24    2    1    2    0    0 -0.66451752133E+03  0.75396128178E+03 -0.19797524620E+03  0.10272852794E+04  0.77972409222E+02 0.  0.
        254    2    1    2    0    0  0.66451752133E+03 -0.75396128178E+03 -0.14256205145E+03  0.13735899783E+04  0.92541036271E+03 0.  0.
         23    2    4    4    0    0  0.49459680086E+03  0.80234035087E+02 -0.32190320108E+02  0.51012433244E+03  0.90150552012E+02 0.  0.
         23    2    4    4    0    0  0.16992072047E+03 -0.83419531687E+03 -0.11037173134E+03  0.86346564587E+03  0.92930751600E+02 0.  0.
          2    1    3    3  502    0 -0.44502666984E+03  0.52868113512E+03 -0.16906640618E+03  0.71143230823E+03  0.00000000000E+00 0. -1.
         -1    1    3    3    0  502 -0.21949085149E+03  0.22528014666E+03 -0.28908840017E+02  0.31585297118E+03  0.00000000000E+00 0.  1.
         13    1    5    5    0    0  0.36068228042E+03  0.19824913503E+02 -0.85709238076E+01  0.36132837605E+03  0.00000000000E+00 0.  1.
        -13    1    5    5    0    0  0.13391452044E+03  0.60409121583E+02 -0.23619396301E+02  0.14879595638E+03  0.00000000000E+00 0. -1.
          1    1    6    6  503    0  0.48256294261E+02 -0.12280624985E+03 -0.42219554950E+02  0.13853712773E+03  0.00000000000E+00 0. -1.
         -1    1    6    6    0  503  0.12166442621E+03 -0.71138906701E+03 -0.68152176394E+02  0.72492851814E+03  0.00000000000E+00 0.  1.
<mgrwt>
<rscale>  0 0.23766018E+04</rscale>
<asrwt>0</asrwt>
<pdfrwt beam="1">  1        2 0.21087789E+00 0.23766018E+04</pdfrwt>
<pdfrwt beam="2">  1       -1 0.15848754E+00 0.23766018E+04</pdfrwt>
<totfact> 0.46340272E+00</totfact>
</mgrwt>
</event>
<event>
12    7  0.1544987E-007  0.1224376E+04  0.7818608E-02  0.9091784E-01
          2   -1    0    0  501    0  0.00000000000E+00  0.00000000000E+00  0.20554056799E+04  0.20554056799E+04  0.00000000000E+00 0. -1.
         -1   -1    0    0    0  501 -0.00000000000E+00 -0.00000000000E+00 -0.18233573127E+03  0.18233573127E+03  0.00000000000E+00 0.  1.
         24    2    1    2    0    0  0.18409981499E+03  0.17401142130E+03  0.26423129127E+03  0.37460848532E+03  0.79628043851E+02 0.  0.
        254    2    1    2    0    0 -0.18409981499E+03 -0.17401142130E+03  0.16088386573E+04  0.18631329258E+04  0.90483686781E+03 0.  0.
         23    2    4    4    0    0  0.81609220223E+02 -0.65828049818E+02 -0.72252157342E+02  0.15513135447E+03  0.88611319423E+02 0.  0.
         23    2    4    4    0    0 -0.26570903522E+03 -0.10818337148E+03  0.16810908147E+04  0.17080015714E+04  0.94329779600E+02 0.  0.
          2    1    3    3  502    0  0.26237017962E+02  0.22482514299E+02  0.85005939667E+02  0.91759764273E+02  0.00000000000E+00 0. -1.
         -3    1    3    3    0  502  0.15786279703E+03  0.15152890700E+03  0.17922535160E+03  0.28284872105E+03  0.00000000000E+00 0.  1.
         13    1    5    5    0    0  0.70675854781E+02 -0.22008070136E+02 -0.80347586845E+02  0.10924818677E+03  0.00000000000E+00 0. -1.
        -13    1    5    5    0    0  0.10933365442E+02 -0.43819979683E+02  0.80954295032E+01  0.45883167699E+02  0.00000000000E+00 0.  1.
          1    1    6    6  503    0 -0.16923585545E+03 -0.11589302051E+03  0.11627978585E+04  0.11807501119E+04  0.00000000000E+00 0. -1.
         -1    1    6    6    0  503 -0.96473179762E+02  0.77096490268E+01  0.51829295617E+03  0.52725145947E+03  0.00000000000E+00 0.  1.
<mgrwt>
<rscale>  0 0.12243756E+04</rscale>
<asrwt>0</asrwt>
<pdfrwt beam="1">  1        2 0.31621624E+00 0.12243756E+04</pdfrwt>
<pdfrwt beam="2">  1       -1 0.28051652E-01 0.12243756E+04</pdfrwt>
<totfact> 0.80272270E+01</totfact>
</mgrwt>
</event>
<event>
12    7  0.1544987E-007  0.1642354E+04  0.7818608E-02  0.8794943E-01
          2   -1    0    0  501    0  0.00000000000E+00  0.00000000000E+00  0.37541321831E+04  0.37541321831E+04  0.00000000000E+00 0. -1.
         -1   -1    0    0    0  501 -0.00000000000E+00 -0.00000000000E+00 -0.17962375153E+03  0.17962375153E+03  0.00000000000E+00 0.  1.
         24    2    1    2    0    0  0.36687118351E+03  0.43491026562E+03  0.13727655697E+04  0.14881470939E+04  0.79718626009E+02 0.  0.
        254    2    1    2    0    0 -0.36687118351E+03 -0.43491026562E+03  0.22017428619E+04  0.24456088407E+04  0.89977195311E+03 0.  0.
         23    2    4    4    0    0 -0.28715901041E+03  0.23585766236E+03  0.82872169615E+03  0.91283106676E+03  0.91606618805E+02 0.  0.
         23    2    4    4    0    0 -0.79712173099E+02 -0.67076792797E+03  0.13730211657E+04  0.15327777740E+04  0.89089500631E+02 0.  0.
          2    1    3    3  502    0  0.17119076573E+03  0.24451180189E+03  0.64036598833E+03  0.70651319771E+03  0.00000000000E+00 0. -1.
         -1    1    3    3    0  502  0.19568041777E+03  0.19039846373E+03  0.73239958139E+03  0.78163389621E+03  0.00000000000E+00 0.  1.
         13    1    5    5    0    0 -0.30506501588E+02  0.10909625714E+02  0.29597718698E+02  0.43882701882E+02  0.00000000000E+00 0.  1.
        -13    1    5    5    0    0 -0.25665250882E+03  0.22494803664E+03  0.79912397746E+03  0.86894836488E+03  0.00000000000E+00 0. -1.
          2    1    6    6  503    0 -0.56252443996E+02 -0.63525064694E+03  0.13058463516E+04  0.14532523579E+04  0.00000000000E+00 0. -1.
         -2    1    6    6    0  503 -0.23459729103E+02 -0.35517281035E+02  0.67174814137E+02  0.79525416038E+02  0.00000000000E+00 0.  1.
<mgrwt>
<rscale>  0 0.16423536E+04</rscale>
<asrwt>0</asrwt>
<pdfrwt beam="1">  1        2 0.57755874E+00 0.16423536E+04</pdfrwt>
<pdfrwt beam="2">  1       -1 0.27634426E-01 0.16423536E+04</pdfrwt>
<totfact> 0.69206817E+00</totfact>
</mgrwt>
</event>
<event>
12    7  0.1544987E-007  0.1269874E+04  0.7818608E-02  0.9053802E-01
          2   -1    0    0  501    0  0.00000000000E+00  0.00000000000E+00  0.84273632416E+03  0.84273632416E+03  0.00000000000E+00 0. -1.
         -1   -1    0    0    0  501 -0.00000000000E+00 -0.00000000000E+00 -0.47837624363E+03  0.47837624363E+03  0.00000000000E+00 0.  1.
         24    2    1    2    0    0  0.44554123487E+02  0.28746543205E+03 -0.18542107192E+02  0.30215748123E+03  0.79585734775E+02 0.  0.
        254    2    1    2    0    0 -0.44554123487E+02 -0.28746543205E+03  0.38290218772E+03  0.10189550866E+04  0.89835067681E+03 0.  0.
         23    2    4    4    0    0  0.32925895578E+03 -0.19778382247E+03 -0.87520388112E+02  0.40446175444E+03  0.91649288466E+02 0.  0.
         23    2    4    4    0    0 -0.37381307927E+03 -0.89681609581E+02  0.47042257583E+03  0.61449333212E+03  0.92334424999E+02 0.  0.
          4    1    3    3  502    0 -0.22120864332E+02  0.48503058681E+02  0.79464257934E+00  0.53315202307E+02  0.00000000000E+00 0. -1.
         -3    1    3    3    0  502  0.66674987820E+02  0.23896237337E+03 -0.19336749771E+02  0.24884227892E+03  0.00000000000E+00 0.  1.
         13    1    5    5    0    0  0.42619361520E+02 -0.66820916476E+02 -0.25670875189E+02  0.83309295328E+02  0.00000000000E+00 0. -1.
        -13    1    5    5    0    0  0.28663959426E+03 -0.13096290599E+03 -0.61849512923E+02  0.32115245911E+03  0.00000000000E+00 0.  1.
          1    1    6    6  503    0 -0.39301294789E+02  0.55032760119E+01  0.17315604503E+02  0.43297898081E+02  0.00000000000E+00 0. -1.
         -1    1    6    6    0  503 -0.33451178448E+03 -0.95184885593E+02  0.45310697133E+03  0.57119543404E+03  0.00000000000E+00 0.  1.
<mgrwt>
<rscale>  0 0.12698741E+04</rscale>
<asrwt>0</asrwt>
<pdfrwt beam="1">  1        2 0.12965174E+00 0.12698741E+04</pdfrwt>
<pdfrwt beam="2">  1       -1 0.73596345E-01 0.12698741E+04</pdfrwt>
<totfact> 0.66983662E+01</totfact>
</mgrwt>
</event>
<event>
12    7  0.1544987E-007  0.1804164E+04  0.7818608E-02  0.8704088E-01
         -1   -1    0    0    0  501 -0.00000000000E+00  0.00000000000E+00  0.38519822829E+03  0.38519822829E+03  0.00000000000E+00 0.  1.
          2   -1    0    0  501    0  0.00000000000E+00 -0.00000000000E+00 -0.21125547186E+04  0.21125547186E+04  0.00000000000E+00 0. -1.
         24    2    1    2    0    0  0.57896888148E+03  0.17999412816E+03 -0.11082889558E+04  0.12658483066E+04  0.80403195984E+02 0.  0.
        254    2    1    2    0    0 -0.57896888148E+03 -0.17999412816E+03 -0.61906753460E+03  0.12319046404E+04  0.87563781248E+03 0.  0.
         23    2    4    4    0    0 -0.25585803416E+03  0.34726728002E+03 -0.28561139953E+03  0.52339227945E+03  0.79421088011E+02 0.  0.
         23    2    4    4    0    0 -0.32311084732E+03 -0.52726140819E+03 -0.33345613507E+03  0.70851236092E+03  0.91605454744E+02 0.  0.
          4    1    3    3  502    0  0.52967783273E+03  0.17701166614E+03 -0.97375074246E+03  0.11225338502E+04  0.00000000000E+00 0. -1.
         -3    1    3    3    0  502  0.49291048748E+02  0.29824620243E+01 -0.13453821329E+03  0.14331445636E+03  0.00000000000E+00 0.  1.
         13    1    5    5    0    0 -0.14714830810E+03  0.26101708073E+03 -0.18802548309E+03  0.35374584563E+03  0.00000000000E+00 0. -1.
        -13    1    5    5    0    0 -0.10870972606E+03  0.86250199294E+02 -0.97585916442E+02  0.16964643382E+03  0.00000000000E+00 0.  1.
          3    1    6    6  503    0 -0.20457383133E+03 -0.29520258652E+03 -0.23866463018E+03  0.43122595615E+03  0.00000000000E+00 0. -1.
         -3    1    6    6    0  503 -0.11853701599E+03 -0.23205882166E+03 -0.94791504886E+02  0.27728640477E+03  0.00000000000E+00 0.  1.
<mgrwt>
<rscale>  0 0.18041644E+04</rscale>
<asrwt>0</asrwt>
<pdfrwt beam="1">  1        2 0.32500842E+00 0.18041644E+04</pdfrwt>
<pdfrwt beam="2">  1       -1 0.59261265E-01 0.18041644E+04</pdfrwt>
<totfact> 0.17937789E+01</totfact>
</mgrwt>
</event>
<event>
12    7  0.1544987E-007  0.1277870E+04  0.7818608E-02  0.9047301E-01
         -3   -1    0    0    0  501 -0.00000000000E+00  0.00000000000E+00  0.76361804025E+03  0.76361804025E+03  0.00000000000E+00 0.  1.
          4   -1    0    0  501    0  0.00000000000E+00 -0.00000000000E+00 -0.53460971924E+03  0.53460971924E+03  0.00000000000E+00 0. -1.
         24    2    1    2    0    0  0.31696960666E+01 -0.10617938290E+03  0.35210596521E+03  0.37626724659E+03  0.79462706915E+02 0.  0.
        254    2    1    2    0    0 -0.31696960666E+01  0.10617938290E+03 -0.12309764420E+03  0.92196051290E+03  0.90750980657E+03 0.  0.
         23    2    4    4    0    0 -0.58112058939E+02  0.41476524272E+03 -0.32619660324E+03  0.53820748975E+03  0.88633289959E+02 0.  0.
         23    2    4    4    0    0  0.54942362873E+02 -0.30858585982E+03  0.20309895905E+03  0.38375302316E+03  0.88166317241E+02 0.  0.
          4    1    3    3  502    0 -0.26019618603E+02 -0.16682335069E+02  0.41732596622E+02  0.51931979323E+02  0.00000000000E+00 0. -1.
         -1    1    3    3    0  502  0.29189314670E+02 -0.89497047827E+02  0.31037336859E+03  0.32433526726E+03  0.00000000000E+00 0.  1.
         13    1    5    5    0    0 -0.49792146857E+02  0.89554968146E+02 -0.86989572512E+02  0.13441181471E+03  0.00000000000E+00 0. -1.
        -13    1    5    5    0    0 -0.83199120824E+01  0.32521027457E+03 -0.23920703073E+03  0.40379567503E+03  0.00000000000E+00 0.  1.
          3    1    6    6  503    0  0.23413952691E+02 -0.15987690500E+02  0.34253257814E+02  0.44464649993E+02  0.00000000000E+00 0. -1.
         -3    1    6    6    0  503  0.31528410182E+02 -0.29259816932E+03  0.16884570123E+03  0.33928837316E+03  0.00000000000E+00 0.  1.
<mgrwt>
<rscale>  0 0.12778695E+04</rscale>
<asrwt>0</asrwt>
<pdfrwt beam="1">  1        4 0.82247649E-01 0.12778695E+04</pdfrwt>
<pdfrwt beam="2">  1       -3 0.11747970E+00 0.12778695E+04</pdfrwt>
<totfact> 0.17412774E+00</totfact>
</mgrwt>
</event>
<event>
12    7  0.1544987E-007  0.2986252E+04  0.7818608E-02  0.8247668E-01
          2   -1    0    0  501    0  0.00000000000E+00  0.00000000000E+00  0.42830357554E+04  0.42830357554E+04  0.00000000000E+00 0. -1.
         -1   -1    0    0    0  501 -0.00000000000E+00 -0.00000000000E+00 -0.52052444063E+03  0.52052444063E+03  0.00000000000E+00 0.  1.
         24    2    1    2    0    0  0.11398148662E+04  0.68892796547E+03  0.13240745688E+04  0.18798172212E+04  0.82095374740E+02 0.  0.
        254    2    1    2    0    0 -0.11398148662E+04 -0.68892796547E+03  0.24384367460E+04  0.29237429749E+04  0.91021950546E+03 0.  0.
         23    2    4    4    0    0 -0.60085405205E+03 -0.48768357944E+03  0.56726540113E+03  0.96396710454E+03  0.92637345589E+02 0.  0.
         23    2    4    4    0    0 -0.53896081414E+03 -0.20124438603E+03  0.18711713448E+04  0.19597758703E+04  0.91984770608E+02 0.  0.
          2    1    3    3  502    0  0.77929559280E+03  0.48968003334E+03  0.86541420388E+03  0.12633407697E+04  0.00000000000E+00 0. -1.
         -1    1    3    3    0  502  0.36051927339E+03  0.19924793214E+03  0.45866036494E+03  0.61647645155E+03  0.00000000000E+00 0.  1.
         13    1    5    5    0    0 -0.53564647601E+03 -0.42451031409E+03  0.46204740601E+03  0.82499330872E+03  0.00000000000E+00 0. -1.
        -13    1    5    5    0    0 -0.65207576039E+02 -0.63173265352E+02  0.10521799512E+03  0.13897379582E+03  0.00000000000E+00 0.  1.
          3    1    6    6  503    0 -0.30697294159E+03 -0.12173526324E+03  0.12218005512E+04  0.12656415164E+04  0.00000000000E+00 0. -1.
         -3    1    6    6    0  503 -0.23198787255E+03 -0.79509122791E+02  0.64937079367E+03  0.69413435392E+03  0.00000000000E+00 0.  1.
<mgrwt>
<rscale>  0 0.29862517E+04</rscale>
<asrwt>0</asrwt>
<pdfrwt beam="1">  1        2 0.65892855E+00 0.29862517E+04</pdfrwt>
<pdfrwt beam="2">  1       -1 0.80080686E-01 0.29862517E+04</pdfrwt>
<totfact> 0.29757655E-01</totfact>
</mgrwt>
</event>
<event>
12    7  0.1544987E-007  0.3866028E+04  0.7818608E-02  0.8032132E-01
          2   -1    0    0  501    0  0.00000000000E+00  0.00000000000E+00  0.19429684865E+04  0.19429684865E+04  0.00000000000E+00 0. -1.
         -1   -1    0    0    0  501 -0.00000000000E+00 -0.00000000000E+00 -0.19231101996E+04  0.19231101996E+04  0.00000000000E+00 0.  1.
         24    2    1    2    0    0 -0.17486647662E+04  0.14841366897E+01 -0.52658011987E+03  0.18278333063E+04  0.76533035731E+02 0.  0.
        254    2    1    2    0    0  0.17486647662E+04 -0.14841366897E+01  0.54643840678E+03  0.20382453799E+04  0.89331888420E+03 0.  0.
         23    2    4    4    0    0  0.17912502259E+04  0.66805159685E+02  0.61638878865E+03  0.18976879842E+04  0.90797826039E+02 0.  0.
         23    2    4    4    0    0 -0.42585459671E+02 -0.68289296375E+02 -0.69950381870E+02  0.14055739574E+03  0.91577159808E+02 0.  0.
          4    1    3    3  502    0 -0.43578334334E+03  0.24097606382E+01 -0.16599752001E+03  0.46633475737E+03  0.00000000000E+00 0. -1.
         -3    1    3    3    0  502 -0.13128814229E+04 -0.92562394844E+00 -0.36058259987E+03  0.13614985489E+04  0.00000000000E+00 0.  1.
         13    1    5    5    0    0  0.13346542268E+04  0.64575837339E+02  0.42026442990E+03  0.14007477057E+04  0.00000000000E+00 0. -1.
        -13    1    5    5    0    0  0.45659599909E+03  0.22293223461E+01  0.19612435875E+03  0.49694027846E+03  0.00000000000E+00 0.  1.
          4    1    6    6  503    0 -0.61392145696E+02 -0.70262340503E+02 -0.32855241698E+02  0.98920467818E+02  0.00000000000E+00 0. -1.
         -4    1    6    6    0  503  0.18806686025E+02  0.19730441285E+01 -0.37095140173E+02  0.41636927922E+02  0.00000000000E+00 0.  1.
<mgrwt>
<rscale>  0 0.38660277E+04</rscale>
<asrwt>0</asrwt>
<pdfrwt beam="1">  1        2 0.29891823E+00 0.38660277E+04</pdfrwt>
<pdfrwt beam="2">  1       -1 0.29586311E+00 0.38660277E+04</pdfrwt>
<totfact> 0.22908568E-01</totfact>
</mgrwt>
</event>
<event>
12    7  0.1544987E-007  0.2377986E+04  0.7818608E-02  0.8447792E-01
          2   -1    0    0  501    0  0.00000000000E+00  0.00000000000E+00  0.12932405879E+04  0.12932405879E+04  0.00000000000E+00 0. -1.
         -1   -1    0    0    0  501 -0.00000000000E+00 -0.00000000000E+00 -0.10931487605E+04  0.10931487605E+04  0.00000000000E+00 0.  1.
         24    2    1    2    0    0 -0.55829532512E+03  0.80812700283E+03  0.13335591836E+02  0.98552061036E+03  0.79436217723E+02 0.  0.
        254    2    1    2    0    0  0.55829532512E+03 -0.80812700283E+03  0.18675623557E+03  0.14008687381E+04  0.98121985665E+03 0.  0.
         23    2    4    4    0    0  0.37198631654E+03 -0.98126344586E+03 -0.31213420204E+02  0.10537942884E+04  0.90864485856E+02 0.  0.
         23    2    4    4    0    0  0.18630900858E+03  0.17313644303E+03  0.21796965578E+03  0.34707444969E+03  0.90899000023E+02 0.  0.
          4    1    3    3  502    0 -0.44091903925E+03  0.59441402605E+03 -0.13559363365E+02  0.74021719101E+03  0.00000000000E+00 0. -1.
         -3    1    3    3    0  502 -0.11737628587E+03  0.21371297678E+03  0.26894955202E+02  0.24530341935E+03  0.00000000000E+00 0.  1.
         13    1    5    5    0    0 -0.19339827023E+01 -0.24090088800E+02 -0.94416170188E+01  0.25946421707E+02  0.00000000000E+00 0. -1.
        -13    1    5    5    0    0  0.37392029924E+03 -0.95717335706E+03 -0.21771803185E+02  0.10278478667E+04  0.00000000000E+00 0.  1.
          1    1    6    6  503    0  0.32258800227E+02  0.12434275959E+02 -0.13140882582E+01  0.34597228772E+02  0.00000000000E+00 0. -1.
         -1    1    6    6    0  503  0.15405020835E+03  0.16070216707E+03  0.21928374404E+03  0.31247722092E+03  0.00000000000E+00 0.  1.
<mgrwt>
<rscale>  0 0.23779860E+04</rscale>
<asrwt>0</asrwt>
<pdfrwt beam="1">  1        2 0.19896009E+00 0.23779860E+04</pdfrwt>
<pdfrwt beam="2">  1       -1 0.16817673E+00 0.23779860E+04</pdfrwt>
<totfact> 0.43469497E+00</totfact>
</mgrwt>
</event>
<event>
12    7  0.1544987E-007  0.2944613E+04  0.7818608E-02  0.8259726E-01
         -1   -1    0    0    0  501 -0.00000000000E+00  0.00000000000E+00  0.99733541103E+03  0.99733541103E+03  0.00000000000E+00 0.  1.
          2   -1    0    0  501    0  0.00000000000E+00 -0.00000000000E+00 -0.21734784587E+04  0.21734784587E+04  0.00000000000E+00 0. -1.
         24    2    1    2    0    0 -0.59859576163E+03 -0.79806029882E+03 -0.14812198940E+04  0.17875965529E+04  0.79195550405E+02 0.  0.
        254    2    1    2    0    0  0.59859576163E+03  0.79806029882E+03  0.30507684626E+03  0.13832173169E+04  0.90829573223E+03 0.  0.
         23    2    4    4    0    0 -0.17358702983E+03  0.18312751983E+03 -0.13262977537E+03  0.29937517953E+03  0.91469641736E+02 0.  0.
         23    2    4    4    0    0  0.77218279146E+03  0.61493277899E+03  0.43770662164E+03  0.10838421373E+04  0.93370798252E+02 0.  0.
          4    1    3    3  502    0 -0.30090929090E+03 -0.41349900145E+03 -0.68964885196E+03  0.85857053557E+03  0.00000000000E+00 0. -1.
         -3    1    3    3    0  502 -0.29768647073E+03 -0.38456129737E+03 -0.79157104199E+03  0.92902601730E+03  0.00000000000E+00 0.  1.
         13    1    5    5    0    0 -0.14115026869E+03  0.88294410986E+02 -0.98765037759E+02  0.19358159532E+03  0.00000000000E+00 0. -1.
        -13    1    5    5    0    0 -0.32436761133E+02  0.94833108841E+02 -0.33864737612E+02  0.10579358420E+03  0.00000000000E+00 0.  1.
          1    1    6    6  503    0  0.26202549559E+03  0.25077710505E+03  0.12718445886E+03  0.38434672281E+03  0.00000000000E+00 0. -1.
         -1    1    6    6    0  503  0.51015729586E+03  0.36415567394E+03  0.31052216278E+03  0.69949541454E+03  0.00000000000E+00 0.  1.
<mgrwt>
<rscale>  0 0.29446134E+04</rscale>
<asrwt>0</asrwt>
<pdfrwt beam="1">  1        2 0.33438130E+00 0.29446134E+04</pdfrwt>
<pdfrwt beam="2">  1       -1 0.15343622E+00 0.29446134E+04</pdfrwt>
<totfact> 0.17145727E+00</totfact>
</mgrwt>
</event>
<event>
12    7  0.1561678E-007  0.1690820E+04  0.7818608E-02  0.8766617E-01
         -1   -1    0    0    0  501 -0.00000000000E+00  0.00000000000E+00  0.34945742242E+03  0.34945742242E+03  0.00000000000E+00 0.  1.
          2   -1    0    0  501    0  0.00000000000E+00 -0.00000000000E+00 -0.20452226164E+04  0.20452226164E+04  0.00000000000E+00 0. -1.
         24    2    1    2    0    0  0.27955400215E+03 -0.42083920430E+03 -0.10651823230E+04  0.11816643143E+04  0.80380934662E+02 0.  0.
        254    2    1    2    0    0 -0.27955400215E+03  0.42083920430E+03 -0.63058287099E+03  0.12130157244E+04  0.90471891467E+03 0.  0.
         23    2    4    4    0    0  0.23502404030E+03  0.32108572839E+03 -0.53445825446E+03  0.67250836283E+03  0.91046844146E+02 0.  0.
         23    2    4    4    0    0 -0.51457804244E+03  0.99753475911E+02 -0.96124616524E+02  0.54050736160E+03  0.90371169757E+02 0.  0.
          2    1    3    3  502    0  0.28115575723E+03 -0.39141476025E+03 -0.10109233366E+04  0.11199196698E+04  0.00000000000E+00 0. -1.
         -3    1    3    3    0  502 -0.16017550803E+01 -0.29424444048E+02 -0.54258986388E+02  0.61744644551E+02  0.00000000000E+00 0.  1.
         13    1    5    5    0    0  0.12172962584E+03  0.23220309738E+03 -0.37617754917E+03  0.45852582124E+03  0.00000000000E+00 0.  1.
        -13    1    5    5    0    0  0.11329441445E+03  0.88882631005E+02 -0.15828070529E+03  0.21398254159E+03  0.00000000000E+00 0. -1.
          2    1    6    6  503    0 -0.46571044618E+03  0.61358025025E+02 -0.85909258002E+02  0.47752636317E+03  0.00000000000E+00 0.  1.
         -2    1    6    6    0  503 -0.48867596265E+02  0.38395450886E+02 -0.10215358523E+02  0.62980998430E+02  0.00000000000E+00 0. -1.
<mgrwt>
<rscale>  0 0.16908202E+04</rscale>
<asrwt>0</asrwt>
<pdfrwt beam="1">  1        2 0.31464963E+00 0.16908202E+04</pdfrwt>
<pdfrwt beam="2">  1       -1 0.53762681E-01 0.16908202E+04</pdfrwt>
<totfact> 0.23879929E+01</totfact>
</mgrwt>
</event>
<event>
12    7  0.1544987E-007  0.2157720E+04  0.7818608E-02  0.8536235E-01
          2   -1    0    0  501    0  0.00000000000E+00  0.00000000000E+00  0.32056075000E+04  0.32056075000E+04  0.00000000000E+00 0. -1.
         -3   -1    0    0    0  501 -0.00000000000E+00 -0.00000000000E+00 -0.36309465523E+03  0.36309465523E+03  0.00000000000E+00 0.  1.
         24    2    1    2    0    0  0.19283532335E+03  0.38543025494E+03 -0.11242717312E+03  0.45242837874E+03  0.79433149732E+02 0.  0.
        254    2    1    2    0    0 -0.19283532335E+03 -0.38543025494E+03  0.29549400178E+04  0.31162737764E+04  0.89092637032E+03 0.  0.
         23    2    4    4    0    0 -0.20199625187E+03 -0.55512390904E+03  0.28146215644E+04  0.28777325482E+04  0.10141512731E+03 0.  0.
         23    2    4    4    0    0  0.91609285151E+01  0.16969365410E+03  0.14031845341E+03  0.23854122821E+03  0.91284118734E+02 0.  0.
          4    1    3    3  502    0  0.58087222101E+02  0.60339795918E+02 -0.26665117358E+01  0.83798130216E+02  0.00000000000E+00 0. -1.
         -3    1    3    3    0  502  0.13474810125E+03  0.32509045902E+03 -0.10976066139E+03  0.36863024852E+03  0.00000000000E+00 0.  1.
         13    1    5    5    0    0 -0.12736957007E+03 -0.35640482038E+03  0.20256279797E+04  0.20606834098E+04  0.00000000000E+00 0.  1.
        -13    1    5    5    0    0 -0.74626681799E+02 -0.19871908866E+03  0.78899358475E+03  0.81704913843E+03  0.00000000000E+00 0. -1.
          3    1    6    6  503    0 -0.56236957857E+01  0.13471131808E+03  0.14755672143E+03  0.19987934164E+03  0.00000000000E+00 0. -1.
         -3    1    6    6    0  503  0.14784624301E+02  0.34982336023E+02 -0.72382680205E+01  0.38661886572E+02  0.00000000000E+00 0.  1.
<mgrwt>
<rscale>  0 0.21577200E+04</rscale>
<asrwt>0</asrwt>
<pdfrwt beam="1">  1        2 0.49317036E+00 0.21577200E+04</pdfrwt>
<pdfrwt beam="2">  1       -3 0.55860718E-01 0.21577200E+04</pdfrwt>
<totfact> 0.24054054E+00</totfact>
</mgrwt>
</event>
<event>
12    7  0.1544987E-007  0.1367110E+04  0.7818608E-02  0.8977977E-01
          2   -1    0    0  501    0  0.00000000000E+00  0.00000000000E+00  0.82446347542E+03  0.82446347542E+03  0.00000000000E+00 0. -1.
         -1   -1    0    0    0  501 -0.00000000000E+00 -0.00000000000E+00 -0.56672870333E+03  0.56672870333E+03  0.00000000000E+00 0.  1.
         24    2    1    2    0    0  0.16163966762E+02  0.10604682279E+03  0.47745251805E+03  0.49586879656E+03  0.80110885431E+02 0.  0.
        254    2    1    2    0    0 -0.16163966762E+02 -0.10604682279E+03 -0.21971774596E+03  0.89532338219E+03  0.86129023468E+03 0.  0.
         23    2    4    4    0    0  0.21876294815E+03  0.24527891600E+03 -0.30090924345E+03  0.45542892910E+03  0.94075302533E+02 0.  0.
         23    2    4    4    0    0 -0.23492691491E+03 -0.35132573879E+03  0.81191497487E+02  0.43989445310E+03  0.91074917032E+02 0.  0.
          4    1    3    3  502    0 -0.14581046805E+02  0.37749140420E+02  0.30740425767E+03  0.31005641771E+03  0.00000000000E+00 0. -1.
         -3    1    3    3    0  502  0.30745013567E+02  0.68297682372E+02  0.17004826038E+03  0.18581237885E+03  0.00000000000E+00 0.  1.
         13    1    5    5    0    0  0.18193388389E+02  0.78246348164E+02 -0.60457563611E+02  0.10054157041E+03  0.00000000000E+00 0. -1.
        -13    1    5    5    0    0  0.20056955976E+03  0.16703256784E+03 -0.24045167984E+03  0.35488735869E+03  0.00000000000E+00 0.  1.
          1    1    6    6  503    0 -0.51090720923E+02 -0.15326428527E+03  0.19655111021E+02  0.16274681653E+03  0.00000000000E+00 0. -1.
         -1    1    6    6    0  503 -0.18383619398E+03 -0.19806145353E+03  0.61536386466E+02  0.27714763656E+03  0.00000000000E+00 0.  1.
<mgrwt>
<rscale>  0 0.13671095E+04</rscale>
<asrwt>0</asrwt>
<pdfrwt beam="1">  1        2 0.12684054E+00 0.13671095E+04</pdfrwt>
<pdfrwt beam="2">  1       -1 0.87189031E-01 0.13671095E+04</pdfrwt>
<totfact> 0.47742976E+01</totfact>
</mgrwt>
</event>
<event>
12    7  0.1544987E-007  0.1221220E+04  0.7818608E-02  0.9094483E-01
          2   -1    0    0  501    0  0.00000000000E+00  0.00000000000E+00  0.26459723073E+04  0.26459723073E+04  0.00000000000E+00 0. -1.
         -1   -1    0    0    0  501 -0.00000000000E+00 -0.00000000000E+00 -0.14091032342E+03  0.14091032342E+03  0.00000000000E+00 0.  1.
         24    2    1    2    0    0  0.12608672560E+03 -0.64838630733E+02  0.10799580438E+04  0.10920998206E+04  0.79187949401E+02 0.  0.
        254    2    1    2    0    0 -0.12608672560E+03  0.64838630733E+02  0.14251039401E+04  0.16947828101E+04  0.90623706783E+03 0.  0.
         23    2    4    4    0    0 -0.46359010310E+03  0.77774037453E+02  0.11614476322E+04  0.12563027425E+04  0.91495320569E+02 0.  0.
         23    2    4    4    0    0  0.33750337750E+03 -0.12935406719E+02  0.26365630781E+03  0.43848006766E+03  0.93135742408E+02 0.  0.
          2    1    3    3  502    0  0.11615506418E+03 -0.29228821425E+02  0.92857810370E+03  0.93627112398E+03  0.00000000000E+00 0. -1.
         -1    1    3    3    0  502  0.99316614210E+01 -0.35609809309E+02  0.15137994015E+03  0.15582869664E+03  0.00000000000E+00 0.  1.
         13    1    5    5    0    0 -0.88927774027E+02  0.49365283163E+02  0.28937071655E+03  0.30672543385E+03  0.00000000000E+00 0. -1.
        -13    1    5    5    0    0 -0.37466232907E+03  0.28408754290E+02  0.87207691570E+03  0.94957730862E+03  0.00000000000E+00 0.  1.
          3    1    6    6  503    0  0.12632438360E+03  0.29551929831E+02  0.13660075999E+03  0.18839037682E+03  0.00000000000E+00 0. -1.
         -3    1    6    6    0  503  0.21117899390E+03 -0.42487336550E+02  0.12705554783E+03  0.25008969084E+03  0.00000000000E+00 0.  1.
<mgrwt>
<rscale>  0 0.12212204E+04</rscale>
<asrwt>0</asrwt>
<pdfrwt beam="1">  1        2 0.40707263E+00 0.12212204E+04</pdfrwt>
<pdfrwt beam="2">  1       -1 0.21678513E-01 0.12212204E+04</pdfrwt>
<totfact> 0.57767049E+01</totfact>
</mgrwt>
</event>
<event>
12    7  0.1544987E-007  0.2106872E+04  0.7818608E-02  0.8558222E-01
         -1   -1    0    0    0  501 -0.00000000000E+00  0.00000000000E+00  0.33770788334E+03  0.33770788334E+03  0.00000000000E+00 0.  1.
          2   -1    0    0  501    0  0.00000000000E+00 -0.00000000000E+00 -0.32860556245E+04  0.32860556245E+04  0.00000000000E+00 0. -1.
         24    2    1    2    0    0 -0.54929905280E+03 -0.49972299895E+03 -0.16563142334E+04  0.18169903705E+04  0.81391900392E+02 0.  0.
        254    2    1    2    0    0  0.54929905280E+03  0.49972299895E+03 -0.12920335077E+04  0.18067731373E+04  0.10215801778E+04 0.  0.
         23    2    4    4    0    0  0.58637713484E+03  0.56284580530E+03 -0.14176717474E+04  0.16368291543E+04  0.93717405477E+02 0.  0.
         23    2    4    4    0    0 -0.37078082035E+02 -0.63122806351E+02  0.12563823970E+03  0.16994398306E+03  0.87958611042E+02 0.  0.
          2    1    3    3  502    0 -0.28468111640E+03 -0.27604376991E+03 -0.97721402903E+03  0.10546045512E+04  0.00000000000E+00 0. -1.
         -1    1    3    3    0  502 -0.26461793641E+03 -0.22367922904E+03 -0.67910020437E+03  0.76238581922E+03  0.00000000000E+00 0.  1.
         13    1    5    5    0    0  0.58482175457E+03  0.55094682496E+03 -0.14091301471E+04  0.16220994605E+04  0.00000000000E+00 0. -1.
        -13    1    5    5    0    0  0.15553802682E+01  0.11898980342E+02 -0.85416003524E+01  0.14729693736E+02  0.00000000000E+00 0.  1.
          2    1    6    6  503    0 -0.11340630139E+02 -0.77543120138E+02  0.11375956170E+03  0.13814044756E+03  0.00000000000E+00 0. -1.
         -2    1    6    6    0  503 -0.25737451896E+02  0.14420313786E+02  0.11878677994E+02  0.31803535506E+02  0.00000000000E+00 0.  1.
<mgrwt>
<rscale>  0 0.21068715E+04</rscale>
<asrwt>0</asrwt>
<pdfrwt beam="1">  1        2 0.50554701E+00 0.21068715E+04</pdfrwt>
<pdfrwt beam="2">  1       -1 0.51955060E-01 0.21068715E+04</pdfrwt>
<totfact> 0.44626396E+00</totfact>
</mgrwt>
</event>
<event>
12    7  0.1544987E-007  0.2420352E+04  0.7818608E-02  0.8431923E-01
          2   -1    0    0  501    0  0.00000000000E+00  0.00000000000E+00  0.31844873323E+04  0.31844873323E+04  0.00000000000E+00 0. -1.
         -1   -1    0    0    0  501 -0.00000000000E+00 -0.00000000000E+00 -0.45989380642E+03  0.45989380642E+03  0.00000000000E+00 0.  1.
         24    2    1    2    0    0 -0.89154980127E+03  0.13091376820E+03  0.42245011465E+03  0.99852390360E+03  0.81156785562E+02 0.  0.
        254    2    1    2    0    0  0.89154980127E+03 -0.13091376820E+03  0.23021434112E+04  0.26458572351E+04  0.94270714427E+03 0.  0.
         23    2    4    4    0    0  0.22862250407E+02  0.31240238062E+02 -0.62362146698E+02  0.11995219462E+03  0.94872844825E+02 0.  0.
         23    2    4    4    0    0  0.86868755087E+03 -0.16215400626E+03  0.23645055579E+04  0.25259050405E+04  0.91639278418E+02 0.  0.
          2    1    3    3  502    0 -0.70101517746E+03  0.12000531648E+03  0.36386541593E+03  0.79888772423E+03  0.00000000000E+00 0. -1.
         -1    1    3    3    0  502 -0.19053462381E+03  0.10908451717E+02  0.58584698714E+02  0.19963617937E+03  0.00000000000E+00 0.  1.
         13    1    5    5    0    0  0.49434875222E+02 -0.54446458482E+01 -0.10023980754E+02  0.50733925994E+02  0.00000000000E+00 0.  1.
        -13    1    5    5    0    0 -0.26572624815E+02  0.36684883910E+02 -0.52338165943E+02  0.69218268624E+02  0.00000000000E+00 0. -1.
          3    1    6    6  503    0  0.55829510671E+03 -0.71175791436E+02  0.14151183728E+04  0.15229311962E+04  0.00000000000E+00 0. -1.
         -3    1    6    6    0  503  0.31039244415E+03 -0.90978214822E+02  0.94938718512E+03  0.10029738442E+04  0.00000000000E+00 0.  1.
<mgrwt>
<rscale>  0 0.24203520E+04</rscale>
<asrwt>0</asrwt>
<pdfrwt beam="1">  1        2 0.48992111E+00 0.24203520E+04</pdfrwt>
<pdfrwt beam="2">  1       -1 0.70752895E-01 0.24203520E+04</pdfrwt>
<totfact> 0.27375671E+00</totfact>
</mgrwt>
</event>
<event>
12    7  0.1544987E-007  0.2384272E+04  0.7818608E-02  0.8445415E-01
         -1   -1    0    0    0  501 -0.00000000000E+00  0.00000000000E+00  0.61383520417E+03  0.61383520417E+03  0.00000000000E+00 0.  1.
          2   -1    0    0  501    0  0.00000000000E+00 -0.00000000000E+00 -0.23152602827E+04  0.23152602827E+04  0.00000000000E+00 0. -1.
         24    2    1    2    0    0  0.42392368370E+02  0.20010334952E+03  0.49803403750E+03  0.54534214788E+03  0.86727690814E+02 0.  0.
        254    2    1    2    0    0 -0.42392368370E+02 -0.20010334952E+03 -0.21994591161E+04  0.23837533390E+04  0.89600285416E+03 0.  0.
         23    2    4    4    0    0  0.14099545070E+03 -0.48726656843E+03 -0.89371063648E+03  0.10316448240E+04  0.90906079610E+02 0.  0.
         23    2    4    4    0    0 -0.18338781907E+03  0.28716321891E+03 -0.13057484796E+04  0.13521085150E+04  0.84406978176E+02 0.  0.
          2    1    3    3  502    0  0.51555319480E+02  0.58459248591E+02  0.14066446660E+03  0.16081643845E+03  0.00000000000E+00 0. -1.
         -1    1    3    3    0  502 -0.91629511096E+01  0.14164410093E+03  0.35736957091E+03  0.38452570943E+03  0.00000000000E+00 0.  1.
         13    1    5    5    0    0  0.34825330922E+02 -0.27750729390E+03 -0.46162645541E+03  0.53974261104E+03  0.00000000000E+00 0.  1.
        -13    1    5    5    0    0  0.10617011977E+03 -0.20975927453E+03 -0.43208418107E+03  0.49190221296E+03  0.00000000000E+00 0. -1.
          2    1    6    6  503    0 -0.11268896878E+03  0.99025931039E+02 -0.56618948223E+03  0.58572644510E+03  0.00000000000E+00 0. -1.
         -2    1    6    6    0  503 -0.70698850287E+02  0.18813728787E+03 -0.73955899735E+03  0.76638206991E+03  0.00000000000E+00 0.  1.
<mgrwt>
<rscale>  0 0.23842720E+04</rscale>
<asrwt>0</asrwt>
<pdfrwt beam="1">  1        2 0.35619389E+00 0.23842720E+04</pdfrwt>
<pdfrwt beam="2">  1       -1 0.94436184E-01 0.23842720E+04</pdfrwt>
<totfact> 0.49393392E+00</totfact>
</mgrwt>
</event>
<event>
12    7  0.1544987E-007  0.1154920E+04  0.7818608E-02  0.9153256E-01
          2   -1    0    0  501    0  0.00000000000E+00  0.00000000000E+00  0.21296171012E+04  0.21296171012E+04  0.00000000000E+00 0. -1.
         -1   -1    0    0    0  501 -0.00000000000E+00 -0.00000000000E+00 -0.15658229791E+03  0.15658229791E+03  0.00000000000E+00 0.  1.
         24    2    1    2    0    0  0.99110715965E+02 -0.51978326166E+02  0.23502864197E+02  0.13950126680E+03  0.79897048785E+02 0.  0.
        254    2    1    2    0    0 -0.99110715965E+02  0.51978326166E+02  0.19495319391E+04  0.21466981323E+04  0.89169131951E+03 0.  0.
         23    2    4    4    0    0  0.26268630566E+03 -0.90004128250E+02  0.15657120091E+04  0.15928170412E+04  0.92234445923E+02 0.  0.
         23    2    4    4    0    0 -0.36179702162E+03  0.14198245442E+03  0.38381992996E+03  0.55388109107E+03  0.91708354023E+02 0.  0.
          2    1    3    3  502    0 -0.51169351159E+01 -0.72561799893E+01  0.24521458720E+02  0.26079438468E+02  0.00000000000E+00 0. -1.
         -1    1    3    3    0  502  0.10422765108E+03 -0.44722146176E+02 -0.10185945238E+01  0.11342182834E+03  0.00000000000E+00 0.  1.
         13    1    5    5    0    0  0.22340547445E+02  0.14029967982E+02  0.81123544468E+02  0.85305155347E+02  0.00000000000E+00 0. -1.
        -13    1    5    5    0    0  0.24034575821E+03 -0.10403409623E+03  0.14845884647E+04  0.15075118859E+04  0.00000000000E+00 0.  1.
          1    1    6    6  503    0 -0.35930146233E+02  0.36164728648E+01  0.78402245478E+02  0.86318980418E+02  0.00000000000E+00 0. -1.
         -1    1    6    6    0  503 -0.32586687539E+03  0.13836598155E+03  0.30541768448E+03  0.46756211066E+03  0.00000000000E+00 0.  1.
<mgrwt>
<rscale>  0 0.11549205E+04</rscale>
<asrwt>0</asrwt>
<pdfrwt beam="1">  1        2 0.32763338E+00 0.11549205E+04</pdfrwt>
<pdfrwt beam="2">  1       -1 0.24089586E-01 0.11549205E+04</pdfrwt>
<totfact> 0.95434736E+01</totfact>
</mgrwt>
</event>
<event>
12    7  0.1544987E-007  0.2091815E+04  0.7818608E-02  0.8564858E-01
          2   -1    0    0  501    0  0.00000000000E+00  0.00000000000E+00  0.20624762192E+04  0.20624762192E+04  0.00000000000E+00 0. -1.
         -1   -1    0    0    0  501 -0.00000000000E+00 -0.00000000000E+00 -0.53039259993E+03  0.53039259993E+03  0.00000000000E+00 0.  1.
         24    2    1    2    0    0 -0.21184332122E+03  0.82227238214E+03  0.59953423018E+03  0.10423122486E+04  0.77227374330E+02 0.  0.
        254    2    1    2    0    0  0.21184332122E+03 -0.82227238214E+03  0.93254938913E+03  0.15505565705E+04  0.90197996209E+03 0.  0.
         23    2    4    4    0    0  0.13410113747E+03 -0.63950182729E+03  0.10944609689E+04  0.12779052953E+04  0.90837377175E+02 0.  0.
         23    2    4    4    0    0  0.77742183751E+02 -0.18277055485E+03 -0.16191157977E+03  0.27265127522E+03  0.93136648872E+02 0.  0.
          2    1    3    3  502    0 -0.16577153116E+03  0.55336285997E+03  0.44113396345E+03  0.72683548967E+03  0.00000000000E+00 0. -1.
         -1    1    3    3    0  502 -0.46071790056E+02  0.26890952217E+03  0.15840026673E+03  0.31547675898E+03  0.00000000000E+00 0.  1.
         13    1    5    5    0    0  0.14398736759E+03 -0.56503822815E+03  0.99497335436E+03  0.11532443528E+04  0.00000000000E+00 0.  1.
        -13    1    5    5    0    0 -0.98862301218E+01 -0.74463599146E+02  0.99487614540E+02  0.12466094252E+03  0.00000000000E+00 0. -1.
          1    1    6    6  503    0  0.91224105523E+02 -0.99722965540E+02 -0.96153344528E+02  0.16586733539E+03  0.00000000000E+00 0. -1.
         -1    1    6    6    0  503 -0.13481921772E+02 -0.83047589310E+02 -0.65758235243E+02  0.10678393984E+03  0.00000000000E+00 0.  1.
<mgrwt>
<rscale>  0 0.20918146E+04</rscale>
<asrwt>0</asrwt>
<pdfrwt beam="1">  1        2 0.31730403E+00 0.20918146E+04</pdfrwt>
<pdfrwt beam="2">  1       -1 0.81598863E-01 0.20918146E+04</pdfrwt>
<totfact> 0.96785580E+00</totfact>
</mgrwt>
</event>
<event>
12    7  0.3493389E-007  0.2245161E+04  0.7818608E-02  0.8499863E-01
          2   -1    0    0  501    0  0.00000000000E+00  0.00000000000E+00  0.16264781102E+04  0.16264781102E+04  0.00000000000E+00 0. -1.
         -1   -1    0    0    0  501 -0.00000000000E+00 -0.00000000000E+00 -0.77479523715E+03  0.77479523715E+03  0.00000000000E+00 0.  1.
         24    2    1    2    0    0  0.16182166942E+03  0.86759903092E+03  0.67214741898E+03  0.11121484678E+04  0.78598539319E+02 0.  0.
        254    2    1    2    0    0 -0.16182166942E+03 -0.86759903092E+03  0.17953545409E+03  0.12891248796E+04  0.92233163489E+03 0.  0.
         23    2    4    4    0    0 -0.82324714307E+02 -0.87731998900E+03 -0.18532147991E+03  0.90513837754E+03  0.91998423314E+02 0.  0.
         23    2    4    4    0    0 -0.79496955109E+02  0.97209580793E+01  0.36485693399E+03  0.38398650204E+03  0.88942613914E+02 0.  0.
          4    1    3    3  502    0  0.16477241200E+03  0.86617139714E+03  0.66527136191E+03  0.11045310416E+04  0.00000000000E+00 0. -1.
         -3    1    3    3    0  502 -0.29507425832E+01  0.14276337815E+01  0.68760570708E+01  0.76174261301E+01  0.00000000000E+00 0.  1.
         13    1    5    5    0    0 -0.85642938686E+01 -0.10560950849E+02 -0.12027415832E+02  0.18153224064E+02  0.00000000000E+00 0. -1.
        -13    1    5    5    0    0 -0.73760420439E+02 -0.86675903815E+03 -0.17329406407E+03  0.88698515348E+03  0.00000000000E+00 0.  1.
          1    1    6    6  503    0 -0.21304198852E+02 -0.24837914807E+02  0.37783247216E+02  0.49983644033E+02  0.00000000000E+00 0. -1.
         -1    1    6    6    0  503 -0.58192756257E+02  0.34558872886E+02  0.32707368678E+03  0.33400285801E+03  0.00000000000E+00 0.  1.
<mgrwt>
<rscale>  0 0.22451615E+04</rscale>
<asrwt>0</asrwt>
<pdfrwt beam="1">  1        2 0.25022740E+00 0.22451615E+04</pdfrwt>
<pdfrwt beam="2">  1       -1 0.11919927E+00 0.22451615E+04</pdfrwt>
<totfact> 0.70349104E+00</totfact>
</mgrwt>
</event>
<event>
12    7  0.1544987E-007  0.2373936E+04  0.7818608E-02  0.8449327E-01
          2   -1    0    0  501    0  0.00000000000E+00  0.00000000000E+00  0.17327798698E+04  0.17327798698E+04  0.00000000000E+00 0. -1.
         -1   -1    0    0    0  501 -0.00000000000E+00 -0.00000000000E+00 -0.81308238428E+03  0.81308238428E+03  0.00000000000E+00 0.  1.
         24    2    1    2    0    0  0.19539017762E+03  0.19470837292E+03 -0.60563147505E+03  0.67025101070E+03  0.79738709432E+02 0.  0.
        254    2    1    2    0    0 -0.19539017762E+03 -0.19470837292E+03  0.15253289605E+04  0.18756112433E+04  0.10560305044E+04 0.  0.
         23    2    4    4    0    0  0.32120551640E+03  0.23912905268E+03  0.57801670503E+03  0.70911072367E+03  0.91536984496E+02 0.  0.
         23    2    4    4    0    0 -0.51659569402E+03 -0.43383742560E+03  0.94731225550E+03  0.11665005197E+04  0.90757534204E+02 0.  0.
          4    1    3    3  502    0  0.36558916411E+02  0.64250628916E+02 -0.99328836365E+02  0.12381807388E+03  0.00000000000E+00 0. -1.
         -3    1    3    3    0  502  0.15883126121E+03  0.13045774400E+03 -0.50630263869E+03  0.54643293683E+03  0.00000000000E+00 0.  1.
         13    1    5    5    0    0  0.25701551069E+03  0.19954152682E+03  0.52223367910E+03  0.61530627272E+03  0.00000000000E+00 0. -1.
        -13    1    5    5    0    0  0.64190005706E+02  0.39587525860E+02  0.55783025929E+02  0.93804450950E+02  0.00000000000E+00 0.  1.
          2    1    6    6  503    0 -0.29089383112E+03 -0.19227689503E+03  0.52342369680E+03  0.62893719218E+03  0.00000000000E+00 0. -1.
         -2    1    6    6    0  503 -0.22570186290E+03 -0.24156053057E+03  0.42388855871E+03  0.53756332748E+03  0.00000000000E+00 0.  1.
<mgrwt>
<rscale>  0 0.23739358E+04</rscale>
<asrwt>0</asrwt>
<pdfrwt beam="1">  1        2 0.26658152E+00 0.23739358E+04</pdfrwt>
<pdfrwt beam="2">  1       -1 0.12508960E+00 0.23739358E+04</pdfrwt>
<totfact> 0.53897027E+00</totfact>
</mgrwt>
</event>
<event>
12    7  0.1544987E-007  0.1905596E+04  0.7818608E-02  0.8652076E-01
          2   -1    0    0  501    0  0.00000000000E+00  0.00000000000E+00  0.16019834072E+04  0.16019834072E+04  0.00000000000E+00 0. -1.
         -1   -1    0    0    0  501 -0.00000000000E+00 -0.00000000000E+00 -0.56668727405E+03  0.56668727405E+03  0.00000000000E+00 0.  1.
         24    2    1    2    0    0  0.19108778139E+03 -0.50274808863E+03  0.96669892282E+03  0.11090515785E+04  0.78856930861E+02 0.  0.
        254    2    1    2    0    0 -0.19108778139E+03  0.50274808863E+03  0.68597210284E+02  0.10596191027E+04  0.91039380752E+03 0.  0.
         23    2    4    4    0    0  0.20096719906E+03  0.26320073608E+03  0.36880255259E+03  0.50340177673E+03  0.87952165679E+02 0.  0.
         23    2    4    4    0    0 -0.39205498045E+03  0.23954735255E+03 -0.30020534231E+03  0.55621732599E+03  0.90357204341E+02 0.  0.
          4    1    3    3  502    0  0.15998240929E+03 -0.46463979792E+03  0.84064538392E+03  0.97373978793E+03  0.00000000000E+00 0. -1.
         -3    1    3    3    0  502  0.31105372102E+02 -0.38108290712E+02  0.12605353890E+03  0.13531179056E+03  0.00000000000E+00 0.  1.
         13    1    5    5    0    0  0.32801954050E+02  0.10983430258E+03  0.13527034924E+03  0.17730654133E+03  0.00000000000E+00 0. -1.
        -13    1    5    5    0    0  0.16816524501E+03  0.15336643350E+03  0.23353220335E+03  0.32609523540E+03  0.00000000000E+00 0.  1.
          1    1    6    6  503    0 -0.17255003935E+03  0.15789754257E+03 -0.15718164937E+03  0.28179996616E+03  0.00000000000E+00 0. -1.
         -1    1    6    6    0  503 -0.21950494109E+03  0.81649809981E+02 -0.14302369294E+03  0.27441735983E+03  0.00000000000E+00 0.  1.
<mgrwt>
<rscale>  0 0.19055956E+04</rscale>
<asrwt>0</asrwt>
<pdfrwt beam="1">  1        2 0.24645898E+00 0.19055956E+04</pdfrwt>
<pdfrwt beam="2">  1       -1 0.87182658E-01 0.19055956E+04</pdfrwt>
<totfact> 0.15367380E+01</totfact>
</mgrwt>
</event>
<event>
12    7  0.1544987E-007  0.1705407E+04  0.7818608E-02  0.8758286E-01
          2   -1    0    0  501    0  0.00000000000E+00  0.00000000000E+00  0.56351243207E+03  0.56351243207E+03  0.00000000000E+00 0. -1.
         -1   -1    0    0    0  501 -0.00000000000E+00 -0.00000000000E+00 -0.12903059916E+04  0.12903059916E+04  0.00000000000E+00 0.  1.
         24    2    1    2    0    0  0.45375619310E+03  0.15605337701E+02  0.18332567973E+03  0.49644377354E+03  0.81914016492E+02 0.  0.
        254    2    1    2    0    0 -0.45375619310E+03 -0.15605337701E+02 -0.91011923921E+03  0.13573746501E+04  0.89889415492E+03 0.  0.
         23    2    4    4    0    0 -0.32636403120E+03 -0.43772134047E+03 -0.55292000809E+03  0.78242948280E+03  0.91443465862E+02 0.  0.
         23    2    4    4    0    0 -0.12739216190E+03  0.42211600277E+03 -0.35719923112E+03  0.57494516728E+03  0.92520116458E+02 0.  0.
          4    1    3    3  502    0  0.20641624689E+03  0.30493781800E+02  0.11996030681E+03  0.24068239013E+03  0.00000000000E+00 0. -1.
         -3    1    3    3    0  502  0.24733994621E+03 -0.14888444099E+02  0.63365372917E+02  0.25576138341E+03  0.00000000000E+00 0.  1.
         13    1    5    5    0    0 -0.10053558032E+03 -0.20169712455E+03 -0.19699146521E+03  0.29932385526E+03  0.00000000000E+00 0. -1.
        -13    1    5    5    0    0 -0.22582845088E+03 -0.23602421593E+03 -0.35592854288E+03  0.48310562755E+03  0.00000000000E+00 0.  1.
          4    1    6    6  503    0 -0.10992322776E+03  0.20759259660E+03 -0.19833039416E+03  0.30742925595E+03  0.00000000000E+00 0. -1.
         -4    1    6    6    0  503 -0.17468934136E+02  0.21452340617E+03 -0.15886883696E+03  0.26751591133E+03  0.00000000000E+00 0.  1.
<mgrwt>
<rscale>  0 0.17054072E+04</rscale>
<asrwt>0</asrwt>
<pdfrwt beam="1">  1        2 0.86694221E-01 0.17054072E+04</pdfrwt>
<pdfrwt beam="2">  1       -1 0.19850861E+00 0.17054072E+04</pdfrwt>
<totfact> 0.89566181E+00</totfact>
</mgrwt>
</event>
<event>
12    7  0.1544987E-007  0.1737912E+04  0.7818608E-02  0.8740033E-01
         -1   -1    0    0    0  501 -0.00000000000E+00  0.00000000000E+00  0.15665024284E+03  0.15665024284E+03  0.00000000000E+00 0.  1.
          2   -1    0    0  501    0  0.00000000000E+00 -0.00000000000E+00 -0.48201913590E+04  0.48201913590E+04  0.00000000000E+00 0. -1.
         24    2    1    2    0    0 -0.53924404305E+03 -0.98490640953E+02 -0.25604386318E+04  0.26196931849E+04  0.80385641050E+02 0.  0.
        254    2    1    2    0    0  0.53924404305E+03  0.98490640953E+02 -0.21031024844E+04  0.23571484170E+04  0.91248235907E+03 0.  0.
         23    2    4    4    0    0  0.22146692044E+03 -0.24353245201E+03 -0.16979679614E+04  0.17318715334E+04  0.89040204786E+02 0.  0.
         23    2    4    4    0    0  0.31777712261E+03  0.34202309297E+03 -0.40513452294E+03  0.62527688360E+03  0.94207768877E+02 0.  0.
          4    1    3    3  502    0 -0.42247833665E+03 -0.10660123659E+03 -0.20871552945E+04  0.21321512592E+04  0.00000000000E+00 0. -1.
         -3    1    3    3    0  502 -0.11676570639E+03  0.81105956379E+01 -0.47328333733E+03  0.48754192573E+03  0.00000000000E+00 0.  1.
         13    1    5    5    0    0  0.11503134848E+03 -0.11085745530E+03 -0.60449395220E+03  0.62524757079E+03  0.00000000000E+00 0.  1.
        -13    1    5    5    0    0  0.10643557196E+03 -0.13267499672E+03 -0.10934740092E+04  0.11066239626E+04  0.00000000000E+00 0. -1.
          1    1    6    6  503    0  0.16382215317E+03  0.10830710220E+03 -0.16424120691E+03  0.25601425801E+03  0.00000000000E+00 0. -1.
         -1    1    6    6    0  503  0.15395496944E+03  0.23371599076E+03 -0.24089331603E+03  0.36926262560E+03  0.00000000000E+00 0.  1.
<mgrwt>
<rscale>  0 0.17379116E+04</rscale>
<asrwt>0</asrwt>
<pdfrwt beam="1">  1        2 0.74156779E+00 0.17379116E+04</pdfrwt>
<pdfrwt beam="2">  1       -1 0.24100041E-01 0.17379116E+04</pdfrwt>
<totfact> 0.93937996E-01</totfact>
</mgrwt>
</event>
<event>
12    7  0.1544987E-007  0.1757499E+04  0.7818608E-02  0.8729234E-01
          2   -1    0    0  501    0  0.00000000000E+00  0.00000000000E+00  0.26527242081E+04  0.26527242081E+04  0.00000000000E+00 0. -1.
         -1   -1    0    0    0  501 -0.00000000000E+00 -0.00000000000E+00 -0.29109707031E+03  0.29109707031E+03  0.00000000000E+00 0.  1.
         24    2    1    2    0    0  0.54138035453E+03  0.32112768480E+03  0.63401268778E+03  0.89725388029E+03  0.82926227449E+02 0.  0.
        254    2    1    2    0    0 -0.54138035453E+03 -0.32112768480E+03  0.17276144500E+04  0.20465673981E+04  0.89864940268E+03 0.  0.
         23    2    4    4    0    0  0.90917197557E+02 -0.33763025132E+03  0.26158667792E+03  0.44726454675E+03  0.96736039288E+02 0.  0.
         23    2    4    4    0    0 -0.63229755209E+03  0.16502566522E+02  0.14660277721E+04  0.15993028513E+04  0.91976370676E+02 0.  0.
          2    1    3    3  502    0  0.51124674725E+03  0.32268090921E+03  0.60800948876E+03  0.85742156735E+03  0.00000000000E+00 0. -1.
         -1    1    3    3    0  502  0.30133607283E+02 -0.15532244127E+01  0.26003199026E+02  0.39832312932E+02  0.00000000000E+00 0.  1.
         13    1    5    5    0    0 -0.81366754114E+01 -0.59835661110E+02  0.13515048708E+02  0.61880274472E+02  0.00000000000E+00 0.  1.
        -13    1    5    5    0    0  0.99053872968E+02 -0.27779459021E+03  0.24807162921E+03  0.38538427228E+03  0.00000000000E+00 0. -1.
          2    1    6    6  503    0 -0.51925113327E+03  0.39158426984E+01  0.12791671821E+04  0.13805454549E+04  0.00000000000E+00 0. -1.
         -2    1    6    6    0  503 -0.11304641882E+03  0.12586723824E+02  0.18686058996E+03  0.21875739646E+03  0.00000000000E+00 0.  1.
<mgrwt>
<rscale>  0 0.17574985E+04</rscale>
<asrwt>0</asrwt>
<pdfrwt beam="1">  1        2 0.40811140E+00 0.17574985E+04</pdfrwt>
<pdfrwt beam="2">  1       -1 0.44784166E-01 0.17574985E+04</pdfrwt>
<totfact> 0.15130436E+01</totfact>
</mgrwt>
</event>
<event>
12    7  0.1544987E-007  0.1510428E+04  0.7818608E-02  0.8877548E-01
          2   -1    0    0  501    0  0.00000000000E+00  0.00000000000E+00  0.26947350334E+04  0.26947350334E+04  0.00000000000E+00 0. -1.
         -1   -1    0    0    0  501 -0.00000000000E+00 -0.00000000000E+00 -0.21165292430E+03  0.21165292430E+03  0.00000000000E+00 0.  1.
         24    2    1    2    0    0 -0.26449328443E+03  0.16428875780E+03  0.15182803169E+04  0.15519663334E+04  0.80479101911E+02 0.  0.
        254    2    1    2    0    0  0.26449328443E+03 -0.16428875780E+03  0.96480179224E+03  0.13544216244E+04  0.89814695054E+03 0.  0.
         23    2    4    4    0    0  0.39871481052E+03  0.26533815055E+03  0.44205429452E+03  0.65837208658E+03  0.93080453476E+02 0.  0.
         23    2    4    4    0    0 -0.13422152610E+03 -0.42962690835E+03  0.52274749772E+03  0.69604953777E+03  0.92872569747E+02 0.  0.
          4    1    3    3  502    0 -0.12767481387E+03  0.74132232887E+02  0.91484414249E+03  0.92668023131E+03  0.00000000000E+00 0. -1.
         -3    1    3    3    0  502 -0.13681847055E+03  0.90156524915E+02  0.60343617439E+03  0.62528610206E+03  0.00000000000E+00 0.  1.
         13    1    5    5    0    0  0.28919778827E+03  0.22247440477E+03  0.28962234396E+03  0.46584474199E+03  0.00000000000E+00 0.  1.
        -13    1    5    5    0    0  0.10951702225E+03  0.42863745784E+02  0.15243195055E+03  0.19252734459E+03  0.00000000000E+00 0. -1.
          3    1    6    6  503    0 -0.14811714374E+02 -0.89583084001E+02  0.16444587290E+03  0.18784823911E+03  0.00000000000E+00 0. -1.
         -3    1    6    6    0  503 -0.11940981172E+03 -0.34004382435E+03  0.35830162482E+03  0.50820129866E+03  0.00000000000E+00 0.  1.
<mgrwt>
<rscale>  0 0.15104285E+04</rscale>
<asrwt>0</asrwt>
<pdfrwt beam="1">  1        2 0.41457460E+00 0.15104285E+04</pdfrwt>
<pdfrwt beam="2">  1       -1 0.32561990E-01 0.15104285E+04</pdfrwt>
<totfact> 0.26069938E+01</totfact>
</mgrwt>
</event>
<event>
12    7  0.1544987E-007  0.1892999E+04  0.7818608E-02  0.8658349E-01
          2   -1    0    0  501    0  0.00000000000E+00  0.00000000000E+00  0.13642522928E+04  0.13642522928E+04  0.00000000000E+00 0. -1.
         -1   -1    0    0    0  501 -0.00000000000E+00 -0.00000000000E+00 -0.65666827555E+03  0.65666827555E+03  0.00000000000E+00 0.  1.
         24    2    1    2    0    0 -0.24029238862E+03 -0.68874928883E+03  0.33343709027E+03  0.80594159298E+03  0.79028749449E+02 0.  0.
        254    2    1    2    0    0  0.24029238862E+03  0.68874928883E+03  0.37414692703E+03  0.12149789754E+04  0.89670060377E+03 0.  0.
         23    2    4    4    0    0  0.16894590002E+03  0.18810551491E+03  0.59732058498E+03  0.65490707703E+03  0.90470970130E+02 0.  0.
         23    2    4    4    0    0  0.71346488600E+02  0.50064377392E+03 -0.22317365795E+03  0.56007189838E+03  0.90219398981E+02 0.  0.
          2    1    3    3  502    0 -0.21221080840E+03 -0.61158056806E+03  0.32205309058E+03  0.72303693653E+03  0.00000000000E+00 0. -1.
         -1    1    3    3    0  502 -0.28081580226E+02 -0.77168720764E+02  0.11383999686E+02  0.82904656450E+02  0.00000000000E+00 0.  1.
         13    1    5    5    0    0  0.10472302314E+03  0.51859649032E+02  0.28997732557E+03  0.31263906365E+03  0.00000000000E+00 0. -1.
        -13    1    5    5    0    0  0.64222876878E+02  0.13624586587E+03  0.30734325941E+03  0.34226801339E+03  0.00000000000E+00 0.  1.
          4    1    6    6  503    0 -0.20550185435E+02  0.14032313010E+03 -0.59904135935E+02  0.15395257863E+03  0.00000000000E+00 0. -1.
         -4    1    6    6    0  503  0.91896674035E+02  0.36032064381E+03 -0.16326952202E+03  0.40611931975E+03  0.00000000000E+00 0.  1.
<mgrwt>
<rscale>  0 0.18929989E+04</rscale>
<asrwt>0</asrwt>
<pdfrwt beam="1">  1        2 0.20988497E+00 0.18929989E+04</pdfrwt>
<pdfrwt beam="2">  1       -1 0.10102589E+00 0.18929989E+04</pdfrwt>
<totfact> 0.15087334E+01</totfact>
</mgrwt>
</event>
<event>
12    7  0.1544987E-007  0.1503449E+04  0.7818608E-02  0.8882162E-01
         -1   -1    0    0    0  501 -0.00000000000E+00  0.00000000000E+00  0.26696150196E+03  0.26696150196E+03  0.00000000000E+00 0.  1.
          2   -1    0    0  501    0  0.00000000000E+00 -0.00000000000E+00 -0.21167470817E+04  0.21167470817E+04  0.00000000000E+00 0. -1.
         24    2    1    2    0    0 -0.13149939318E+03 -0.44303663220E+03 -0.35388576625E+03  0.58745134828E+03  0.79312061890E+02 0.  0.
        254    2    1    2    0    0  0.13149939318E+03  0.44303663220E+03 -0.14958998135E+04  0.17962572353E+04  0.88048296731E+03 0.  0.
         23    2    4    4    0    0 -0.23441357527E+03 -0.14423003303E+03 -0.34978958286E+03  0.45417100848E+03  0.90368832945E+02 0.  0.
         23    2    4    4    0    0  0.36591296845E+03  0.58726666523E+03 -0.11461102306E+04  0.13420862269E+04  0.94086891092E+02 0.  0.
          4    1    3    3  502    0 -0.35026539975E+02 -0.15415184372E+03 -0.16779847408E+03  0.23053411316E+03  0.00000000000E+00 0. -1.
         -3    1    3    3    0  502 -0.96472853208E+02 -0.28888478848E+03 -0.18608729217E+03  0.35691723512E+03  0.00000000000E+00 0.  1.
         13    1    5    5    0    0  0.48600076553E+01 -0.12454553230E+01 -0.27983915726E+02  0.28430096249E+02  0.00000000000E+00 0.  1.
        -13    1    5    5    0    0 -0.23927358292E+03 -0.14298457771E+03 -0.32180566713E+03  0.42574091223E+03  0.00000000000E+00 0. -1.
          4    1    6    6  503    0  0.33030255211E+03  0.56766194042E+03 -0.10939420720E+04  0.12759502778E+04  0.00000000000E+00 0. -1.
         -4    1    6    6    0  503  0.35610416339E+02  0.19604724817E+02 -0.52168158637E+02  0.66135949094E+02  0.00000000000E+00 0.  1.
<mgrwt>
<rscale>  0 0.15034493E+04</rscale>
<asrwt>0</asrwt>
<pdfrwt beam="1">  1        2 0.32565340E+00 0.15034493E+04</pdfrwt>
<pdfrwt beam="2">  1       -1 0.41071000E-01 0.15034493E+04</pdfrwt>
<totfact> 0.36736939E+01</totfact>
</mgrwt>
</event>
<event>
12    7  0.1544987E-007  0.1952660E+04  0.7818608E-02  0.8629079E-01
          2   -1    0    0  501    0  0.00000000000E+00  0.00000000000E+00  0.16833116080E+04  0.16833116080E+04  0.00000000000E+00 0. -1.
         -1   -1    0    0    0  501 -0.00000000000E+00 -0.00000000000E+00 -0.56627679927E+03  0.56627679927E+03  0.00000000000E+00 0.  1.
         24    2    1    2    0    0 -0.43286798825E+03 -0.60732893196E+03  0.62770572094E+03  0.97839264158E+03  0.83752982916E+02 0.  0.
        254    2    1    2    0    0  0.43286798825E+03  0.60732893196E+03  0.48932908781E+03  0.12711957657E+04  0.90568901491E+03 0.  0.
         23    2    4    4    0    0  0.64695558500E+03  0.63238551251E+03  0.26409839023E+03  0.94709234990E+03  0.93664262740E+02 0.  0.
         23    2    4    4    0    0 -0.21408759675E+03 -0.25056580554E+02  0.22523069758E+03  0.32410341581E+03  0.88616170614E+02 0.  0.
          2    1    3    3  502    0 -0.11932668029E+03 -0.13081907680E+03  0.18731450884E+03  0.25775805071E+03  0.00000000000E+00 0. -1.
         -1    1    3    3    0  502 -0.31354130797E+03 -0.47650985515E+03  0.44039121210E+03  0.72063459086E+03  0.00000000000E+00 0.  1.
         13    1    5    5    0    0  0.52130054801E+02  0.20722001388E+02  0.21455439707E+02  0.60060634763E+02  0.00000000000E+00 0. -1.
        -13    1    5    5    0    0  0.59482553020E+03  0.61166351112E+03  0.24264295052E+03  0.88703171514E+03  0.00000000000E+00 0.  1.
          1    1    6    6  503    0 -0.94197700488E+02  0.24517615014E+02  0.61233126372E+02  0.11499485201E+03  0.00000000000E+00 0. -1.
         -1    1    6    6    0  503 -0.11988989626E+03 -0.49574195568E+02  0.16399757121E+03  0.20910856380E+03  0.00000000000E+00 0.  1.
<mgrwt>
<rscale>  0 0.19526600E+04</rscale>
<asrwt>0</asrwt>
<pdfrwt beam="1">  1        2 0.25897101E+00 0.19526600E+04</pdfrwt>
<pdfrwt beam="2">  1       -1 0.87119509E-01 0.19526600E+04</pdfrwt>
<totfact> 0.13808913E+01</totfact>
</mgrwt>
</event>
<event>
12    7  0.1544987E-007  0.1614242E+04  0.7818608E-02  0.8811846E-01
          2   -1    0    0  501    0  0.00000000000E+00  0.00000000000E+00  0.20157727552E+04  0.20157727552E+04  0.00000000000E+00 0. -1.
         -1   -1    0    0    0  501 -0.00000000000E+00 -0.00000000000E+00 -0.32317366524E+03  0.32317366524E+03  0.00000000000E+00 0.  1.
         24    2    1    2    0    0  0.17632191664E+03 -0.10776569536E+03  0.13158649215E+04  0.13342599793E+04  0.77758199352E+02 0.  0.
        254    2    1    2    0    0 -0.17632191664E+03  0.10776569536E+03  0.37673416851E+03  0.10046864411E+04  0.90816482415E+03 0.  0.
         23    2    4    4    0    0 -0.17809028588E+03  0.48088172869E+03  0.33010450726E+03  0.61706047729E+03  0.93974783938E+02 0.  0.
         23    2    4    4    0    0  0.17683692439E+01 -0.37311603333E+03  0.46629661256E+02  0.38762596381E+03  0.94132146744E+02 0.  0.
          2    1    3    3  502    0  0.15050860601E+03 -0.96647235668E+02  0.12487862225E+04  0.12615310374E+04  0.00000000000E+00 0. -1.
         -1    1    3    3    0  502  0.25813310633E+02 -0.11118459690E+02  0.67078698920E+02  0.72728941973E+02  0.00000000000E+00 0.  1.
         13    1    5    5    0    0 -0.76081167624E+02  0.26905210150E+03  0.13010705729E+03  0.30839134836E+03  0.00000000000E+00 0. -1.
        -13    1    5    5    0    0 -0.10200911826E+03  0.21182962719E+03  0.19999744996E+03  0.30866912893E+03  0.00000000000E+00 0.  1.
          1    1    6    6  503    0 -0.24285348459E+02 -0.45186157127E+02 -0.13881231006E+02  0.53143725123E+02  0.00000000000E+00 0.  1.
         -1    1    6    6    0  503  0.26053717703E+02 -0.32792987620E+03  0.60510892262E+02  0.33448223868E+03  0.00000000000E+00 0. -1.
<mgrwt>
<rscale>  0 0.16142424E+04</rscale>
<asrwt>0</asrwt>
<pdfrwt beam="1">  1        2 0.31011888E+00 0.16142424E+04</pdfrwt>
<pdfrwt beam="2">  1       -1 0.49719027E-01 0.16142424E+04</pdfrwt>
<totfact> 0.28990153E+01</totfact>
</mgrwt>
</event>
<event>
12    7  0.1544987E-007  0.1428351E+04  0.7818608E-02  0.8933549E-01
         -1   -1    0    0    0  501 -0.00000000000E+00  0.00000000000E+00  0.30693205729E+03  0.30693205729E+03  0.00000000000E+00 0.  1.
          2   -1    0    0  501    0  0.00000000000E+00 -0.00000000000E+00 -0.16617567555E+04  0.16617567555E+04  0.00000000000E+00 0. -1.
         24    2    1    2    0    0 -0.26976883515E+03  0.22202979041E+03 -0.77918488855E+02  0.36664415096E+03  0.79272884905E+02 0.  0.
        254    2    1    2    0    0  0.26976883515E+03 -0.22202979041E+03 -0.12769062094E+04  0.16020446618E+04  0.90221127169E+03 0.  0.
         23    2    4    4    0    0  0.56114465857E+02  0.18144380255E+03  0.30181112603E+02  0.21462484420E+03  0.95300773472E+02 0.  0.
         23    2    4    4    0    0  0.21365436929E+03 -0.40347359297E+03 -0.13070873220E+04  0.13874198176E+04  0.89539675003E+02 0.  0.
          4    1    3    3  502    0 -0.10999087603E+03  0.13958958339E+03 -0.26803016054E+02  0.17972658754E+03  0.00000000000E+00 0. -1.
         -3    1    3    3    0  502 -0.15977795912E+03  0.82440207022E+02 -0.51115472801E+02  0.18691756342E+03  0.00000000000E+00 0.  1.
         13    1    5    5    0    0  0.11675691408E+02  0.15925304402E+03  0.70613146680E+01  0.15983652888E+03  0.00000000000E+00 0. -1.
        -13    1    5    5    0    0  0.44438774449E+02  0.22190758538E+02  0.23119797935E+02  0.54788315320E+02  0.00000000000E+00 0.  1.
          2    1    6    6  503    0  0.13944736431E+03 -0.25853854417E+03 -0.70608352765E+03  0.76474943233E+03  0.00000000000E+00 0. -1.
         -2    1    6    6    0  503  0.74207004977E+02 -0.14493504880E+03 -0.60100379431E+03  0.62267038531E+03  0.00000000000E+00 0.  1.
<mgrwt>
<rscale>  0 0.14283507E+04</rscale>
<asrwt>0</asrwt>
<pdfrwt beam="1">  1        2 0.25565488E+00 0.14283507E+04</pdfrwt>
<pdfrwt beam="2">  1       -1 0.47220317E-01 0.14283507E+04</pdfrwt>
<totfact> 0.50990033E+01</totfact>
</mgrwt>
</event>
<event>
12    7  0.1544987E-007  0.1579595E+04  0.7818608E-02  0.8833183E-01
          2   -1    0    0  501    0  0.00000000000E+00  0.00000000000E+00  0.11010841713E+04  0.11010841713E+04  0.00000000000E+00 0. -1.
         -1   -1    0    0    0  501 -0.00000000000E+00 -0.00000000000E+00 -0.56651442618E+03  0.56651442618E+03  0.00000000000E+00 0.  1.
         24    2    1    2    0    0  0.39726192564E+03 -0.34727634883E+02  0.55012119724E+03  0.68412271091E+03  0.79796652416E+02 0.  0.
        254    2    1    2    0    0 -0.39726192564E+03  0.34727634883E+02 -0.15551452175E+02  0.98347588653E+03  0.89886591076E+03 0.  0.
         23    2    4    4    0    0 -0.35592218425E+03  0.43291298724E+03 -0.57014601826E+02  0.57062723183E+03  0.90942383509E+02 0.  0.
         23    2    4    4    0    0 -0.41339741396E+02 -0.39818535236E+03  0.41463149651E+02  0.41284865470E+03  0.92001466623E+02 0.  0.
          2    1    3    3  502    0  0.39247167626E+03 -0.22305745771E+02  0.52736163877E+03  0.65775516798E+03  0.00000000000E+00 0. -1.
         -1    1    3    3    0  502  0.47902493881E+01 -0.12421889113E+02  0.22759558477E+02  0.26367542934E+02  0.00000000000E+00 0.  1.
         13    1    5    5    0    0 -0.77641242814E+02  0.47728144792E+02  0.56913810915E+01  0.91315552946E+02  0.00000000000E+00 0.  1.
        -13    1    5    5    0    0 -0.27828094143E+03  0.38518484245E+03 -0.62705982917E+02  0.47931167888E+03  0.00000000000E+00 0. -1.
          1    1    6    6  503    0 -0.78840894566E+01 -0.35959302450E+03  0.37096239386E+02  0.36158737964E+03  0.00000000000E+00 0. -1.
         -1    1    6    6    0  503 -0.33455651939E+02 -0.38592327852E+02  0.43669102651E+01  0.51261275062E+02  0.00000000000E+00 0.  1.
<mgrwt>
<rscale>  0 0.15795950E+04</rscale>
<asrwt>0</asrwt>
<pdfrwt beam="1">  1        2 0.16939756E+00 0.15795950E+04</pdfrwt>
<pdfrwt beam="2">  1       -1 0.87156066E-01 0.15795950E+04</pdfrwt>
<totfact> 0.30895281E+01</totfact>
</mgrwt>
</event>
<event>
12    7  0.1544987E-007  0.1608380E+04  0.7818608E-02  0.8815417E-01
         -1   -1    0    0    0  501 -0.00000000000E+00  0.00000000000E+00  0.60614179201E+03  0.60614179201E+03  0.00000000000E+00 0.  1.
          2   -1    0    0  501    0  0.00000000000E+00 -0.00000000000E+00 -0.10669470414E+04  0.10669470414E+04  0.00000000000E+00 0. -1.
         24    2    1    2    0    0  0.31593714707E+02  0.22043855340E+03  0.36493394082E+03  0.43491198517E+03  0.79876999490E+02 0.  0.
        254    2    1    2    0    0 -0.31593714707E+02 -0.22043855340E+03 -0.82573919017E+03  0.12381768482E+04  0.89534651316E+03 0.  0.
         23    2    4    4    0    0 -0.11369302980E+02 -0.25634104366E+03  0.11252703015E+03  0.29469316207E+03  0.91333102110E+02 0.  0.
         23    2    4    4    0    0 -0.20224411728E+02  0.35902490263E+02 -0.93826622032E+03  0.94348368613E+03  0.90110766134E+02 0.  0.
          2    1    3    3  502    0 -0.18457940332E+02  0.23037247688E+02  0.25183067094E+02  0.38802025857E+02  0.00000000000E+00 0. -1.
         -1    1    3    3    0  502  0.50051655040E+02  0.19740130571E+03  0.33975087372E+03  0.39610995931E+03  0.00000000000E+00 0.  1.
         13    1    5    5    0    0  0.84235477139E+01 -0.17500290333E+03  0.31163308063E+02  0.17795539918E+03  0.00000000000E+00 0. -1.
        -13    1    5    5    0    0 -0.19792850694E+02 -0.81338140331E+02  0.81363722091E+02  0.11673776289E+03  0.00000000000E+00 0.  1.
          1    1    6    6  503    0 -0.52738767272E+02  0.29902779316E+02 -0.44503523600E+03  0.44914576149E+03  0.00000000000E+00 0. -1.
         -1    1    6    6    0  503  0.32514355545E+02  0.59997109467E+01 -0.49323098432E+03  0.49433792464E+03  0.00000000000E+00 0.  1.
<mgrwt>
<rscale>  0 0.16083795E+04</rscale>
<asrwt>0</asrwt>
<pdfrwt beam="1">  1        2 0.16414570E+00 0.16083795E+04</pdfrwt>
<pdfrwt beam="2">  1       -1 0.93252584E-01 0.16083795E+04</pdfrwt>
<totfact> 0.27878420E+01</totfact>
</mgrwt>
</event>
<event>
12    7  0.1544987E-007  0.1131950E+04  0.7818608E-02  0.9174599E-01
          2   -1    0    0  501    0  0.00000000000E+00  0.00000000000E+00  0.21612306124E+04  0.21612306124E+04  0.00000000000E+00 0. -1.
         -1   -1    0    0    0  501 -0.00000000000E+00 -0.00000000000E+00 -0.14821548977E+03  0.14821548977E+03  0.00000000000E+00 0.  1.
         24    2    1    2    0    0 -0.55841927285E+02  0.13163830553E+03  0.62423785304E+03  0.64528847581E+03  0.79229764042E+02 0.  0.
        254    2    1    2    0    0  0.55841927285E+02 -0.13163830553E+03  0.13887772696E+04  0.16641576264E+04  0.90568832196E+03 0.  0.
         23    2    4    4    0    0  0.27126570655E+03 -0.12219577682E+03  0.13962619321E+04  0.14305305006E+04  0.91396053983E+02 0.  0.
         23    2    4    4    0    0 -0.21542377926E+03 -0.94425287091E+01 -0.74846624907E+01  0.23362712578E+03  0.89604953600E+02 0.  0.
          2    1    3    3  502    0 -0.73670420810E+02  0.12075111323E+03  0.51506142415E+03  0.53413147529E+03  0.00000000000E+00 0. -1.
         -1    1    3    3    0  502  0.17828493526E+02  0.10887192296E+02  0.10917642889E+03  0.11115700052E+03  0.00000000000E+00 0.  1.
         13    1    5    5    0    0  0.56238989326E+02 -0.52945937513E+02  0.51574545681E+03  0.52149733695E+03  0.00000000000E+00 0. -1.
        -13    1    5    5    0    0  0.21502671722E+03 -0.69249839304E+02  0.88051647531E+03  0.90903316367E+03  0.00000000000E+00 0.  1.
          1    1    6    6  503    0 -0.23415546058E+02  0.92929655310E+00 -0.32127954955E+02  0.39766278162E+02  0.00000000000E+00 0. -1.
         -1    1    6    6    0  503 -0.19200823320E+03 -0.10371825262E+02  0.24643292464E+02  0.19386084762E+03  0.00000000000E+00 0.  1.
<mgrwt>
<rscale>  0 0.11319503E+04</rscale>
<asrwt>0</asrwt>
<pdfrwt beam="1">  1        2 0.33249700E+00 0.11319503E+04</pdfrwt>
<pdfrwt beam="2">  1       -1 0.22802384E-01 0.11319503E+04</pdfrwt>
<totfact> 0.10081689E+02</totfact>
</mgrwt>
</event>
<event>
12    7  0.1544987E-007  0.1422451E+04  0.7818608E-02  0.8937726E-01
         -1   -1    0    0    0  501 -0.00000000000E+00  0.00000000000E+00  0.36531638130E+03  0.36531638130E+03  0.00000000000E+00 0.  1.
          2   -1    0    0  501    0  0.00000000000E+00 -0.00000000000E+00 -0.13846678108E+04  0.13846678108E+04  0.00000000000E+00 0. -1.
         24    2    1    2    0    0 -0.31387243502E+03 -0.16265443435E+03 -0.61497785473E+03  0.71335749522E+03  0.75556493448E+02 0.  0.
        254    2    1    2    0    0  0.31387243502E+03  0.16265443435E+03 -0.40437357474E+03  0.10366266969E+04  0.88662537196E+03 0.  0.
         23    2    4    4    0    0  0.86195076848E+02  0.49097533722E+03 -0.79426727260E+02  0.51344961592E+03  0.93997500260E+02 0.  0.
         23    2    4    4    0    0  0.22767735817E+03 -0.32832090287E+03 -0.32494684748E+03  0.52317708093E+03  0.92153185686E+02 0.  0.
          4    1    3    3  502    0 -0.19211421950E+03 -0.12350971737E+03 -0.33377064856E+03  0.40443215681E+03  0.00000000000E+00 0. -1.
         -3    1    3    3    0  502 -0.12175821552E+03 -0.39144716985E+02 -0.28120720617E+03  0.30892533841E+03  0.00000000000E+00 0.  1.
         13    1    5    5    0    0  0.24511580276E+02  0.33591296716E+03 -0.81618897915E+02  0.34655444532E+03  0.00000000000E+00 0.  1.
        -13    1    5    5    0    0  0.61683496572E+02  0.15506237007E+03  0.21921706549E+01  0.16689517061E+03  0.00000000000E+00 0. -1.
          4    1    6    6  503    0  0.16752844872E+03 -0.22911786528E+03 -0.17445784453E+03  0.33316109743E+03  0.00000000000E+00 0.  1.
         -4    1    6    6    0  503  0.60148909454E+02 -0.99203037587E+02 -0.15048900295E+03  0.19001598350E+03  0.00000000000E+00 0. -1.
<mgrwt>
<rscale>  0 0.14224512E+04</rscale>
<asrwt>0</asrwt>
<pdfrwt beam="1">  1        2 0.21302582E+00 0.14224512E+04</pdfrwt>
<pdfrwt beam="2">  1       -1 0.56202519E-01 0.14224512E+04</pdfrwt>
<totfact> 0.52381964E+01</totfact>
</mgrwt>
</event>
<event>
12    7  0.1544987E-007  0.1647694E+04  0.7818608E-02  0.8791772E-01
          2   -1    0    0  501    0  0.00000000000E+00  0.00000000000E+00  0.17475174970E+04  0.17475174970E+04  0.00000000000E+00 0. -1.
         -1   -1    0    0    0  501 -0.00000000000E+00 -0.00000000000E+00 -0.38839327610E+03  0.38839327610E+03  0.00000000000E+00 0.  1.
         24    2    1    2    0    0 -0.38584922330E+03  0.41774318332E+03  0.37351610851E+03  0.68510774547E+03  0.80432265060E+02 0.  0.
        254    2    1    2    0    0  0.38584922330E+03 -0.41774318332E+03  0.98560811234E+03  0.14508030276E+04  0.90000949074E+03 0.  0.
         23    2    4    4    0    0 -0.28532780386E+03 -0.15076653740E+03  0.28250262578E+03  0.43901449213E+03  0.93720255390E+02 0.  0.
         23    2    4    4    0    0  0.67117702716E+03 -0.26697664592E+03  0.70310548656E+03  0.10117885355E+04  0.87198532149E+02 0.  0.
          4    1    3    3  502    0 -0.34192530655E+03  0.40181517543E+03  0.34242928248E+03  0.62898820654E+03  0.00000000000E+00 0. -1.
         -3    1    3    3    0  502 -0.43923916745E+02  0.15928007890E+02  0.31086826032E+02  0.56119538935E+02  0.00000000000E+00 0.  1.
         13    1    5    5    0    0 -0.24559703964E+03 -0.86430805684E+02  0.21520184046E+03  0.33778694792E+03  0.00000000000E+00 0. -1.
        -13    1    5    5    0    0 -0.39730764223E+02 -0.64335731715E+02  0.67300785319E+02  0.10122754420E+03  0.00000000000E+00 0.  1.
          1    1    6    6  503    0  0.47641516354E+03 -0.17330040915E+03  0.43974466910E+03  0.67110343008E+03  0.00000000000E+00 0. -1.
         -1    1    6    6    0  503  0.19476186361E+03 -0.93676236771E+02  0.26336081747E+03  0.34068510538E+03  0.00000000000E+00 0.  1.
<mgrwt>
<rscale>  0 0.16476942E+04</rscale>
<asrwt>0</asrwt>
<pdfrwt beam="1">  1        2 0.26884884E+00 0.16476942E+04</pdfrwt>
<pdfrwt beam="2">  1       -1 0.59752813E-01 0.16476942E+04</pdfrwt>
<totfact> 0.28518910E+01</totfact>
</mgrwt>
</event>
<event>
12    7  0.1544987E-007  0.1376764E+04  0.7818608E-02  0.8970812E-01
         -1   -1    0    0    0  501 -0.00000000000E+00  0.00000000000E+00  0.20151878540E+03  0.20151878540E+03  0.00000000000E+00 0.  1.
          2   -1    0    0  501    0  0.00000000000E+00 -0.00000000000E+00 -0.23514931269E+04  0.23514931269E+04  0.00000000000E+00 0. -1.
         24    2    1    2    0    0  0.70921368173E+02  0.22591520709E+03 -0.11899606459E+04  0.12160687728E+04  0.82154732697E+02 0.  0.
        254    2    1    2    0    0 -0.70921368173E+02 -0.22591520709E+03 -0.96001369554E+03  0.13369431395E+04  0.89984617644E+03 0.  0.
         23    2    4    4    0    0 -0.38919815714E+03 -0.13872510456E+03 -0.13541680562E+03  0.44411238775E+03  0.90433630630E+02 0.  0.
         23    2    4    4    0    0  0.31827678897E+03 -0.87190102530E+02 -0.82459688993E+03  0.89283075171E+03  0.91019184466E+02 0.  0.
          2    1    3    3  502    0  0.87881372186E+02  0.19358501815E+03 -0.96279326966E+03  0.98598639693E+03  0.00000000000E+00 0. -1.
         -1    1    3    3    0  502 -0.16960004013E+02  0.32330188943E+02 -0.22716737626E+03  0.23008237588E+03  0.00000000000E+00 0.  1.
         13    1    5    5    0    0 -0.37256717765E+03 -0.14863328180E+03 -0.11811807113E+03  0.41815073006E+03  0.00000000000E+00 0. -1.
        -13    1    5    5    0    0 -0.16630979489E+02  0.99081772387E+01 -0.17298734488E+02  0.25961657687E+02  0.00000000000E+00 0.  1.
          4    1    6    6  503    0  0.26799410966E+03 -0.99876234901E+02 -0.74305842397E+03  0.79619842159E+03  0.00000000000E+00 0. -1.
         -4    1    6    6    0  503  0.50282679314E+02  0.12686132371E+02 -0.81538465961E+02  0.96632330122E+02  0.00000000000E+00 0.  1.
<mgrwt>
<rscale>  0 0.13767644E+04</rscale>
<asrwt>0</asrwt>
<pdfrwt beam="1">  1        2 0.36176818E+00 0.13767644E+04</pdfrwt>
<pdfrwt beam="2">  1       -1 0.31002889E-01 0.13767644E+04</pdfrwt>
<totfact> 0.45435079E+01</totfact>
</mgrwt>
</event>
<event>
12    7  0.1544987E-007  0.2679074E+04  0.7818608E-02  0.8341827E-01
          2   -1    0    0  501    0  0.00000000000E+00  0.00000000000E+00  0.22600820895E+04  0.22600820895E+04  0.00000000000E+00 0. -1.
         -1   -1    0    0    0  501 -0.00000000000E+00 -0.00000000000E+00 -0.79393567965E+03  0.79393567965E+03  0.00000000000E+00 0.  1.
         24    2    1    2    0    0  0.81456819392E+03 -0.76875760116E+03  0.19663182619E+03  0.11400967041E+04  0.81528079199E+02 0.  0.
        254    2    1    2    0    0 -0.81456819392E+03  0.76875760116E+03  0.12695145836E+04  0.19139210650E+04  0.89270206300E+03 0.  0.
         23    2    4    4    0    0  0.65398553978E+02  0.88196106220E+02  0.59065979560E+03  0.60752166508E+03  0.90266579561E+02 0.  0.
         23    2    4    4    0    0 -0.87996674790E+03  0.68056149494E+03  0.67885478802E+03  0.13063994000E+04  0.91269618124E+02 0.  0.
          4    1    3    3  502    0  0.40016044079E+03 -0.36927328550E+03  0.13650338166E+03  0.56135934209E+03  0.00000000000E+00 0. -1.
         -3    1    3    3    0  502  0.41440775313E+03 -0.39948431566E+03  0.60128444532E+02  0.57873736198E+03  0.00000000000E+00 0.  1.
         13    1    5    5    0    0  0.32194285372E+02  0.15100357610E+02  0.52518495441E+02  0.63424641694E+02  0.00000000000E+00 0. -1.
        -13    1    5    5    0    0  0.33204268606E+02  0.73095748610E+02  0.53814130016E+03  0.54409702339E+03  0.00000000000E+00 0.  1.
          2    1    6    6  503    0 -0.24977865611E+03  0.14773204572E+03  0.19739800403E+03  0.35097023574E+03  0.00000000000E+00 0. -1.
         -2    1    6    6    0  503 -0.63018809179E+03  0.53282944922E+03  0.48145678399E+03  0.95542916422E+03  0.00000000000E+00 0.  1.
<mgrwt>
<rscale>  0 0.26790743E+04</rscale>
<asrwt>0</asrwt>
<pdfrwt beam="1">  1        2 0.34770493E+00 0.26790743E+04</pdfrwt>
<pdfrwt beam="2">  1       -1 0.12214395E+00 0.26790743E+04</pdfrwt>
<totfact> 0.28286009E+00</totfact>
</mgrwt>
</event>
<event>
12    7  0.1544987E-007  0.1510787E+04  0.7818608E-02  0.8877311E-01
         -1   -1    0    0    0  501 -0.00000000000E+00  0.00000000000E+00  0.49825333236E+03  0.49825333236E+03  0.00000000000E+00 0.  1.
          2   -1    0    0  501    0  0.00000000000E+00 -0.00000000000E+00 -0.11452391412E+04  0.11452391412E+04  0.00000000000E+00 0. -1.
         24    2    1    2    0    0  0.49834073082E+01  0.11176874434E+03 -0.72704321285E+03  0.73988569773E+03  0.79510538844E+02 0.  0.
        254    2    1    2    0    0 -0.49834073082E+01 -0.11176874434E+03  0.80057404034E+02  0.90360677582E+03  0.89307274665E+03 0.  0.
         23    2    4    4    0    0 -0.32998393096E+01 -0.16616041829E+03 -0.38338813140E+03  0.42779297519E+03  0.91652587419E+02 0.  0.
         23    2    4    4    0    0 -0.16835679986E+01  0.54391673957E+02  0.46344553543E+03  0.47581380063E+03  0.93036121786E+02 0.  0.
          2    1    3    3  502    0 -0.15885643315E+02  0.58948136360E+02 -0.56277237586E+03  0.56607418549E+03  0.00000000000E+00 0. -1.
         -1    1    3    3    0  502  0.20869050623E+02  0.52820607976E+02 -0.16427083699E+03  0.17381151224E+03  0.00000000000E+00 0.  1.
         13    1    5    5    0    0  0.79416524324E+01 -0.47789663312E+02 -0.22263046713E+03  0.22784039733E+03  0.00000000000E+00 0. -1.
        -13    1    5    5    0    0 -0.11241491742E+02 -0.11837075498E+03 -0.16075766427E+03  0.19995257786E+03  0.00000000000E+00 0.  1.
          3    1    6    6  503    0  0.11273256536E+02 -0.22937652402E+02  0.17681409238E+03  0.17865174355E+03  0.00000000000E+00 0. -1.
         -3    1    6    6    0  503 -0.12956824534E+02  0.77329326359E+02  0.28663144305E+03  0.29716205707E+03  0.00000000000E+00 0.  1.
<mgrwt>
<rscale>  0 0.15107868E+04</rscale>
<asrwt>0</asrwt>
<pdfrwt beam="1">  1        2 0.17619064E+00 0.15107868E+04</pdfrwt>
<pdfrwt beam="2">  1       -1 0.76654359E-01 0.15107868E+04</pdfrwt>
<totfact> 0.38433736E+01</totfact>
</mgrwt>
</event>
<event>
12    7  0.1544987E-007  0.1732069E+04  0.7818608E-02  0.8743283E-01
          2   -1    0    0  501    0  0.00000000000E+00  0.00000000000E+00  0.90884409529E+03  0.90884409529E+03  0.00000000000E+00 0. -1.
         -1   -1    0    0    0  501 -0.00000000000E+00 -0.00000000000E+00 -0.82524125711E+03  0.82524125711E+03  0.00000000000E+00 0.  1.
         24    2    1    2    0    0 -0.15410047375E+03 -0.26264126838E+03  0.58222923601E+03  0.66182525180E+03  0.79337184120E+02 0.  0.
        254    2    1    2    0    0  0.15410047375E+03  0.26264126838E+03 -0.49862639783E+03  0.10722601006E+04  0.89910291228E+03 0.  0.
         23    2    4    4    0    0  0.44251025405E+03  0.10323486460E+03 -0.55791397314E+03  0.72520072337E+03  0.90417506868E+02 0.  0.
         23    2    4    4    0    0 -0.28840978030E+03  0.15940640377E+03  0.59287575304E+02  0.34705937723E+03  0.91348737254E+02 0.  0.
          4    1    3    3  502    0 -0.13618346299E+03 -0.25767074097E+03  0.51161364942E+03  0.58880274508E+03  0.00000000000E+00 0. -1.
         -1    1    3    3    0  502 -0.17917010757E+02 -0.49705274101E+01  0.70615586591E+02  0.73022506714E+02  0.00000000000E+00 0.  1.
         13    1    5    5    0    0  0.44350422109E+03  0.93363497526E+02 -0.54851114096E+03  0.71153159350E+03  0.00000000000E+00 0. -1.
        -13    1    5    5    0    0 -0.99396703863E+00  0.98713670781E+01 -0.94028321802E+01  0.13669129873E+02  0.00000000000E+00 0.  1.
          4    1    6    6  503    0  0.73927262119E+00  0.18145678380E+02  0.12064580682E+02  0.21802896021E+02  0.00000000000E+00 0.  1.
         -4    1    6    6    0  503 -0.28914905293E+03  0.14126072539E+03  0.47222994622E+02  0.32525648121E+03  0.00000000000E+00 0. -1.
<mgrwt>
<rscale>  0 0.17320689E+04</rscale>
<asrwt>0</asrwt>
<pdfrwt beam="1">  1        2 0.13982217E+00 0.17320689E+04</pdfrwt>
<pdfrwt beam="2">  1       -1 0.12696019E+00 0.17320689E+04</pdfrwt>
<totfact> 0.16864924E+01</totfact>
</mgrwt>
</event>
<event>
12    7  0.1544987E-007  0.2769125E+04  0.7818608E-02  0.8312918E-01
         -1   -1    0    0    0  501 -0.00000000000E+00  0.00000000000E+00  0.53320378045E+03  0.53320378045E+03  0.00000000000E+00 0.  1.
          2   -1    0    0  501    0  0.00000000000E+00 -0.00000000000E+00 -0.35952737732E+04  0.35952737732E+04  0.00000000000E+00 0. -1.
         24    2    1    2    0    0  0.20550583170E+03 -0.33827770037E+03  0.37673239532E+03  0.55222388893E+03  0.79746325240E+02 0.  0.
        254    2    1    2    0    0 -0.20550583170E+03  0.33827770037E+03 -0.34388023881E+04  0.35762536647E+04  0.89864562589E+03 0.  0.
         23    2    4    4    0    0  0.34134465339E+03  0.17421800013E+03 -0.11663933438E+04  0.12314169921E+04  0.95111997078E+02 0.  0.
         23    2    4    4    0    0 -0.54685048509E+03  0.16405970024E+03 -0.22724090443E+04  0.23448366727E+04  0.91951718937E+02 0.  0.
          4    1    3    3  502    0  0.62224705622E+02 -0.44001830318E+02  0.63723437035E+02  0.99341589924E+02  0.00000000000E+00 0. -1.
         -3    1    3    3    0  502  0.14328112608E+03 -0.29427587005E+03  0.31300895828E+03  0.45288229900E+03  0.00000000000E+00 0.  1.
         13    1    5    5    0    0  0.30752917976E+03  0.15409783884E+03 -0.92598929765E+03  0.98781401068E+03  0.00000000000E+00 0.  1.
        -13    1    5    5    0    0  0.33815473629E+02  0.20120161285E+02 -0.24040404612E+03  0.24360298138E+03  0.00000000000E+00 0. -1.
          1    1    6    6  503    0 -0.41316235628E+03  0.90682433475E+02 -0.15634595401E+04  0.16196703892E+04  0.00000000000E+00 0. -1.
         -1    1    6    6    0  503 -0.13368812881E+03  0.73377266767E+02 -0.70894950424E+03  0.72516628343E+03  0.00000000000E+00 0.  1.
<mgrwt>
<rscale>  0 0.27691252E+04</rscale>
<asrwt>0</asrwt>
<pdfrwt beam="1">  1        2 0.55311905E+00 0.27691252E+04</pdfrwt>
<pdfrwt beam="2">  1       -1 0.82031349E-01 0.27691252E+04</pdfrwt>
<totfact> 0.10200222E+00</totfact>
</mgrwt>
</event>
<event>
12    7  0.1544987E-007  0.1756320E+04  0.7818608E-02  0.8729879E-01
          2   -1    0    0  501    0  0.00000000000E+00  0.00000000000E+00  0.13008380547E+04  0.13008380547E+04  0.00000000000E+00 0. -1.
         -1   -1    0    0    0  501 -0.00000000000E+00 -0.00000000000E+00 -0.59282165942E+03  0.59282165942E+03  0.00000000000E+00 0.  1.
         24    2    1    2    0    0 -0.17185977423E+03 -0.70339580183E+02 -0.40393374725E+03  0.45112523441E+03  0.76603305535E+02 0.  0.
        254    2    1    2    0    0  0.17185977423E+03  0.70339580183E+02  0.11119501426E+04  0.14425344797E+04  0.89999398173E+03 0.  0.
         23    2    4    4    0    0  0.39366538470E+03 -0.23582160103E+03  0.86136330192E+03  0.98001191839E+03  0.88838953497E+02 0.  0.
         23    2    4    4    0    0 -0.22180561047E+03  0.30616118122E+03  0.25058684063E+03  0.46252256135E+03  0.90559137232E+02 0.  0.
          2    1    3    3  502    0 -0.16542203560E+01 -0.17512725391E+02 -0.14304381434E+02  0.22672611755E+02  0.00000000000E+00 0. -1.
         -1    1    3    3    0  502 -0.17020555387E+03 -0.52826854793E+02 -0.38962936582E+03  0.42845262266E+03  0.00000000000E+00 0.  1.
         13    1    5    5    0    0  0.71018310984E+02 -0.37517787158E+02  0.89567297704E+02  0.12030580063E+03  0.00000000000E+00 0.  1.
        -13    1    5    5    0    0  0.32264707371E+03 -0.19830381388E+03  0.77179600422E+03  0.85970611775E+03  0.00000000000E+00 0. -1.
          3    1    6    6  503    0 -0.92889691416E+02  0.19605138058E+03  0.16528259050E+03  0.27273242074E+03  0.00000000000E+00 0. -1.
         -3    1    6    6    0  503 -0.12891591906E+03  0.11010980064E+03  0.85304250132E+02  0.18979014061E+03  0.00000000000E+00 0.  1.
<mgrwt>
<rscale>  0 0.17563200E+04</rscale>
<asrwt>0</asrwt>
<pdfrwt beam="1">  1        2 0.20012893E+00 0.17563200E+04</pdfrwt>
<pdfrwt beam="2">  1       -1 0.91203333E-01 0.17563200E+04</pdfrwt>
<totfact> 0.20918379E+01</totfact>
</mgrwt>
</event>
<event>
12    7  0.1544987E-007  0.1220093E+04  0.7818608E-02  0.9095449E-01
         -1   -1    0    0    0  501 -0.00000000000E+00  0.00000000000E+00  0.14839689829E+03  0.14839689829E+03  0.00000000000E+00 0.  1.
          2   -1    0    0  501    0  0.00000000000E+00 -0.00000000000E+00 -0.25078477743E+04  0.25078477743E+04  0.00000000000E+00 0. -1.
         24    2    1    2    0    0  0.73386553212E+02 -0.11605401557E+03 -0.53386758450E+01  0.15942301380E+03  0.80827440557E+02 0.  0.
        254    2    1    2    0    0 -0.73386553212E+02  0.11605401557E+03 -0.23541122001E+04  0.24968216588E+04  0.82062173023E+03 0.  0.
         23    2    4    4    0    0 -0.22048061003E+03 -0.15903116490E+03 -0.19812103136E+04  0.20018692944E+04  0.91562843814E+02 0.  0.
         23    2    4    4    0    0  0.14709405681E+03  0.27508518047E+03 -0.37290188652E+03  0.49495236434E+03  0.92808986251E+02 0.  0.
          2    1    3    3  502    0  0.14816284467E+02 -0.96251006440E+02 -0.62976833368E+01  0.97588110657E+02  0.00000000000E+00 0. -1.
         -1    1    3    3    0  502  0.58570268745E+02 -0.19803009132E+02  0.95900749185E+00  0.61834903145E+02  0.00000000000E+00 0.  1.
         13    1    5    5    0    0 -0.10544529663E+03 -0.27009327287E+02 -0.62601746682E+03  0.63541016919E+03  0.00000000000E+00 0.  1.
        -13    1    5    5    0    0 -0.11503531340E+03 -0.13202183762E+03 -0.13551928468E+04  0.13664591253E+04  0.00000000000E+00 0. -1.
          1    1    6    6  503    0  0.18501894806E+02  0.12394869967E+03 -0.16936260783E+03  0.21068766739E+03  0.00000000000E+00 0. -1.
         -1    1    6    6    0  503  0.12859216201E+03  0.15113648080E+03 -0.20353927869E+03  0.28426469694E+03  0.00000000000E+00 0.  1.
<mgrwt>
<rscale>  0 0.12200932E+04</rscale>
<asrwt>0</asrwt>
<pdfrwt beam="1">  1        2 0.38582274E+00 0.12200932E+04</pdfrwt>
<pdfrwt beam="2">  1       -1 0.22830292E-01 0.12200932E+04</pdfrwt>
<totfact> 0.63639671E+01</totfact>
</mgrwt>
</event>
<event>
12    7  0.1544987E-007  0.1476224E+04  0.7818608E-02  0.8900419E-01
         -1   -1    0    0    0  501 -0.00000000000E+00  0.00000000000E+00  0.19516909646E+03  0.19516909646E+03  0.00000000000E+00 0.  1.
          2   -1    0    0  501    0  0.00000000000E+00 -0.00000000000E+00 -0.27914733335E+04  0.27914733335E+04  0.00000000000E+00 0. -1.
         24    2    1    2    0    0  0.12008575178E+03 -0.21229877766E+03 -0.24864822111E+02  0.25787229640E+03  0.79928112036E+02 0.  0.
        254    2    1    2    0    0 -0.12008575178E+03  0.21229877766E+03 -0.25714394149E+04  0.27287701336E+04  0.87999682862E+03 0.  0.
         23    2    4    4    0    0  0.84439781619E+02  0.28550170931E+03 -0.24388336262E+04  0.24585952468E+04  0.90220997671E+02 0.  0.
         23    2    4    4    0    0 -0.20452553339E+03 -0.73202931646E+02 -0.13260578871E+03  0.27017488677E+03  0.90668689366E+02 0.  0.
          4    1    3    3  502    0 -0.42009949225E+01 -0.22528778126E+02  0.15219375060E+02  0.27510426739E+02  0.00000000000E+00 0. -1.
         -3    1    3    3    0  502  0.12428674670E+03 -0.18976999954E+03 -0.40084197171E+02  0.23036186966E+03  0.00000000000E+00 0.  1.
         13    1    5    5    0    0  0.30563710180E+02  0.22303972557E+03 -0.19353259636E+04  0.19483755913E+04  0.00000000000E+00 0. -1.
        -13    1    5    5    0    0  0.53876071439E+02  0.62461983741E+02 -0.50350766261E+03  0.51021965544E+03  0.00000000000E+00 0.  1.
          3    1    6    6  503    0 -0.21266816350E+03 -0.70791649531E+02 -0.13460164121E+03  0.26145134772E+03  0.00000000000E+00 0. -1.
         -3    1    6    6    0  503  0.81426301022E+01 -0.24112821151E+01  0.19958524981E+01  0.87235390533E+01  0.00000000000E+00 0.  1.
<mgrwt>
<rscale>  0 0.14762240E+04</rscale>
<asrwt>0</asrwt>
<pdfrwt beam="1">  1        2 0.42945742E+00 0.14762240E+04</pdfrwt>
<pdfrwt beam="2">  1       -1 0.30026016E-01 0.14762240E+04</pdfrwt>
<totfact> 0.26423644E+01</totfact>
</mgrwt>
</event>
<event>
12    7  0.1544987E-007  0.1771232E+04  0.7818608E-02  0.8721750E-01
         -1   -1    0    0    0  501 -0.00000000000E+00  0.00000000000E+00  0.46497932823E+03  0.46497932823E+03  0.00000000000E+00 0.  1.
          2   -1    0    0  501    0  0.00000000000E+00 -0.00000000000E+00 -0.16867746286E+04  0.16867746286E+04  0.00000000000E+00 0. -1.
         24    2    1    2    0    0  0.74169348101E+02 -0.46143264063E+03 -0.11660003616E+04  0.12585863965E+04  0.77856920198E+02 0.  0.
        254    2    1    2    0    0 -0.74169348101E+02  0.46143264063E+03 -0.55794938745E+02  0.89316756037E+03  0.75908763767E+03 0.  0.
         23    2    4    4    0    0  0.22732267052E+03 -0.46679962060E+01 -0.19654842584E+03  0.31308128801E+03  0.87699615070E+02 0.  0.
         23    2    4    4    0    0 -0.30149201862E+03  0.46610063684E+03  0.14075348710E+03  0.58008627236E+03  0.92419144619E+02 0.  0.
          2    1    3    3  502    0  0.54445525558E+02 -0.26112479731E+03 -0.75961928981E+03  0.80509126221E+03  0.00000000000E+00 0. -1.
         -1    1    3    3    0  502  0.19723822543E+02 -0.20030784332E+03 -0.40638107182E+03  0.45349513427E+03  0.00000000000E+00 0.  1.
         13    1    5    5    0    0  0.15050688890E+03  0.22698705725E+02 -0.83248629230E+02  0.17348743216E+03  0.00000000000E+00 0. -1.
        -13    1    5    5    0    0  0.76815781615E+02 -0.27366701931E+02 -0.11329979661E+03  0.13959385586E+03  0.00000000000E+00 0.  1.
          3    1    6    6  503    0 -0.39446404768E+02  0.39029129337E+02 -0.10962536258E+02  0.56563848765E+02  0.00000000000E+00 0. -1.
         -3    1    6    6    0  503 -0.26204561385E+03  0.42707150750E+03  0.15171602336E+03  0.52352242359E+03  0.00000000000E+00 0.  1.
<mgrwt>
<rscale>  0 0.17712316E+04</rscale>
<asrwt>0</asrwt>
<pdfrwt beam="1">  1        2 0.25950378E+00 0.17712316E+04</pdfrwt>
<pdfrwt beam="2">  1       -1 0.71535283E-01 0.17712316E+04</pdfrwt>
<totfact> 0.21210954E+01</totfact>
</mgrwt>
</event>
<event>
12    7  0.1544987E-007  0.1952413E+04  0.7818608E-02  0.8629198E-01
         -1   -1    0    0    0  501 -0.00000000000E+00  0.00000000000E+00  0.49504332906E+03  0.49504332906E+03  0.00000000000E+00 0.  1.
          2   -1    0    0  501    0  0.00000000000E+00 -0.00000000000E+00 -0.19250421187E+04  0.19250421187E+04  0.00000000000E+00 0. -1.
         24    2    1    2    0    0  0.60251337562E+03  0.19144523345E+03 -0.10907040575E+04  0.12633002664E+04  0.81354636623E+02 0.  0.
        254    2    1    2    0    0 -0.60251337562E+03 -0.19144523345E+03 -0.33929473211E+03  0.11567851813E+04  0.90739043153E+03 0.  0.
         23    2    4    4    0    0 -0.51368165155E+03  0.22385963283E+03  0.55222398398E+02  0.57005787602E+03  0.89075778842E+02 0.  0.
         23    2    4    4    0    0 -0.88831724069E+02 -0.41530486628E+03 -0.39451713051E+03  0.58672730528E+03  0.90752175440E+02 0.  0.
          4    1    3    3  502    0  0.34019556497E+03  0.66689264304E+02 -0.57521073910E+03  0.67160097883E+03  0.00000000000E+00 0. -1.
         -3    1    3    3    0  502  0.26231781066E+03  0.12475596915E+03 -0.51549331841E+03  0.59169928760E+03  0.00000000000E+00 0.  1.
         13    1    5    5    0    0 -0.29543776307E+03  0.12183591385E+03 -0.12463302670E+02  0.31981681579E+03  0.00000000000E+00 0.  1.
        -13    1    5    5    0    0 -0.21824388849E+03  0.10202371897E+03  0.67685701067E+02  0.25024106023E+03  0.00000000000E+00 0. -1.
          3    1    6    6  503    0 -0.74767489010E+02 -0.14125216032E+03 -0.14075858839E+03  0.21296790935E+03  0.00000000000E+00 0. -1.
         -3    1    6    6    0  503 -0.14064235059E+02 -0.27405270595E+03 -0.25375854212E+03  0.37375939593E+03  0.00000000000E+00 0.  1.
<mgrwt>
<rscale>  0 0.19524131E+04</rscale>
<asrwt>0</asrwt>
<pdfrwt beam="1">  1        2 0.29616033E+00 0.19524131E+04</pdfrwt>
<pdfrwt beam="2">  1       -1 0.76160512E-01 0.19524131E+04</pdfrwt>
<totfact> 0.13519772E+01</totfact>
</mgrwt>
</event>
<event>
12    7  0.1544987E-007  0.4064250E+04  0.7818608E-02  0.7991709E-01
          2   -1    0    0  501    0  0.00000000000E+00  0.00000000000E+00  0.20045115082E+04  0.20045115082E+04  0.00000000000E+00 0. -1.
         -1   -1    0    0    0  501 -0.00000000000E+00 -0.00000000000E+00 -0.20601189055E+04  0.20601189055E+04  0.00000000000E+00 0.  1.
         24    2    1    2    0    0 -0.36371051950E+03 -0.86750309551E+03  0.16485150342E+04  0.18998150233E+04  0.82754710309E+02 0.  0.
        254    2    1    2    0    0  0.36371051950E+03  0.86750309551E+03 -0.17041224315E+04  0.21648153904E+04  0.94738875349E+03 0.  0.
         23    2    4    4    0    0  0.17684917086E+02  0.71428746590E+03 -0.44448788440E+03  0.84641192704E+03  0.91237769661E+02 0.  0.
         23    2    4    4    0    0  0.34602560241E+03  0.15321562961E+03 -0.12596345471E+04  0.13184034634E+04  0.91102981654E+02 0.  0.
          2    1    3    3  502    0 -0.36526371814E+03 -0.86867455500E+03  0.16454227434E+04  0.18961616679E+04  0.00000000000E+00 0. -1.
         -1    1    3    3    0  502  0.15531986423E+01  0.11714594908E+01  0.30922908059E+01  0.36533554151E+01  0.00000000000E+00 0.  1.
         13    1    5    5    0    0 -0.31869416889E+02  0.46225678698E+03 -0.27926754841E+03  0.54100587838E+03  0.00000000000E+00 0. -1.
        -13    1    5    5    0    0  0.49554333975E+02  0.25203067892E+03 -0.16522033598E+03  0.30540604866E+03  0.00000000000E+00 0.  1.
          2    1    6    6  503    0  0.63958730005E+02  0.29617970674E+02 -0.13405088309E+03  0.15145158497E+03  0.00000000000E+00 0. -1.
         -2    1    6    6    0  503  0.28206687240E+03  0.12359765893E+03 -0.11255836640E+04  0.11669518784E+04  0.00000000000E+00 0.  1.
<mgrwt>
<rscale>  0 0.40642500E+04</rscale>
<asrwt>0</asrwt>
<pdfrwt beam="1">  1        2 0.30838638E+00 0.40642500E+04</pdfrwt>
<pdfrwt beam="2">  1       -1 0.31694137E+00 0.40642500E+04</pdfrwt>
<totfact> 0.15198862E-01</totfact>
</mgrwt>
</event>
<event>
12    7  0.1544987E-007  0.1510403E+04  0.7818608E-02  0.8877565E-01
          2   -1    0    0  501    0  0.00000000000E+00  0.00000000000E+00  0.46740874179E+04  0.46740874179E+04  0.00000000000E+00 0. -1.
         -1   -1    0    0    0  501 -0.00000000000E+00 -0.00000000000E+00 -0.12201935788E+03  0.12201935788E+03  0.00000000000E+00 0.  1.
         24    2    1    2    0    0  0.37160254249E+03 -0.44205976429E+02  0.52180008161E+03  0.65038051966E+03  0.10332897583E+03 0.  0.
        254    2    1    2    0    0 -0.37160254249E+03  0.44205976429E+02  0.40302679784E+04  0.41457262561E+04  0.89662901743E+03 0.  0.
         23    2    4    4    0    0 -0.61904819264E+03  0.20739050572E+03  0.26065630573E+04  0.26886360553E+04  0.91440579902E+02 0.  0.
         23    2    4    4    0    0  0.24744565015E+03 -0.16318452929E+03  0.14237049211E+04  0.14570902008E+04  0.91200934522E+02 0.  0.
          2    1    3    3  502    0  0.13485304599E+03 -0.14875125111E+02  0.27768239697E+03  0.30905359882E+03  0.00000000000E+00 0. -1.
         -1    1    3    3    0  502  0.23674949650E+03 -0.29330851317E+02  0.24411768464E+03  0.34132692084E+03  0.00000000000E+00 0.  1.
         13    1    5    5    0    0 -0.35947041394E+03  0.74901334035E+02  0.15104032673E+04  0.15543960944E+04  0.00000000000E+00 0.  1.
        -13    1    5    5    0    0 -0.25957777870E+03  0.13248917168E+03  0.10961597900E+04  0.11342399609E+04  0.00000000000E+00 0. -1.
          2    1    6    6  503    0  0.96848784851E+02 -0.88726122094E+02  0.81970775648E+03  0.83016433187E+03  0.00000000000E+00 0. -1.
         -2    1    6    6    0  503  0.15059686530E+03 -0.74458407194E+02  0.60399716460E+03  0.62692586889E+03  0.00000000000E+00 0.  1.
<mgrwt>
<rscale>  0 0.15104028E+04</rscale>
<asrwt>0</asrwt>
<pdfrwt beam="1">  1        2 0.71909023E+00 0.15104028E+04</pdfrwt>
<pdfrwt beam="2">  1       -1 0.18772213E-01 0.15104028E+04</pdfrwt>
<totfact> 0.21282888E+00</totfact>
</mgrwt>
</event>
<event>
12    7  0.1604356E-007  0.1907781E+04  0.7818608E-02  0.8650993E-01
          2   -1    0    0  501    0  0.00000000000E+00  0.00000000000E+00  0.13458342305E+04  0.13458342305E+04  0.00000000000E+00 0. -1.
         -1   -1    0    0    0  501 -0.00000000000E+00 -0.00000000000E+00 -0.67609160877E+03  0.67609160877E+03  0.00000000000E+00 0.  1.
         24    2    1    2    0    0 -0.40422511182E+03  0.54638410754E+03  0.57524617707E+03  0.89386410439E+03  0.78430471609E+02 0.  0.
        254    2    1    2    0    0  0.40422511182E+03 -0.54638410754E+03  0.94496444674E+02  0.11280617349E+04  0.89535477087E+03 0.  0.
         23    2    4    4    0    0 -0.38448435606E+02 -0.49277398347E+03 -0.24529584356E+03  0.55937657773E+03  0.91802090677E+02 0.  0.
         23    2    4    4    0    0  0.44267354743E+03 -0.53610124066E+02  0.33979228823E+03  0.56868515719E+03  0.95446811711E+02 0.  0.
          4    1    3    3  502    0 -0.33496048546E+03  0.47513220719E+03  0.45733790201E+03  0.73966688296E+03  0.00000000000E+00 0. -1.
         -3    1    3    3    0  502 -0.69264626356E+02  0.71251900348E+02  0.11790827506E+03  0.15419722143E+03  0.00000000000E+00 0.  1.
         13    1    5    5    0    0 -0.39788341188E+02 -0.49652025544E+03 -0.24046263852E+03  0.55311640428E+03  0.00000000000E+00 0. -1.
        -13    1    5    5    0    0  0.13399055813E+01  0.37462719699E+01 -0.48332050360E+01  0.62601734448E+01  0.00000000000E+00 0.  1.
          3    1    6    6  503    0  0.23560535792E+03  0.19053377631E+02  0.16806940675E+03  0.29003489681E+03  0.00000000000E+00 0. -1.
         -3    1    6    6    0  503  0.20706818950E+03 -0.72663501696E+02  0.17172288148E+03  0.27865026038E+03  0.00000000000E+00 0.  1.
<mgrwt>
<rscale>  0 0.19077812E+04</rscale>
<asrwt>0</asrwt>
<pdfrwt beam="1">  1        2 0.20705142E+00 0.19077812E+04</pdfrwt>
<pdfrwt beam="2">  1       -1 0.10401409E+00 0.19077812E+04</pdfrwt>
<totfact> 0.14436225E+01</totfact>
</mgrwt>
</event>
<event>
12    7  0.1544987E-007  0.3538618E+04  0.7818608E-02  0.8104699E-01
         -1   -1    0    0    0  501 -0.00000000000E+00  0.00000000000E+00  0.14326608932E+04  0.14326608932E+04  0.00000000000E+00 0.  1.
          2   -1    0    0  501    0  0.00000000000E+00 -0.00000000000E+00 -0.21850625025E+04  0.21850625025E+04  0.00000000000E+00 0. -1.
         24    2    1    2    0    0 -0.15086032628E+04  0.58424137652E+03 -0.70373721889E+03  0.17660379464E+04  0.80138407839E+02 0.  0.
        254    2    1    2    0    0  0.15086032628E+04 -0.58424137652E+03 -0.48664390358E+02  0.18516854493E+04  0.89952709223E+03 0.  0.
         23    2    4    4    0    0  0.22497347716E+02 -0.30324332512E+03 -0.10999327501E+03  0.33528829046E+03  0.88640127988E+02 0.  0.
         23    2    4    4    0    0  0.14861059151E+04 -0.28099805140E+03  0.61328884650E+02  0.15163971588E+04  0.90710613878E+02 0.  0.
          2    1    3    3  502    0 -0.58949893146E+03  0.26180756622E+03 -0.25456720093E+03  0.69343828255E+03  0.00000000000E+00 0. -1.
         -1    1    3    3    0  502 -0.91910433134E+03  0.32243381030E+03 -0.44917001796E+03  0.10725996639E+04  0.00000000000E+00 0.  1.
         13    1    5    5    0    0 -0.87095651480E+01 -0.10931332366E+03 -0.81892463767E+02  0.13686356300E+03  0.00000000000E+00 0. -1.
        -13    1    5    5    0    0  0.31206912864E+02 -0.19393000146E+03 -0.28100811241E+02  0.19842472746E+03  0.00000000000E+00 0.  1.
          4    1    6    6  503    0  0.49387247495E+03 -0.13678658244E+03  0.16029418310E+02  0.51271584030E+03  0.00000000000E+00 0. -1.
         -4    1    6    6    0  503  0.99223344014E+03 -0.14421146896E+03  0.45299466341E+02  0.10036813185E+04  0.00000000000E+00 0.  1.
<mgrwt>
<rscale>  0 0.35386176E+04</rscale>
<asrwt>0</asrwt>
<pdfrwt beam="1">  1        2 0.33616346E+00 0.35386176E+04</pdfrwt>
<pdfrwt beam="2">  1       -1 0.22040937E+00 0.35386176E+04</pdfrwt>
<totfact> 0.53625076E-01</totfact>
</mgrwt>
</event>
<event>
12    7  0.1544987E-007  0.1175475E+04  0.7818608E-02  0.9134598E-01
          2   -1    0    0  501    0  0.00000000000E+00  0.00000000000E+00  0.33996962690E+03  0.33996962690E+03  0.00000000000E+00 0. -1.
         -1   -1    0    0    0  501 -0.00000000000E+00 -0.00000000000E+00 -0.10160777822E+04  0.10160777822E+04  0.00000000000E+00 0.  1.
         24    2    1    2    0    0  0.21136088526E+03 -0.39664991681E+02 -0.10367769363E+02  0.22929084755E+03  0.78867399745E+02 0.  0.
        254    2    1    2    0    0 -0.21136088526E+03  0.39664991681E+02 -0.66574038596E+03  0.11267565616E+04  0.88324591829E+03 0.  0.
         23    2    4    4    0    0 -0.61543994709E+02 -0.40005516475E+02 -0.85154862515E+03  0.85953600878E+03  0.90988926658E+02 0.  0.
         23    2    4    4    0    0 -0.14981689056E+03  0.79670508155E+02  0.18580823919E+03  0.26722055279E+03  0.89942378870E+02 0.  0.
          2    1    3    3  502    0  0.40718901100E+02  0.63424007443E+00 -0.33111077475E+02  0.52485946869E+02  0.00000000000E+00 0. -1.
         -1    1    3    3    0  502  0.17064198417E+03 -0.40299231755E+02  0.22743308112E+02  0.17680490068E+03  0.00000000000E+00 0.  1.
         13    1    5    5    0    0 -0.55321020765E+02 -0.82801869834E+00 -0.22388233068E+03  0.23061742983E+03  0.00000000000E+00 0. -1.
        -13    1    5    5    0    0 -0.62229739444E+01 -0.39177497776E+02 -0.62766629447E+03  0.62891857895E+03  0.00000000000E+00 0.  1.
          4    1    6    6  503    0  0.61766632932E+00  0.17983242167E+02  0.57051896892E+02  0.59822215351E+02  0.00000000000E+00 0. -1.
         -4    1    6    6    0  503 -0.15043455689E+03  0.61687265989E+02  0.12875634230E+03  0.20739833744E+03  0.00000000000E+00 0.  1.
<mgrwt>
<rscale>  0 0.11754754E+04</rscale>
<asrwt>0</asrwt>
<pdfrwt beam="1">  1        2 0.52303020E-01 0.11754754E+04</pdfrwt>
<pdfrwt beam="2">  1       -1 0.15631966E+00 0.11754754E+04</pdfrwt>
<totfact> 0.33690027E+01</totfact>
</mgrwt>
</event>
<event>
12    7  0.1544987E-007  0.1353080E+04  0.7818608E-02  0.8988500E-01
         -1   -1    0    0    0  501 -0.00000000000E+00  0.00000000000E+00  0.48461886727E+03  0.48461886727E+03  0.00000000000E+00 0.  1.
          2   -1    0    0  501    0  0.00000000000E+00 -0.00000000000E+00 -0.94446688755E+03  0.94446688755E+03  0.00000000000E+00 0. -1.
         24    2    1    2    0    0  0.30223655385E+02  0.67934870855E+02 -0.51449524307E+03  0.52583527691E+03  0.79175547206E+02 0.  0.
        254    2    1    2    0    0 -0.30223655385E+02 -0.67934870855E+02  0.54647222792E+02  0.90325047791E+03  0.89852461895E+03 0.  0.
         23    2    4    4    0    0  0.27063206693E+03 -0.72757989045E+02 -0.30575675677E+03  0.42490051252E+03  0.92291985628E+02 0.  0.
         23    2    4    4    0    0 -0.30085572231E+03  0.48231181904E+01  0.36040397956E+03  0.47834996539E+03  0.91598213912E+02 0.  0.
          4    1    3    3  502    0  0.98216944776E+01  0.19543518259E+02 -0.39133443073E+03  0.39194521487E+03  0.00000000000E+00 0. -1.
         -3    1    3    3    0  502  0.20401960907E+02  0.48391352595E+02 -0.12316081234E+03  0.13389006204E+03  0.00000000000E+00 0.  1.
         13    1    5    5    0    0  0.15703640616E+02  0.73388343546E+01  0.18562951497E+01  0.17432975935E+02  0.00000000000E+00 0.  1.
        -13    1    5    5    0    0  0.25492842631E+03 -0.80096823400E+02 -0.30761305192E+03  0.40746753658E+03  0.00000000000E+00 0. -1.
          3    1    6    6  503    0 -0.27706813227E+03  0.27829566756E+02  0.33997582125E+03  0.43945966110E+03  0.00000000000E+00 0. -1.
         -3    1    6    6    0  503 -0.23787590047E+02 -0.23006448566E+02  0.20428158314E+02  0.38890304293E+02  0.00000000000E+00 0.  1.
<mgrwt>
<rscale>  0 0.13530802E+04</rscale>
<asrwt>0</asrwt>
<pdfrwt beam="1">  1        2 0.14530260E+00 0.13530802E+04</pdfrwt>
<pdfrwt beam="2">  1       -1 0.74556750E-01 0.13530802E+04</pdfrwt>
<totfact> 0.55243831E+01</totfact>
</mgrwt>
</event>
<event>
12    7  0.1544987E-007  0.1451852E+04  0.7818608E-02  0.8917117E-01
          2   -1    0    0  501    0  0.00000000000E+00  0.00000000000E+00  0.28867066650E+04  0.28867066650E+04  0.00000000000E+00 0. -1.
         -1   -1    0    0    0  501 -0.00000000000E+00 -0.00000000000E+00 -0.18255016957E+03  0.18255016957E+03  0.00000000000E+00 0.  1.
         24    2    1    2    0    0 -0.40354744265E+03  0.25725666489E+02  0.12074503808E+04  0.12758062377E+04  0.78947994080E+02 0.  0.
        254    2    1    2    0    0  0.40354744265E+03 -0.25725666489E+02  0.14967061146E+04  0.17934505968E+04  0.90156724726E+03 0.  0.
         23    2    4    4    0    0  0.41679555660E+03 -0.41952818647E+02  0.15984137495E+04  0.16551264435E+04  0.95070786640E+02 0.  0.
         23    2    4    4    0    0 -0.13248113949E+02  0.16227152157E+02 -0.10170763488E+03  0.13832415330E+03  0.91379950760E+02 0.  0.
          2    1    3    3  502    0 -0.28173032685E+02 -0.18905714639E+02  0.93877294022E+02  0.99820299286E+02  0.00000000000E+00 0. -1.
         -1    1    3    3    0  502 -0.37537440997E+03  0.44631381129E+02  0.11135730867E+04  0.11759859384E+04  0.00000000000E+00 0.  1.
         13    1    5    5    0    0  0.40035146492E+02  0.18983848039E+02  0.24289491181E+03  0.24690309359E+03  0.00000000000E+00 0. -1.
        -13    1    5    5    0    0  0.37676041011E+03 -0.60936666685E+02  0.13555188377E+04  0.14082233499E+04  0.00000000000E+00 0.  1.
          1    1    6    6  503    0  0.17464836747E+02 -0.25751120640E+02 -0.96303848386E+01  0.32571230388E+02  0.00000000000E+00 0. -1.
         -1    1    6    6    0  503 -0.30712950696E+02  0.41978272798E+02 -0.92077250046E+02  0.10575292291E+03  0.00000000000E+00 0.  1.
<mgrwt>
<rscale>  0 0.14518523E+04</rscale>
<asrwt>0</asrwt>
<pdfrwt beam="1">  1        2 0.44410869E+00 0.14518523E+04</pdfrwt>
<pdfrwt beam="2">  1       -1 0.28084644E-01 0.14518523E+04</pdfrwt>
<totfact> 0.26069259E+01</totfact>
</mgrwt>
</event>
<event>
12    7  0.1544987E-007  0.1214837E+04  0.7818608E-02  0.9099968E-01
          2   -1    0    0  501    0  0.00000000000E+00  0.00000000000E+00  0.56861726371E+03  0.56861726371E+03  0.00000000000E+00 0. -1.
         -1   -1    0    0    0  501 -0.00000000000E+00 -0.00000000000E+00 -0.64886754818E+03  0.64886754818E+03  0.00000000000E+00 0.  1.
         24    2    1    2    0    0  0.74166567109E+02  0.23215154391E+03  0.11346745909E+03  0.28032530804E+03  0.79450582350E+02 0.  0.
        254    2    1    2    0    0 -0.74166567109E+02 -0.23215154391E+03 -0.19371774356E+03  0.93715950385E+03  0.88393797999E+03 0.  0.
         23    2    4    4    0    0  0.32973275330E+03 -0.41929738056E+02  0.13998515516E+03  0.37255117345E+03  0.93363491995E+02 0.  0.
         23    2    4    4    0    0 -0.40389932041E+03 -0.19022180586E+03 -0.33370289872E+03  0.56460833040E+03  0.90033025562E+02 0.  0.
          4    1    3    3  502    0  0.71578754215E+02  0.23623460156E+03  0.10055264687E+03  0.26653543821E+03  0.00000000000E+00 0. -1.
         -3    1    3    3    0  502  0.25878128937E+01 -0.40830576429E+01  0.12914812218E+02  0.13789869830E+02  0.00000000000E+00 0.  1.
         13    1    5    5    0    0  0.33545690184E+03 -0.42865931456E+02  0.14144091478E+03  0.36657107557E+03  0.00000000000E+00 0.  1.
        -13    1    5    5    0    0 -0.57241485383E+01  0.93619339929E+00 -0.14557596134E+01  0.59800978773E+01  0.00000000000E+00 0. -1.
          3    1    6    6  503    0 -0.98804485787E+02 -0.10557332147E+02 -0.52005659340E+02  0.11215334269E+03  0.00000000000E+00 0. -1.
         -3    1    6    6    0  503 -0.30509483462E+03 -0.17966447371E+03 -0.28169723938E+03  0.45245498771E+03  0.00000000000E+00 0.  1.
<mgrwt>
<rscale>  0 0.12148371E+04</rscale>
<asrwt>0</asrwt>
<pdfrwt beam="1">  1        2 0.87479579E-01 0.12148371E+04</pdfrwt>
<pdfrwt beam="2">  1       -1 0.99825776E-01 0.12148371E+04</pdfrwt>
<totfact> 0.57084651E+01</totfact>
</mgrwt>
</event>
<event>
12    7  0.1544987E-007  0.1270853E+04  0.7818608E-02  0.9053004E-01
          2   -1    0    0  501    0  0.00000000000E+00  0.00000000000E+00  0.68495652527E+03  0.68495652527E+03  0.00000000000E+00 0. -1.
         -1   -1    0    0    0  501 -0.00000000000E+00 -0.00000000000E+00 -0.58947771633E+03  0.58947771633E+03  0.00000000000E+00 0.  1.
         24    2    1    2    0    0 -0.12019740475E+03 -0.20599260431E+03 -0.16434773265E+03  0.30056204416E+03  0.80293187914E+02 0.  0.
        254    2    1    2    0    0  0.12019740475E+03  0.20599260431E+03  0.25982654160E+03  0.97387219744E+03  0.90776475812E+03 0.  0.
         23    2    4    4    0    0  0.42620770985E+03  0.64302127072E+02 -0.12129778633E+03  0.45700499342E+03  0.91392754416E+02 0.  0.
         23    2    4    4    0    0 -0.30601030510E+03  0.14169047723E+03  0.38112432794E+03  0.51686720402E+03  0.90429282208E+02 0.  0.
          2    1    3    3  502    0 -0.29483461631E+02 -0.11124843071E+03 -0.46159952486E+02  0.12400092362E+03  0.00000000000E+00 0. -1.
         -1    1    3    3    0  502 -0.90713943119E+02 -0.94744173600E+02 -0.11818778017E+03  0.17656112055E+03  0.00000000000E+00 0.  1.
         13    1    5    5    0    0  0.15497393234E+03  0.62489215616E+02 -0.23852009820E+02  0.16879200262E+03  0.00000000000E+00 0.  1.
        -13    1    5    5    0    0  0.27123377750E+03  0.18129114561E+01 -0.97445776513E+02  0.28821299080E+03  0.00000000000E+00 0. -1.
          4    1    6    6  503    0 -0.19011631851E+03  0.42778259253E+02  0.18690048544E+03  0.27001108401E+03  0.00000000000E+00 0.  1.
         -4    1    6    6    0  503 -0.11589398658E+03  0.98912217980E+02  0.19422384250E+03  0.24685612001E+03  0.00000000000E+00 0. -1.
<mgrwt>
<rscale>  0 0.12708526E+04</rscale>
<asrwt>0</asrwt>
<pdfrwt beam="1">  1        2 0.10537793E+00 0.12708526E+04</pdfrwt>
<pdfrwt beam="2">  1       -1 0.90688879E-01 0.12708526E+04</pdfrwt>
<totfact> 0.56145393E+01</totfact>
</mgrwt>
</event>
<event>
12    7  0.1544987E-007  0.1653697E+04  0.7818608E-02  0.8788223E-01
          2   -1    0    0  501    0  0.00000000000E+00  0.00000000000E+00  0.11029525372E+04  0.11029525372E+04  0.00000000000E+00 0. -1.
         -1   -1    0    0    0  501 -0.00000000000E+00 -0.00000000000E+00 -0.61986171157E+03  0.61986171157E+03  0.00000000000E+00 0.  1.
         24    2    1    2    0    0  0.45131067070E+03  0.17294512269E+03 -0.15082472408E+03  0.51243105685E+03  0.79032611507E+02 0.  0.
        254    2    1    2    0    0 -0.45131067070E+03 -0.17294512269E+03  0.63391554973E+03  0.12103831919E+04  0.91081678189E+03 0.  0.
         23    2    4    4    0    0  0.20249924255E+03 -0.11442405554E+03 -0.53362662544E+02  0.25575121550E+03  0.91990775392E+02 0.  0.
         23    2    4    4    0    0 -0.65380991325E+03 -0.58521067149E+02  0.68727821227E+03  0.95463197643E+03  0.89881874653E+02 0.  0.
          2    1    3    3  502    0  0.85061731445E+02  0.23024770569E+02  0.21485617339E+01  0.88149047265E+02  0.00000000000E+00 0. -1.
         -1    1    3    3    0  502  0.36624893926E+03  0.14992035212E+03 -0.15297328582E+03  0.42428200959E+03  0.00000000000E+00 0.  1.
         13    1    5    5    0    0  0.39056600461E+02  0.24341614728E+01 -0.37508504823E+02  0.54205452823E+02  0.00000000000E+00 0.  1.
        -13    1    5    5    0    0  0.16344264209E+03 -0.11685821702E+03 -0.15854157721E+02  0.20154576268E+03  0.00000000000E+00 0. -1.
          2    1    6    6  503    0 -0.20036963847E+03 -0.12795326282E+01  0.15686282890E+03  0.25447116991E+03  0.00000000000E+00 0. -1.
         -2    1    6    6    0  503 -0.45344027478E+03 -0.57241534521E+02  0.53041538337E+03  0.70016080652E+03  0.00000000000E+00 0.  1.
<mgrwt>
<rscale>  0 0.16536965E+04</rscale>
<asrwt>0</asrwt>
<pdfrwt beam="1">  1        2 0.16968501E+00 0.16536965E+04</pdfrwt>
<pdfrwt beam="2">  1       -1 0.95363340E-01 0.16536965E+04</pdfrwt>
<totfact> 0.25090612E+01</totfact>
</mgrwt>
</event>
<event>
12    7  0.1544987E-007  0.1461211E+04  0.7818608E-02  0.8910665E-01
         -1   -1    0    0    0  501 -0.00000000000E+00  0.00000000000E+00  0.49579009536E+03  0.49579009536E+03  0.00000000000E+00 0.  1.
          2   -1    0    0  501    0  0.00000000000E+00 -0.00000000000E+00 -0.10766332965E+04  0.10766332965E+04  0.00000000000E+00 0. -1.
         24    2    1    2    0    0 -0.28180633697E+02  0.22898595502E+03 -0.59002014285E+03  0.63859633840E+03  0.80329314290E+02 0.  0.
        254    2    1    2    0    0  0.28180633697E+02 -0.22898595502E+03  0.91769416822E+01  0.93382705350E+03  0.90483149474E+03 0.  0.
         23    2    4    4    0    0  0.46024058676E+02 -0.37779445358E+03  0.36759574611E+03  0.53514542555E+03  0.80044555084E+02 0.  0.
         23    2    4    4    0    0 -0.17843424979E+02  0.14880849857E+03 -0.35841880443E+03  0.39868162794E+03  0.89558048385E+02 0.  0.
          2    1    3    3  502    0 -0.53823596000E+02  0.18054554850E+03 -0.48084860065E+03  0.51643881663E+03  0.00000000000E+00 0. -1.
         -3    1    3    3    0  502  0.25642962302E+02  0.48440406516E+02 -0.10917154220E+03  0.12215752177E+03  0.00000000000E+00 0.  1.
         13    1    5    5    0    0  0.32871264926E+02 -0.46613272625E+02  0.45308232854E+02  0.72843347033E+02  0.00000000000E+00 0.  1.
        -13    1    5    5    0    0  0.13152793750E+02 -0.33118118096E+03  0.32228751326E+03  0.46230207852E+03  0.00000000000E+00 0. -1.
          3    1    6    6  503    0 -0.50934710249E+02  0.74994036298E+02 -0.22606837229E+03  0.24356797642E+03  0.00000000000E+00 0. -1.
         -3    1    6    6    0  503  0.33091285271E+02  0.73814462269E+02 -0.13235043214E+03  0.15511365152E+03  0.00000000000E+00 0.  1.
<mgrwt>
<rscale>  0 0.14612106E+04</rscale>
<asrwt>0</asrwt>
<pdfrwt beam="1">  1        2 0.16563589E+00 0.14612106E+04</pdfrwt>
<pdfrwt beam="2">  1       -1 0.76275400E-01 0.14612106E+04</pdfrwt>
<totfact> 0.42972063E+01</totfact>
</mgrwt>
</event>
<event>
12    7  0.1544987E-007  0.2153061E+04  0.7818608E-02  0.8538223E-01
          2   -1    0    0  501    0  0.00000000000E+00  0.00000000000E+00  0.19248056333E+04  0.19248056333E+04  0.00000000000E+00 0. -1.
         -1   -1    0    0    0  501 -0.00000000000E+00 -0.00000000000E+00 -0.60209602103E+03  0.60209602103E+03  0.00000000000E+00 0.  1.
         24    2    1    2    0    0  0.23809313929E+03  0.70245963712E+03 -0.26808026964E+02  0.74652328854E+03  0.80252509381E+02 0.  0.
        254    2    1    2    0    0 -0.23809313929E+03 -0.70245963712E+03  0.13495176392E+04  0.17803783658E+04  0.89353868526E+03 0.  0.
         23    2    4    4    0    0 -0.36474555462E+03 -0.85989066616E+03  0.10459326234E+04  0.14052851904E+04  0.91652257431E+02 0.  0.
         23    2    4    4    0    0  0.12665241532E+03  0.15743102904E+03  0.30358501580E+03  0.37509317538E+03  0.87781918322E+02 0.  0.
          4    1    3    3  502    0  0.12655922505E+03  0.46816035862E+03  0.57324860993E+01  0.48499919611E+03  0.00000000000E+00 0. -1.
         -3    1    3    3    0  502  0.11153391424E+03  0.23429927850E+03 -0.32540513064E+02  0.26152409243E+03  0.00000000000E+00 0.  1.
         13    1    5    5    0    0 -0.28322093381E+03 -0.56479420980E+03  0.68160444806E+03  0.92940369075E+03  0.00000000000E+00 0.  1.
        -13    1    5    5    0    0 -0.81524620804E+02 -0.29509645636E+03  0.36432817538E+03  0.47588149967E+03  0.00000000000E+00 0. -1.
          4    1    6    6  503    0  0.70287261208E+02  0.22157350815E+02  0.97701675353E+02  0.12238000102E+03  0.00000000000E+00 0.  1.
         -4    1    6    6    0  503  0.56365154116E+02  0.13527367823E+03  0.20588334045E+03  0.25271317436E+03  0.00000000000E+00 0. -1.
<mgrwt>
<rscale>  0 0.21530609E+04</rscale>
<asrwt>0</asrwt>
<pdfrwt beam="1">  1        2 0.29612394E+00 0.21530609E+04</pdfrwt>
<pdfrwt beam="2">  1       -1 0.92630158E-01 0.21530609E+04</pdfrwt>
<totfact> 0.87064661E+00</totfact>
</mgrwt>
</event>
<event>
12    7  0.1544987E-007  0.2619134E+04  0.7818608E-02  0.8361731E-01
         -1   -1    0    0    0  501 -0.00000000000E+00  0.00000000000E+00  0.11088246367E+04  0.11088246367E+04  0.00000000000E+00 0.  1.
          2   -1    0    0  501    0  0.00000000000E+00 -0.00000000000E+00 -0.15466518111E+04  0.15466518111E+04  0.00000000000E+00 0. -1.
         24    2    1    2    0    0  0.20077507430E+03 -0.11294074230E+04 -0.30591937131E+03  0.11899502122E+04  0.80765637249E+02 0.  0.
        254    2    1    2    0    0 -0.20077507430E+03  0.11294074230E+04 -0.13190780315E+03  0.14655262356E+04  0.90249416679E+03 0.  0.
         23    2    4    4    0    0 -0.41423826798E+03  0.75360982794E+03  0.23048083194E+03  0.89461850253E+03  0.87748138096E+02 0.  0.
         23    2    4    4    0    0  0.21346319368E+03  0.37579759505E+03 -0.36238863509E+03  0.57090773306E+03  0.88429346511E+02 0.  0.
          4    1    3    3  502    0  0.22578532904E+02 -0.28309360527E+03 -0.53404496118E+02  0.28897027477E+03  0.00000000000E+00 0. -1.
         -3    1    3    3    0  502  0.17819654140E+03 -0.84631381772E+03 -0.25251487519E+03  0.90097993741E+03  0.00000000000E+00 0.  1.
         13    1    5    5    0    0 -0.22397964294E+03  0.47847710722E+03  0.16757442394E+03  0.55424580300E+03  0.00000000000E+00 0. -1.
        -13    1    5    5    0    0 -0.19025862504E+03  0.27513272072E+03  0.62906407999E+02  0.34037269952E+03  0.00000000000E+00 0.  1.
          1    1    6    6  503    0  0.98087156111E+01  0.87720941376E+02 -0.77053749862E+02  0.11716848905E+03  0.00000000000E+00 0. -1.
         -1    1    6    6    0  503  0.20365447807E+03  0.28807665367E+03 -0.28533488523E+03  0.45373924401E+03  0.00000000000E+00 0.  1.
<mgrwt>
<rscale>  0 0.26191339E+04</rscale>
<asrwt>0</asrwt>
<pdfrwt beam="1">  1        2 0.23794643E+00 0.26191339E+04</pdfrwt>
<pdfrwt beam="2">  1       -1 0.17058841E+00 0.26191339E+04</pdfrwt>
<totfact> 0.29276102E+00</totfact>
</mgrwt>
</event>
<event>
12    7  0.1544987E-007  0.1673022E+04  0.7818608E-02  0.8776902E-01
         -3   -1    0    0    0  501 -0.00000000000E+00  0.00000000000E+00  0.91892034796E+03  0.91892034796E+03  0.00000000000E+00 0.  1.
          2   -1    0    0  501    0  0.00000000000E+00 -0.00000000000E+00 -0.76149256935E+03  0.76149256935E+03  0.00000000000E+00 0. -1.
         24    2    1    2    0    0 -0.26391692229E+03 -0.34302112463E+03 -0.34325415829E+03  0.55829120143E+03  0.80932160457E+02 0.  0.
        254    2    1    2    0    0  0.26391692229E+03  0.34302112463E+03  0.50068193690E+03  0.11221217159E+04  0.90617829895E+03 0.  0.
         23    2    4    4    0    0  0.47698220793E+03  0.48911094573E+03  0.49279444632E+03  0.84734947329E+03  0.91723604667E+02 0.  0.
         23    2    4    4    0    0 -0.21306528564E+03 -0.14608982110E+03  0.78874905805E+01  0.27477224258E+03  0.93265861990E+02 0.  0.
          4    1    3    3  502    0 -0.15422421907E+03 -0.25590228662E+03 -0.21224576875E+03  0.36649605237E+03  0.00000000000E+00 0. -1.
         -3    1    3    3    0  502 -0.10969270321E+03 -0.87118838009E+02 -0.13100838954E+03  0.19179514906E+03  0.00000000000E+00 0.  1.
         13    1    5    5    0    0  0.39206894444E+03  0.43851158054E+03  0.44480393298E+03  0.73746932293E+03  0.00000000000E+00 0. -1.
        -13    1    5    5    0    0  0.84913263489E+02  0.50599365190E+02  0.47990513333E+02  0.10988015036E+03  0.00000000000E+00 0.  1.
          1    1    6    6  503    0 -0.22210211638E+03 -0.13931505142E+03  0.12719371835E+02  0.26248774461E+03  0.00000000000E+00 0. -1.
         -1    1    6    6    0  503  0.90368307364E+01 -0.67747696836E+01 -0.48318812542E+01  0.12284497974E+02  0.00000000000E+00 0.  1.
<mgrwt>
<rscale>  0 0.16730224E+04</rscale>
<asrwt>0</asrwt>
<pdfrwt beam="1">  1        2 0.11715270E+00 0.16730224E+04</pdfrwt>
<pdfrwt beam="2">  1       -3 0.14137236E+00 0.16730224E+04</pdfrwt>
<totfact> 0.83004182E+00</totfact>
</mgrwt>
</event>
<event>
12    7  0.1544987E-007  0.2718702E+04  0.7818608E-02  0.8328962E-01
          2   -1    0    0  501    0  0.00000000000E+00  0.00000000000E+00  0.24107698490E+04  0.24107698490E+04  0.00000000000E+00 0. -1.
         -1   -1    0    0    0  501 -0.00000000000E+00 -0.00000000000E+00 -0.76649189299E+03  0.76649189299E+03  0.00000000000E+00 0.  1.
         24    2    1    2    0    0 -0.11382530770E+04  0.18547570981E+03  0.28114082204E+03  0.11907483128E+04  0.93915262450E+02 0.  0.
        254    2    1    2    0    0  0.11382530770E+04 -0.18547570981E+03  0.13631371340E+04  0.19865134292E+04  0.87067298811E+03 0.  0.
         23    2    4    4    0    0  0.11348020735E+04 -0.39372563358E+03  0.12368976436E+04  0.17266772216E+04  0.93288940274E+02 0.  0.
         23    2    4    4    0    0  0.34510034225E+01  0.20824992377E+03  0.12623949041E+03  0.25983620757E+03  0.90545599850E+02 0.  0.
          4    1    3    3  502    0 -0.61330720744E+02  0.28555514597E+02  0.29121184763E+02  0.73654043493E+02  0.00000000000E+00 0. -1.
         -3    1    3    3    0  502 -0.10769223562E+04  0.15692019521E+03  0.25201963727E+03  0.11170942693E+04  0.00000000000E+00 0.  1.
         13    1    5    5    0    0  0.25670167356E+03 -0.70965151201E+02  0.22587520496E+03  0.34921542078E+03  0.00000000000E+00 0. -1.
        -13    1    5    5    0    0  0.87810039997E+03 -0.32276048238E+03  0.10110224386E+04  0.13774618008E+04  0.00000000000E+00 0.  1.
          4    1    6    6  503    0 -0.29929944528E+02  0.42172267672E+02  0.56639212467E+02  0.76696167628E+02  0.00000000000E+00 0. -1.
         -4    1    6    6    0  503  0.33380947950E+02  0.16607765610E+03  0.69600277943E+02  0.18314003994E+03  0.00000000000E+00 0.  1.
<mgrwt>
<rscale>  0 0.27187023E+04</rscale>
<asrwt>0</asrwt>
<pdfrwt beam="1">  1        2 0.37088767E+00 0.27187023E+04</pdfrwt>
<pdfrwt beam="2">  1       -1 0.11792183E+00 0.27187023E+04</pdfrwt>
<totfact> 0.25215780E+00</totfact>
</mgrwt>
</event>
<event>
12    7  0.1544987E-007  0.2092753E+04  0.7818608E-02  0.8564442E-01
          2   -1    0    0  501    0  0.00000000000E+00  0.00000000000E+00  0.10566513727E+04  0.10566513727E+04  0.00000000000E+00 0. -1.
         -1   -1    0    0    0  501 -0.00000000000E+00 -0.00000000000E+00 -0.10362016619E+04  0.10362016619E+04  0.00000000000E+00 0.  1.
         24    2    1    2    0    0  0.79832351674E+03 -0.60756821914E+02  0.29394863400E+03  0.85648424451E+03  0.78406841981E+02 0.  0.
        254    2    1    2    0    0 -0.79832351674E+03  0.60756821914E+02 -0.27349892320E+03  0.12363687902E+04  0.90155104989E+03 0.  0.
         23    2    4    4    0    0 -0.56534084381E+03 -0.36493753483E+03 -0.16796952577E+02  0.67996906020E+03  0.96364470652E+02 0.  0.
         23    2    4    4    0    0 -0.23298267293E+03  0.42569435674E+03 -0.25670197062E+03  0.55639972999E+03  0.90488378047E+02 0.  0.
          4    1    3    3  502    0  0.73793460268E+03 -0.35819782318E+02  0.27661022288E+03  0.78888766630E+03  0.00000000000E+00 0. -1.
         -1    1    3    3    0  502  0.60388914058E+02 -0.24937039596E+02  0.17338411117E+02  0.67596578205E+02  0.00000000000E+00 0.  1.
         13    1    5    5    0    0 -0.10301466077E+03 -0.42242168285E+02 -0.32364166635E+02  0.11594766232E+03  0.00000000000E+00 0. -1.
        -13    1    5    5    0    0 -0.46232618304E+03 -0.32269536654E+03  0.15567214058E+02  0.56402139788E+03  0.00000000000E+00 0.  1.
          4    1    6    6  503    0 -0.21634367385E+02  0.24452587172E+02 -0.45828072820E+02  0.56268882430E+02  0.00000000000E+00 0. -1.
         -4    1    6    6    0  503 -0.21134830554E+03  0.40124176957E+03 -0.21087389780E+03  0.50013084756E+03  0.00000000000E+00 0.  1.
<mgrwt>
<rscale>  0 0.20927531E+04</rscale>
<asrwt>0</asrwt>
<pdfrwt beam="1">  1        2 0.16256175E+00 0.20927531E+04</pdfrwt>
<pdfrwt beam="2">  1       -1 0.15941564E+00 0.20927531E+04</pdfrwt>
<totfact> 0.71983767E+00</totfact>
</mgrwt>
</event>
<event>
12    7  0.1544987E-007  0.2391599E+04  0.7818608E-02  0.8442655E-01
          2   -1    0    0  501    0  0.00000000000E+00  0.00000000000E+00  0.26246949367E+04  0.26246949367E+04  0.00000000000E+00 0. -1.
         -1   -1    0    0    0  501 -0.00000000000E+00 -0.00000000000E+00 -0.54480106504E+03  0.54480106504E+03  0.00000000000E+00 0.  1.
         24    2    1    2    0    0 -0.36116781983E+03 -0.69443366265E+03  0.17463060968E+02  0.78696105271E+03  0.79513735175E+02 0.  0.
        254    2    1    2    0    0  0.36116781983E+03  0.69443366265E+03  0.20624308107E+04  0.23825349490E+04  0.90009534413E+03 0.  0.
         23    2    4    4    0    0  0.56137224089E+03  0.55236341216E+03  0.19345567863E+04  0.20905520455E+04  0.87485789784E+02 0.  0.
         23    2    4    4    0    0 -0.20020442105E+03  0.14207025049E+03  0.12787402435E+03  0.29198290353E+03  0.92932682977E+02 0.  0.
          4    1    3    3  502    0 -0.19930298168E+03 -0.36645291496E+03 -0.29621718072E+02  0.41819476751E+03  0.00000000000E+00 0. -1.
         -3    1    3    3    0  502 -0.16186483815E+03 -0.32798074769E+03  0.47084779040E+02  0.36876628520E+03  0.00000000000E+00 0.  1.
         13    1    5    5    0    0  0.25308630316E+03  0.29564006065E+03  0.10276933664E+04  0.10989128162E+04  0.00000000000E+00 0. -1.
        -13    1    5    5    0    0  0.30828593773E+03  0.25672335151E+03  0.90686341992E+03  0.99163922926E+03  0.00000000000E+00 0.  1.
          1    1    6    6  503    0 -0.82027223111E+02  0.98458018489E+02  0.27870472932E+02  0.13114575860E+03  0.00000000000E+00 0. -1.
         -1    1    6    6    0  503 -0.11817719794E+03  0.43612232001E+02  0.10000355142E+03  0.16083714493E+03  0.00000000000E+00 0.  1.
<mgrwt>
<rscale>  0 0.23915991E+04</rscale>
<asrwt>0</asrwt>
<pdfrwt beam="1">  1        2 0.40379921E+00 0.23915991E+04</pdfrwt>
<pdfrwt beam="2">  1       -1 0.83815550E-01 0.23915991E+04</pdfrwt>
<totfact> 0.42517064E+00</totfact>
</mgrwt>
</event>
<event>
12    7  0.1544987E-007  0.2115696E+04  0.7818608E-02  0.8554361E-01
         -1   -1    0    0    0  501 -0.00000000000E+00  0.00000000000E+00  0.42961510057E+03  0.42961510057E+03  0.00000000000E+00 0.  1.
          2   -1    0    0  501    0  0.00000000000E+00 -0.00000000000E+00 -0.26047546563E+04  0.26047546563E+04  0.00000000000E+00 0. -1.
         24    2    1    2    0    0  0.53851108796E+03 -0.66018125602E+03 -0.11383367730E+04  0.14240549016E+04  0.79298621717E+02 0.  0.
        254    2    1    2    0    0 -0.53851108796E+03  0.66018125602E+03 -0.10368027828E+04  0.16103148553E+04  0.89012383419E+03 0.  0.
         23    2    4    4    0    0 -0.44710312767E+03  0.68316952432E+03 -0.11663556614E+04  0.14265604225E+04  0.89818174438E+02 0.  0.
         23    2    4    4    0    0 -0.91407960289E+02 -0.22988268293E+02  0.12955287861E+03  0.18375443280E+03  0.89988152195E+02 0.  0.
          4    1    3    3  502    0  0.97643653026E+02 -0.16798710844E+03 -0.23737881776E+03  0.30676156001E+03  0.00000000000E+00 0. -1.
         -3    1    3    3    0  502  0.44086743493E+03 -0.49219414759E+03 -0.90095795519E+03  0.11172933416E+04  0.00000000000E+00 0.  1.
         13    1    5    5    0    0 -0.14777220654E+03  0.23676726753E+03 -0.32751844626E+03  0.43030651475E+03  0.00000000000E+00 0. -1.
        -13    1    5    5    0    0 -0.29933092113E+03  0.44640225679E+03 -0.83883721517E+03  0.99625390778E+03  0.00000000000E+00 0.  1.
          2    1    6    6  503    0 -0.19453652822E+02 -0.44500503583E+02  0.80619011365E+02  0.94117822014E+02  0.00000000000E+00 0. -1.
         -2    1    6    6    0  503 -0.71954307466E+02  0.21512235290E+02  0.48933867245E+02  0.89636610788E+02  0.00000000000E+00 0.  1.
<mgrwt>
<rscale>  0 0.21156956E+04</rscale>
<asrwt>0</asrwt>
<pdfrwt beam="1">  1        2 0.40073149E+00 0.21156956E+04</pdfrwt>
<pdfrwt beam="2">  1       -1 0.66094629E-01 0.21156956E+04</pdfrwt>
<totfact> 0.73513003E+00</totfact>
</mgrwt>
</event>
<event>
12    7  0.1544987E-007  0.1515344E+04  0.7818608E-02  0.8874313E-01
          2   -1    0    0  501    0  0.00000000000E+00  0.00000000000E+00  0.23947850462E+04  0.23947850462E+04  0.00000000000E+00 0. -1.
         -1   -1    0    0    0  501 -0.00000000000E+00 -0.00000000000E+00 -0.23971527974E+03  0.23971527974E+03  0.00000000000E+00 0.  1.
         24    2    1    2    0    0  0.45390175901E+03  0.15773438251E+03  0.61605149062E+03  0.78530843517E+03  0.79265105811E+02 0.  0.
        254    2    1    2    0    0 -0.45390175901E+03 -0.15773438251E+03  0.15390182758E+04  0.18491918907E+04  0.90555312003E+03 0.  0.
         23    2    4    4    0    0 -0.33386837438E+03 -0.42824222574E+03  0.43185748133E+03  0.69940938625E+03  0.88391798702E+02 0.  0.
         23    2    4    4    0    0 -0.12003338463E+03  0.27050784323E+03  0.11071607945E+04  0.11497825045E+04  0.92802349630E+02 0.  0.
          4    1    3    3  502    0  0.14507615770E+03  0.74560385283E+02  0.25774196741E+03  0.30502010483E+03  0.00000000000E+00 0. -1.
         -3    1    3    3    0  502  0.30882560131E+03  0.83173997227E+02  0.35830952321E+03  0.48028833035E+03  0.00000000000E+00 0.  1.
         13    1    5    5    0    0 -0.15392649213E+03 -0.26857154434E+03  0.23922851273E+03  0.39122157496E+03  0.00000000000E+00 0. -1.
        -13    1    5    5    0    0 -0.17994188225E+03 -0.15967068140E+03  0.19262896860E+03  0.30818781129E+03  0.00000000000E+00 0.  1.
          4    1    6    6  503    0 -0.39254151422E+02  0.20905816642E+02  0.10907857505E+03  0.11779676187E+03  0.00000000000E+00 0. -1.
         -4    1    6    6    0  503 -0.80779233211E+02  0.24960202659E+03  0.99808221943E+03  0.10319857426E+04  0.00000000000E+00 0.  1.
<mgrwt>
<rscale>  0 0.15153436E+04</rscale>
<asrwt>0</asrwt>
<pdfrwt beam="1">  1        2 0.36842845E+00 0.15153436E+04</pdfrwt>
<pdfrwt beam="2">  1       -1 0.36879275E-01 0.15153436E+04</pdfrwt>
<totfact> 0.31132421E+01</totfact>
</mgrwt>
</event>
<event>
12    7  0.1544987E-007  0.2249857E+04  0.7818608E-02  0.8497958E-01
          2   -1    0    0  501    0  0.00000000000E+00  0.00000000000E+00  0.40696687351E+04  0.40696687351E+04  0.00000000000E+00 0. -1.
         -1   -1    0    0    0  501 -0.00000000000E+00 -0.00000000000E+00 -0.31095026170E+03  0.31095026170E+03  0.00000000000E+00 0.  1.
         24    2    1    2    0    0  0.44997470037E+03 -0.10884185227E+03 -0.17160641009E+02  0.46998804053E+03  0.79186431035E+02 0.  0.
        254    2    1    2    0    0 -0.44997470037E+03  0.10884185227E+03  0.37758791144E+04  0.39106309562E+04  0.90633747014E+03 0.  0.
         23    2    4    4    0    0 -0.37030938684E+03  0.29265273896E+03  0.35835009619E+04  0.36156098207E+04  0.91545420247E+02 0.  0.
         23    2    4    4    0    0 -0.79665313535E+02 -0.18381088670E+03  0.19237815244E+03  0.29502113551E+03  0.99474180640E+02 0.  0.
          2    1    3    3  502    0  0.30554887055E+03 -0.35585848083E+02 -0.16255544779E+02  0.30804335347E+03  0.00000000000E+00 0. -1.
         -1    1    3    3    0  502  0.14442582982E+03 -0.73256004182E+02 -0.90509623006E+00  0.16194468706E+03  0.00000000000E+00 0.  1.
         13    1    5    5    0    0 -0.53200601034E+02  0.72966316832E+02  0.50222914569E+03  0.51028276683E+03  0.00000000000E+00 0.  1.
        -13    1    5    5    0    0 -0.31710878580E+03  0.21968642213E+03  0.30812718163E+04  0.31053270539E+04  0.00000000000E+00 0. -1.
          3    1    6    6  503    0 -0.24456291499E+02 -0.15252002354E+03  0.16465722938E+03  0.22577083727E+03  0.00000000000E+00 0. -1.
         -3    1    6    6    0  503 -0.55209022036E+02 -0.31290863158E+02  0.27720923057E+02  0.69250298241E+02  0.00000000000E+00 0.  1.
<mgrwt>
<rscale>  0 0.22498574E+04</rscale>
<asrwt>0</asrwt>
<pdfrwt beam="1">  1        2 0.62610284E+00 0.22498574E+04</pdfrwt>
<pdfrwt beam="2">  1       -1 0.47838505E-01 0.22498574E+04</pdfrwt>
<totfact> 0.13657684E+00</totfact>
</mgrwt>
</event>
<event>
12    7  0.1544987E-007  0.1994886E+04  0.7818608E-02  0.8609015E-01
         -1   -1    0    0    0  501 -0.00000000000E+00  0.00000000000E+00  0.65390159900E+03  0.65390159900E+03  0.00000000000E+00 0.  1.
          2   -1    0    0  501    0  0.00000000000E+00 -0.00000000000E+00 -0.15214709523E+04  0.15214709523E+04  0.00000000000E+00 0. -1.
         24    2    1    2    0    0  0.49421180337E+03  0.36771245128E+03 -0.88288138504E+03  0.10798031820E+04  0.83890514363E+02 0.  0.
        254    2    1    2    0    0 -0.49421180337E+03 -0.36771245128E+03  0.15312031763E+02  0.10955693693E+04  0.90585872584E+03 0.  0.
         23    2    4    4    0    0 -0.60383956946E+03 -0.57088345414E+03  0.79135761270E+02  0.83973576473E+03  0.91452402937E+02 0.  0.
         23    2    4    4    0    0  0.10962776609E+03  0.20317100286E+03 -0.63823729507E+02  0.25583360455E+03  0.89892498404E+02 0.  0.
          2    1    3    3  502    0  0.45530836881E+03  0.31123927919E+03 -0.75918648633E+03  0.93837077994E+03  0.00000000000E+00 0. -1.
         -1    1    3    3    0  502  0.38903434555E+02  0.56473172087E+02 -0.12369489872E+03  0.14143240207E+03  0.00000000000E+00 0.  1.
         13    1    5    5    0    0 -0.17196935092E+03 -0.21940199462E+03  0.14015676776E+02  0.27911849114E+03  0.00000000000E+00 0. -1.
        -13    1    5    5    0    0 -0.43187021854E+03 -0.35148145951E+03  0.65120084494E+02  0.56061727359E+03  0.00000000000E+00 0.  1.
          2    1    6    6  503    0 -0.73420542892E-01  0.90191869438E+02 -0.26313529583E+02  0.93952011912E+02  0.00000000000E+00 0. -1.
         -2    1    6    6    0  503  0.10970118663E+03  0.11297913342E+03 -0.37510199925E+02  0.16188159264E+03  0.00000000000E+00 0.  1.
<mgrwt>
<rscale>  0 0.19948857E+04</rscale>
<asrwt>0</asrwt>
<pdfrwt beam="1">  1        2 0.23407245E+00 0.19948857E+04</pdfrwt>
<pdfrwt beam="2">  1       -1 0.10060025E+00 0.19948857E+04</pdfrwt>
<totfact> 0.12289281E+01</totfact>
</mgrwt>
</event>
<event>
12    7  0.1544987E-007  0.1516395E+04  0.7818608E-02  0.8873623E-01
         -1   -1    0    0    0  501 -0.00000000000E+00  0.00000000000E+00  0.52229862562E+03  0.52229862562E+03  0.00000000000E+00 0.  1.
          2   -1    0    0  501    0  0.00000000000E+00 -0.00000000000E+00 -0.11006406719E+04  0.11006406719E+04  0.00000000000E+00 0. -1.
         24    2    1    2    0    0 -0.84304463436E+02  0.35242146697E+03 -0.61951161726E+03  0.72204031316E+03  0.78990106782E+02 0.  0.
        254    2    1    2    0    0  0.84304463436E+02 -0.35242146697E+03  0.41169570999E+02  0.90089898434E+03  0.82378147191E+03 0.  0.
         23    2    4    4    0    0 -0.88143231067E+02  0.52640448340E+02  0.33657919106E+03  0.36319984839E+03  0.89935154587E+02 0.  0.
         23    2    4    4    0    0  0.17244769450E+03 -0.40506191531E+03 -0.29540962006E+03  0.53769913595E+03  0.89666909171E+02 0.  0.
          2    1    3    3  502    0 -0.87939428176E+02  0.35368955383E+03 -0.59894742139E+03  0.70111886090E+03  0.00000000000E+00 0. -1.
         -1    1    3    3    0  502  0.36349647401E+01 -0.12680868592E+01 -0.20564195871E+02  0.20921452262E+02  0.00000000000E+00 0.  1.
         13    1    5    5    0    0 -0.51685240010E+02 -0.28978292339E+01  0.24289675389E+03  0.24835175558E+03  0.00000000000E+00 0. -1.
        -13    1    5    5    0    0 -0.36457991057E+02  0.55538277574E+02  0.93682437170E+02  0.11484809281E+03  0.00000000000E+00 0.  1.
          2    1    6    6  503    0  0.17520808092E+03 -0.38926859607E+03 -0.29911186730E+03  0.52124449221E+03  0.00000000000E+00 0. -1.
         -2    1    6    6    0  503 -0.27603864170E+01 -0.15793319243E+02  0.37022472353E+01  0.16454643736E+02  0.00000000000E+00 0.  1.
<mgrwt>
<rscale>  0 0.15163946E+04</rscale>
<asrwt>0</asrwt>
<pdfrwt beam="1">  1        2 0.16932933E+00 0.15163946E+04</pdfrwt>
<pdfrwt beam="2">  1       -1 0.80353635E-01 0.15163946E+04</pdfrwt>
<totfact> 0.37027038E+01</totfact>
</mgrwt>
</event>
<event>
12    7  0.1544987E-007  0.1370519E+04  0.7818608E-02  0.8975439E-01
          2   -1    0    0  501    0  0.00000000000E+00  0.00000000000E+00  0.91025978847E+03  0.91025978847E+03  0.00000000000E+00 0. -1.
         -1   -1    0    0    0  501 -0.00000000000E+00 -0.00000000000E+00 -0.51587536465E+03  0.51587536465E+03  0.00000000000E+00 0.  1.
         24    2    1    2    0    0  0.44710990850E+02  0.19394697056E+03 -0.23044970220E+03  0.31482037950E+03  0.79939389607E+02 0.  0.
        254    2    1    2    0    0 -0.44710990850E+02 -0.19394697056E+03  0.62483412603E+03  0.11113147736E+04  0.89721142487E+03 0.  0.
         23    2    4    4    0    0 -0.21988629991E+03  0.25171388080E+03  0.38354434967E+02  0.34860528983E+03  0.91349453944E+02 0.  0.
         23    2    4    4    0    0  0.17517530906E+03 -0.44566085137E+03  0.58647969106E+03  0.76270948379E+03  0.92018179148E+02 0.  0.
          2    1    3    3  502    0  0.48339966208E+02  0.51612212603E+02 -0.60101920094E+02  0.92805245659E+02  0.00000000000E+00 0. -1.
         -1    1    3    3    0  502 -0.36289753587E+01  0.14233475796E+03 -0.17034778211E+03  0.22201513384E+03  0.00000000000E+00 0.  1.
         13    1    5    5    0    0 -0.56702398973E+02  0.20463366139E+02  0.25001240082E+02  0.65260810666E+02  0.00000000000E+00 0.  1.
        -13    1    5    5    0    0 -0.16318390094E+03  0.23125051466E+03  0.13353194885E+02  0.28334447916E+03  0.00000000000E+00 0. -1.
          4    1    6    6  503    0  0.13928360725E+02 -0.14506394292E+03  0.15631867178E+03  0.21371259653E+03  0.00000000000E+00 0. -1.
         -4    1    6    6    0  503  0.16124694834E+03 -0.30059690845E+03  0.43016101929E+03  0.54899688727E+03  0.00000000000E+00 0.  1.
<mgrwt>
<rscale>  0 0.13705190E+04</rscale>
<asrwt>0</asrwt>
<pdfrwt beam="1">  1        2 0.14003997E+00 0.13705190E+04</pdfrwt>
<pdfrwt beam="2">  1       -1 0.79365441E-01 0.13705190E+04</pdfrwt>
<totfact> 0.50979184E+01</totfact>
</mgrwt>
</event>
<event>
12    7  0.1544987E-007  0.2183860E+04  0.7818608E-02  0.8525176E-01
         -1   -1    0    0    0  501 -0.00000000000E+00  0.00000000000E+00  0.71563878000E+03  0.71563878000E+03  0.00000000000E+00 0.  1.
          2   -1    0    0  501    0  0.00000000000E+00 -0.00000000000E+00 -0.16660798526E+04  0.16660798526E+04  0.00000000000E+00 0. -1.
         24    2    1    2    0    0 -0.37945926059E+03  0.26617101133E+03 -0.12435818022E+04  0.13295753490E+04  0.80240713316E+02 0.  0.
        254    2    1    2    0    0  0.37945926059E+03 -0.26617101133E+03  0.29314072958E+03  0.10521432837E+04  0.89790738069E+03 0.  0.
         23    2    4    4    0    0  0.51328421204E+02 -0.23252059636E+03  0.56002336980E+03  0.61685769854E+03  0.10092973284E+03 0.  0.
         23    2    4    4    0    0  0.32813083939E+03 -0.33650414973E+02 -0.26688264022E+03  0.43528558512E+03  0.97185383559E+02 0.  0.
          4    1    3    3  502    0 -0.33961777961E+03  0.25877354027E+03 -0.11715211532E+04  0.12469024796E+04  0.00000000000E+00 0. -1.
         -3    1    3    3    0  502 -0.39841480986E+02  0.73974710640E+01 -0.72060649019E+02  0.82672869325E+02  0.00000000000E+00 0.  1.
         13    1    5    5    0    0 -0.23888018708E+02 -0.68359794445E+02  0.10727215376E+03  0.12942570806E+03  0.00000000000E+00 0. -1.
        -13    1    5    5    0    0  0.75216439912E+02 -0.16416080192E+03  0.45275121605E+03  0.48743199049E+03  0.00000000000E+00 0.  1.
          1    1    6    6  503    0  0.22877430530E+03  0.18991300040E+02 -0.15733687190E+03  0.27830422832E+03  0.00000000000E+00 0. -1.
         -1    1    6    6    0  503  0.99356534091E+02 -0.52641715014E+02 -0.10954576832E+03  0.15698135680E+03  0.00000000000E+00 0.  1.
<mgrwt>
<rscale>  0 0.21838602E+04</rscale>
<asrwt>0</asrwt>
<pdfrwt beam="1">  1        2 0.25631998E+00 0.21838602E+04</pdfrwt>
<pdfrwt beam="2">  1       -1 0.11009827E+00 0.21838602E+04</pdfrwt>
<totfact> 0.81309378E+00</totfact>
</mgrwt>
</event>
<event>
12    7  0.1544987E-007  0.1504002E+04  0.7818608E-02  0.8881796E-01
          2   -1    0    0  501    0  0.00000000000E+00  0.00000000000E+00  0.25187741600E+04  0.25187741600E+04  0.00000000000E+00 0. -1.
         -1   -1    0    0    0  501 -0.00000000000E+00 -0.00000000000E+00 -0.22451626966E+03  0.22451626966E+03  0.00000000000E+00 0.  1.
         24    2    1    2    0    0  0.34313139918E+03 -0.32221446784E+03  0.55041435993E+03  0.72852721362E+03  0.78959565502E+02 0.  0.
        254    2    1    2    0    0 -0.34313139918E+03  0.32221446784E+03  0.17438435304E+04  0.20147632161E+04  0.89259130498E+03 0.  0.
         23    2    4    4    0    0 -0.27134132956E+03  0.30978119732E+03  0.20029079998E+03  0.46669766065E+03  0.89998858620E+02 0.  0.
         23    2    4    4    0    0 -0.71790069620E+02  0.12433270514E+02  0.15435527305E+04  0.15480655554E+04  0.92970596539E+02 0.  0.
          2    1    3    3  502    0  0.25706222847E+03 -0.26596186478E+03  0.38604536331E+03  0.53464729061E+03  0.00000000000E+00 0. -1.
         -1    1    3    3    0  502  0.86069170713E+02 -0.56252603055E+02  0.16436899662E+03  0.19387992301E+03  0.00000000000E+00 0.  1.
         13    1    5    5    0    0 -0.87310183111E+02  0.15386807543E+03  0.11432228817E+03  0.21063721961E+03  0.00000000000E+00 0. -1.
        -13    1    5    5    0    0 -0.18403114645E+03  0.15591312190E+03  0.85968511807E+02  0.25606044104E+03  0.00000000000E+00 0.  1.
          4    1    6    6  503    0 -0.40526222545E+02  0.33872281144E+02  0.13382760851E+04  0.13393179556E+04  0.00000000000E+00 0.  1.
         -4    1    6    6    0  503 -0.31263847074E+02 -0.21439010629E+02  0.20527664531E+03  0.20874759979E+03  0.00000000000E+00 0. -1.
<mgrwt>
<rscale>  0 0.15040024E+04</rscale>
<asrwt>0</asrwt>
<pdfrwt beam="1">  1        2 0.38750370E+00 0.15040024E+04</pdfrwt>
<pdfrwt beam="2">  1       -1 0.34540966E-01 0.15040024E+04</pdfrwt>
<totfact> 0.29758186E+01</totfact>
</mgrwt>
</event>
<event>
12    7  0.1544987E-007  0.1690239E+04  0.7818608E-02  0.8766951E-01
          2   -1    0    0  501    0  0.00000000000E+00  0.00000000000E+00  0.14883079707E+04  0.14883079707E+04  0.00000000000E+00 0. -1.
         -1   -1    0    0    0  501 -0.00000000000E+00 -0.00000000000E+00 -0.47989169131E+03  0.47989169131E+03  0.00000000000E+00 0.  1.
         24    2    1    2    0    0 -0.42525417407E+03  0.36922983990E+03  0.20524220668E+03  0.60481386387E+03  0.80645268200E+02 0.  0.
        254    2    1    2    0    0  0.42525417407E+03 -0.36922983990E+03  0.80317407274E+03  0.13633857982E+04  0.94686876404E+03 0.  0.
         23    2    4    4    0    0  0.61263981024E+03 -0.29476998052E+03  0.19173048173E+03  0.71302237159E+03  0.97074436633E+02 0.  0.
         23    2    4    4    0    0 -0.18738563617E+03 -0.74459859376E+02  0.61144359101E+03  0.65036342660E+03  0.91932988437E+02 0.  0.
          2    1    3    3  502    0 -0.13280823311E+03  0.11303729511E+03  0.10400338105E+03  0.20305703666E+03  0.00000000000E+00 0. -1.
         -3    1    3    3    0  502 -0.29244594096E+03  0.25619254479E+03  0.10123882563E+03  0.40175682720E+03  0.00000000000E+00 0.  1.
         13    1    5    5    0    0  0.50304839920E+03 -0.22499976954E+03  0.19059026789E+03  0.58310139637E+03  0.00000000000E+00 0. -1.
        -13    1    5    5    0    0  0.10959141104E+03 -0.69770210981E+02  0.11402138439E+01  0.12992097521E+03  0.00000000000E+00 0.  1.
          1    1    6    6  503    0 -0.98938555832E+02 -0.85504784521E+02  0.32316482592E+03  0.34861929195E+03  0.00000000000E+00 0. -1.
         -1    1    6    6    0  503 -0.88447080334E+02  0.11044925145E+02  0.28827876509E+03  0.30174413465E+03  0.00000000000E+00 0.  1.
<mgrwt>
<rscale>  0 0.16902386E+04</rscale>
<asrwt>0</asrwt>
<pdfrwt beam="1">  1        2 0.22897045E+00 0.16902386E+04</pdfrwt>
<pdfrwt beam="2">  1       -1 0.73829492E-01 0.16902386E+04</pdfrwt>
<totfact> 0.25841423E+01</totfact>
</mgrwt>
</event>
<event>
12    7  0.1544987E-007  0.2016061E+04  0.7818608E-02  0.8599148E-01
          2   -1    0    0  501    0  0.00000000000E+00  0.00000000000E+00  0.23753497265E+04  0.23753497265E+04  0.00000000000E+00 0. -1.
         -3   -1    0    0    0  501 -0.00000000000E+00 -0.00000000000E+00 -0.42777924878E+03  0.42777924878E+03  0.00000000000E+00 0.  1.
         24    2    1    2    0    0  0.10103441886E+03 -0.63269354097E+02 -0.32651745093E+03  0.35658207304E+03  0.79537186836E+02 0.  0.
        254    2    1    2    0    0 -0.10103441886E+03  0.63269354097E+02  0.22740879287E+04  0.24465469023E+04  0.89437401166E+03 0.  0.
         23    2    4    4    0    0  0.22931742069E+03  0.19556877269E+03  0.28597079547E+03  0.42459900377E+03  0.87586493574E+02 0.  0.
         23    2    4    4    0    0 -0.33035183955E+03 -0.13229941859E+03  0.19881171332E+04  0.20219478985E+04  0.95016287471E+02 0.  0.
          2    1    3    3  502    0 -0.12821041663E+02 -0.80349477288E+01 -0.20907377909E+02  0.25808098445E+02  0.00000000000E+00 0. -1.
         -1    1    3    3    0  502  0.11385546053E+03 -0.55234406368E+02 -0.30561007302E+03  0.33077397459E+03  0.00000000000E+00 0.  1.
         13    1    5    5    0    0  0.55656831395E+01  0.22920773764E+02  0.15449628641E+01  0.23637377371E+02  0.00000000000E+00 0.  1.
        -13    1    5    5    0    0  0.22375173755E+03  0.17264799892E+03  0.28442583260E+03  0.40096162639E+03  0.00000000000E+00 0. -1.
          3    1    6    6  503    0 -0.30983890416E+03 -0.92791899040E+02  0.17162929029E+04  0.17465027374E+04  0.00000000000E+00 0. -1.
         -3    1    6    6    0  503 -0.20512935388E+02 -0.39507519549E+02  0.27182423032E+03  0.27544516117E+03  0.00000000000E+00 0.  1.
<mgrwt>
<rscale>  0 0.20160608E+04</rscale>
<asrwt>0</asrwt>
<pdfrwt beam="1">  1        2 0.36543841E+00 0.20160608E+04</pdfrwt>
<pdfrwt beam="2">  1       -3 0.65812193E-01 0.20160608E+04</pdfrwt>
<totfact> 0.54538610E+00</totfact>
</mgrwt>
</event>
<event>
12    7  0.1544987E-007  0.1669981E+04  0.7818608E-02  0.8778673E-01
         -1   -1    0    0    0  501 -0.00000000000E+00  0.00000000000E+00  0.24644004935E+03  0.24644004935E+03  0.00000000000E+00 0.  1.
          2   -1    0    0  501    0  0.00000000000E+00 -0.00000000000E+00 -0.28291210506E+04  0.28291210506E+04  0.00000000000E+00 0. -1.
         24    2    1    2    0    0  0.13799132642E+03  0.10861432739E+03 -0.19321417914E+04  0.19419838492E+04  0.85385537351E+02 0.  0.
        254    2    1    2    0    0 -0.13799132642E+03 -0.10861432739E+03 -0.65053920986E+03  0.11335772508E+04  0.91156867086E+03 0.  0.
         23    2    4    4    0    0 -0.23509251916E+03 -0.29849755458E+03  0.50322988789E+02  0.39515986831E+03  0.96175026226E+02 0.  0.
         23    2    4    4    0    0  0.97101192739E+02  0.18988322719E+03 -0.70086219865E+03  0.73841738249E+03  0.92564181359E+02 0.  0.
          4    1    3    3  502    0  0.95459582243E+02  0.32399898261E+02 -0.12908110588E+04  0.12947414702E+04  0.00000000000E+00 0. -1.
         -3    1    3    3    0  502  0.42531744178E+02  0.76214429126E+02 -0.64133073264E+03  0.64724237894E+03  0.00000000000E+00 0.  1.
         13    1    5    5    0    0 -0.14033639017E+03 -0.24624866232E+03  0.29423337216E+02  0.28495339772E+03  0.00000000000E+00 0. -1.
        -13    1    5    5    0    0 -0.94756128995E+02 -0.52248892255E+02  0.20899651573E+02  0.11020647059E+03  0.00000000000E+00 0.  1.
          3    1    6    6  503    0  0.10756651512E+03  0.18802758337E+03 -0.69006488169E+03  0.72326652641E+03  0.00000000000E+00 0. -1.
         -3    1    6    6    0  503 -0.10465322379E+02  0.18556438253E+01 -0.10797316953E+02  0.15150856078E+02  0.00000000000E+00 0.  1.
<mgrwt>
<rscale>  0 0.16699805E+04</rscale>
<asrwt>0</asrwt>
<pdfrwt beam="1">  1        2 0.43524940E+00 0.16699805E+04</pdfrwt>
<pdfrwt beam="2">  1       -1 0.37913853E-01 0.16699805E+04</pdfrwt>
<totfact> 0.16255844E+01</totfact>
</mgrwt>
</event>
<event>
12    7  0.1544987E-007  0.2070457E+04  0.7818608E-02  0.8574370E-01
          2   -1    0    0  501    0  0.00000000000E+00  0.00000000000E+00  0.15289888168E+04  0.15289888168E+04  0.00000000000E+00 0. -1.
         -1   -1    0    0    0  501 -0.00000000000E+00 -0.00000000000E+00 -0.70091956369E+03  0.70091956369E+03  0.00000000000E+00 0.  1.
         24    2    1    2    0    0 -0.19774739766E+03 -0.66747784499E+03  0.88464767387E+03  0.11285344752E+04  0.79736114487E+02 0.  0.
        254    2    1    2    0    0  0.19774739766E+03  0.66747784499E+03 -0.56578420707E+02  0.11013739054E+04  0.85158244162E+03 0.  0.
         23    2    4    4    0    0  0.11270122175E+03  0.85915242610E+03 -0.58284340367E+02  0.87316337132E+03  0.90403274470E+02 0.  0.
         23    2    4    4    0    0  0.85046175906E+02 -0.19167458111E+03  0.17059196606E+01  0.22821053403E+03  0.90028554369E+02 0.  0.
          2    1    3    3  502    0 -0.14670689225E+03 -0.58030735212E+03  0.73337242062E+03  0.94663331998E+03  0.00000000000E+00 0. -1.
         -1    1    3    3    0  502 -0.51040505410E+02 -0.87170492867E+02  0.15127525324E+03  0.18190115520E+03  0.00000000000E+00 0.  1.
         13    1    5    5    0    0  0.53964217209E+02  0.39083520232E+03  0.18478126658E+02  0.39497561099E+03  0.00000000000E+00 0. -1.
        -13    1    5    5    0    0  0.58737004545E+02  0.46831722377E+03 -0.76762467026E+02  0.47818776033E+03  0.00000000000E+00 0.  1.
          4    1    6    6  503    0  0.36798122856E+02 -0.27780533962E+02 -0.29219255543E+02  0.54585939649E+02  0.00000000000E+00 0. -1.
         -4    1    6    6    0  503  0.48248053050E+02 -0.16389404715E+03  0.30925175203E+02  0.17362459438E+03  0.00000000000E+00 0.  1.
<mgrwt>
<rscale>  0 0.20704571E+04</rscale>
<asrwt>0</asrwt>
<pdfrwt beam="1">  1        2 0.23522905E+00 0.20704571E+04</pdfrwt>
<pdfrwt beam="2">  1       -1 0.10783378E+00 0.20704571E+04</pdfrwt>
<totfact> 0.10290566E+01</totfact>
</mgrwt>
</event>
<event>
12    7  0.1544987E-007  0.2060253E+04  0.7818608E-02  0.8578957E-01
          2   -1    0    0  501    0  0.00000000000E+00  0.00000000000E+00  0.85193820137E+03  0.85193820137E+03  0.00000000000E+00 0. -1.
         -1   -1    0    0    0  501 -0.00000000000E+00 -0.00000000000E+00 -0.12455836516E+04  0.12455836516E+04  0.00000000000E+00 0.  1.
         24    2    1    2    0    0  0.32411325330E+03 -0.33820356624E+03 -0.86025740238E+03  0.98293857764E+03  0.81819287985E+02 0.  0.
        254    2    1    2    0    0 -0.32411325330E+03  0.33820356624E+03  0.46661195219E+03  0.11145832753E+04  0.89729488490E+03 0.  0.
         23    2    4    4    0    0 -0.49257703983E+02  0.22965541583E+03  0.68973866779E+03  0.73437691130E+03  0.91662896457E+02 0.  0.
         23    2    4    4    0    0 -0.27485554931E+03  0.10854815041E+03 -0.22312671560E+03  0.38020636400E+03  0.86273252322E+02 0.  0.
          4    1    3    3  502    0  0.10717118100E+03 -0.16897261972E+03 -0.37927003105E+03  0.42881600332E+03  0.00000000000E+00 0. -1.
         -3    1    3    3    0  502  0.21694207229E+03 -0.16923094652E+03 -0.48098737134E+03  0.55412257433E+03  0.00000000000E+00 0.  1.
         13    1    5    5    0    0 -0.28843098315E+02  0.22990909509E+03  0.63493340232E+03  0.67589240394E+03  0.00000000000E+00 0. -1.
        -13    1    5    5    0    0 -0.20414605668E+02 -0.25367926267E+00  0.54805265467E+02  0.58484507356E+02  0.00000000000E+00 0.  1.
          3    1    6    6  503    0 -0.19947335517E+03  0.10554796428E+03 -0.13030953680E+03  0.26059656093E+03  0.00000000000E+00 0. -1.
         -3    1    6    6    0  503 -0.75382194144E+02  0.30001861300E+01 -0.92817178799E+02  0.11960980307E+03  0.00000000000E+00 0.  1.
<mgrwt>
<rscale>  0 0.20602527E+04</rscale>
<asrwt>0</asrwt>
<pdfrwt beam="1">  1        2 0.13106741E+00 0.20602527E+04</pdfrwt>
<pdfrwt beam="2">  1       -1 0.19162826E+00 0.20602527E+04</pdfrwt>
<totfact> 0.57443205E+00</totfact>
</mgrwt>
</event>
<event>
12    7  0.1544987E-007  0.1810730E+04  0.7818608E-02  0.8700614E-01
          2   -1    0    0  501    0  0.00000000000E+00  0.00000000000E+00  0.17258934045E+04  0.17258934045E+04  0.00000000000E+00 0. -1.
         -1   -1    0    0    0  501 -0.00000000000E+00 -0.00000000000E+00 -0.47493444752E+03  0.47493444752E+03  0.00000000000E+00 0.  1.
         24    2    1    2    0    0  0.35504361933E+03 -0.48235561557E+03  0.86603735248E+03  0.10559172153E+04  0.78851494325E+02 0.  0.
        254    2    1    2    0    0 -0.35504361933E+03  0.48235561557E+03  0.38492160454E+03  0.11449106368E+04  0.89662300498E+03 0.  0.
         23    2    4    4    0    0 -0.55386930097E+03  0.22317301116E+03 -0.35966944166E+02  0.60453438792E+03  0.87125252578E+02 0.  0.
         23    2    4    4    0    0  0.19882568165E+03  0.25918260441E+03  0.42088854871E+03  0.54037624885E+03  0.90288680224E+02 0.  0.
          2    1    3    3  502    0  0.33179921118E+03 -0.43259029268E+03  0.74669967483E+03  0.92454609525E+03  0.00000000000E+00 0. -1.
         -1    1    3    3    0  502  0.23244408151E+02 -0.49765322899E+02  0.11933767765E+03  0.13137112004E+03  0.00000000000E+00 0.  1.
         13    1    5    5    0    0 -0.46490672553E+02  0.23355019811E+02 -0.28185236336E+02  0.59171337083E+02  0.00000000000E+00 0. -1.
        -13    1    5    5    0    0 -0.50737862842E+03  0.19981799135E+03 -0.77817078303E+01  0.54536305084E+03  0.00000000000E+00 0.  1.
          3    1    6    6  503    0  0.12717426782E+03  0.10604278429E+03  0.16564815666E+03  0.23421716056E+03  0.00000000000E+00 0. -1.
         -3    1    6    6    0  503  0.71651413824E+02  0.15313982012E+03  0.25524039205E+03  0.30615908829E+03  0.00000000000E+00 0.  1.
<mgrwt>
<rscale>  0 0.18107305E+04</rscale>
<asrwt>0</asrwt>
<pdfrwt beam="1">  1        2 0.26552206E+00 0.18107305E+04</pdfrwt>
<pdfrwt beam="2">  1       -1 0.73066839E-01 0.18107305E+04</pdfrwt>
<totfact> 0.19244229E+01</totfact>
</mgrwt>
</event>
<event>
12    7  0.1544987E-007  0.2168944E+04  0.7818608E-02  0.8531466E-01
         -3   -1    0    0    0  501 -0.00000000000E+00  0.00000000000E+00  0.23417928409E+04  0.23417928409E+04  0.00000000000E+00 0.  1.
          4   -1    0    0  501    0  0.00000000000E+00 -0.00000000000E+00 -0.50221347852E+03  0.50221347852E+03  0.00000000000E+00 0. -1.
         24    2    1    2    0    0 -0.64467366099E+02 -0.25537381321E+03 -0.35995641664E+03  0.45305176102E+03  0.79469808825E+02 0.  0.
        254    2    1    2    0    0  0.64467366099E+02  0.25537381321E+03  0.21995357790E+04  0.23909545584E+04  0.89963005253E+03 0.  0.
         23    2    4    4    0    0  0.40950542151E+03  0.37444123392E+03  0.12912692090E+04  0.14078042570E+04  0.81459976347E+02 0.  0.
         23    2    4    4    0    0 -0.34503805541E+03 -0.11906742071E+03  0.90826656996E+03  0.98315030144E+03  0.91695380324E+02 0.  0.
          4    1    3    3  502    0 -0.73423188055E+02 -0.24262416189E+03 -0.30849084733E+03  0.39927941515E+03  0.00000000000E+00 0. -1.
         -3    1    3    3    0  502  0.89558219562E+01 -0.12749651325E+02 -0.51465569308E+02  0.53772345867E+02  0.00000000000E+00 0.  1.
         13    1    5    5    0    0  0.11348335756E+03  0.12098535194E+03  0.47850843603E+03  0.50644471680E+03  0.00000000000E+00 0.  1.
        -13    1    5    5    0    0  0.29602206395E+03  0.25345588198E+03  0.81276077302E+03  0.90135954015E+03  0.00000000000E+00 0. -1.
          2    1    6    6  503    0 -0.26230780238E+03 -0.12814086493E+03  0.73763109548E+03  0.79330013076E+03  0.00000000000E+00 0. -1.
         -2    1    6    6    0  503 -0.82730253030E+02  0.90734442211E+01  0.17063547448E+03  0.18985017068E+03  0.00000000000E+00 0.  1.
<mgrwt>
<rscale>  0 0.21689444E+04</rscale>
<asrwt>0</asrwt>
<pdfrwt beam="1">  1        4 0.77263614E-01 0.21689444E+04</pdfrwt>
<pdfrwt beam="2">  1       -3 0.36027581E+00 0.21689444E+04</pdfrwt>
<totfact> 0.55368240E-02</totfact>
</mgrwt>
</event>
<event>
12    7  0.1544987E-007  0.1099133E+04  0.7818608E-02  0.9206037E-01
         -1   -1    0    0    0  501 -0.00000000000E+00  0.00000000000E+00  0.10449909090E+04  0.10449909090E+04  0.00000000000E+00 0.  1.
          2   -1    0    0  501    0  0.00000000000E+00 -0.00000000000E+00 -0.28902019637E+03  0.28902019637E+03  0.00000000000E+00 0. -1.
         24    2    1    2    0    0  0.12355410439E+03  0.11678548397E+03  0.16104130781E+03  0.24302880270E+03  0.64994077777E+02 0.  0.
        254    2    1    2    0    0 -0.12355410439E+03 -0.11678548397E+03  0.59492940479E+03  0.10909823026E+04  0.89855268181E+03 0.  0.
         23    2    4    4    0    0  0.13287990209E+03 -0.10939713049E+02  0.74268043788E+03  0.76108108634E+03  0.99465780374E+02 0.  0.
         23    2    4    4    0    0 -0.25643400648E+03 -0.10584577092E+03 -0.14775103309E+03  0.32990121629E+03  0.10021336154E+03 0.  0.
          2    1    3    3  502    0  0.20933352749E+02  0.31012924566E+02  0.53805351693E+01  0.37801546346E+02  0.00000000000E+00 0. -1.
         -1    1    3    3    0  502  0.10262075164E+03  0.85772559401E+02  0.15566077264E+03  0.20522725636E+03  0.00000000000E+00 0.  1.
         13    1    5    5    0    0  0.14045523239E+03 -0.17191316242E+02  0.73530908394E+03  0.74880081636E+03  0.00000000000E+00 0. -1.
        -13    1    5    5    0    0 -0.75753303022E+01  0.62516031937E+01  0.73713539406E+01  0.12280269972E+02  0.00000000000E+00 0.  1.
          4    1    6    6  503    0 -0.24719516578E+03 -0.71051853733E+02 -0.11703836439E+03  0.28258059849E+03  0.00000000000E+00 0. -1.
         -4    1    6    6    0  503 -0.92388407006E+01 -0.34793917185E+02 -0.30712668704E+02  0.47320617805E+02  0.00000000000E+00 0.  1.
<mgrwt>
<rscale>  0 0.10991333E+04</rscale>
<asrwt>0</asrwt>
<pdfrwt beam="1">  1        2 0.44464646E-01 0.10991333E+04</pdfrwt>
<pdfrwt beam="2">  1       -1 0.16076783E+00 0.10991333E+04</pdfrwt>
<totfact> 0.37563865E+01</totfact>
</mgrwt>
</event>
<event>
12    7  0.1544987E-007  0.1324451E+04  0.7818608E-02  0.9010397E-01
         -1   -1    0    0    0  501 -0.00000000000E+00  0.00000000000E+00  0.40085726255E+03  0.40085726255E+03  0.00000000000E+00 0.  1.
          2   -1    0    0  501    0  0.00000000000E+00 -0.00000000000E+00 -0.10940113851E+04  0.10940113851E+04  0.00000000000E+00 0. -1.
         24    2    1    2    0    0 -0.21621613162E+03  0.23369157743E+03 -0.33696473287E+03  0.46995637869E+03  0.77153079924E+02 0.  0.
        254    2    1    2    0    0  0.21621613162E+03 -0.23369157743E+03 -0.35618938972E+03  0.10249122690E+04  0.90675967535E+03 0.  0.
         23    2    4    4    0    0  0.25689442026E+03  0.24437852085E+03 -0.39254813896E+03  0.53647059423E+03  0.89392686818E+02 0.  0.
         23    2    4    4    0    0 -0.40678288644E+02 -0.47807009828E+03  0.36358749243E+02  0.48844167476E+03  0.83949800224E+02 0.  0.
          4    1    3    3  502    0 -0.20741440978E+03  0.23314346785E+03 -0.30332971971E+03  0.43518448139E+03  0.00000000000E+00 0. -1.
         -3    1    3    3    0  502 -0.88017218380E+01  0.54810957927E+00 -0.33635013166E+02  0.34771897303E+02  0.00000000000E+00 0.  1.
         13    1    5    5    0    0  0.15312251951E+03  0.15085285636E+03 -0.17151622208E+03  0.27499255388E+03  0.00000000000E+00 0. -1.
        -13    1    5    5    0    0  0.10377190075E+03  0.93525664491E+02 -0.22103191689E+03  0.26147804035E+03  0.00000000000E+00 0.  1.
          4    1    6    6  503    0 -0.32850461787E+01 -0.28406736862E+03  0.57147816255E+02  0.28977738756E+03  0.00000000000E+00 0.  1.
         -4    1    6    6    0  503 -0.37393242465E+02 -0.19400272967E+03 -0.20789067012E+02  0.19866428720E+03  0.00000000000E+00 0. -1.
<mgrwt>
<rscale>  0 0.13244507E+04</rscale>
<asrwt>0</asrwt>
<pdfrwt beam="1">  1        2 0.16830945E+00 0.13244507E+04</pdfrwt>
<pdfrwt beam="2">  1       -1 0.61670347E-01 0.13244507E+04</pdfrwt>
<totfact> 0.65396284E+01</totfact>
</mgrwt>
</event>
<event>
12    7  0.1544987E-007  0.1415886E+04  0.7818608E-02  0.8942399E-01
          2   -1    0    0  501    0  0.00000000000E+00  0.00000000000E+00  0.39123418759E+04  0.39123418759E+04  0.00000000000E+00 0. -1.
         -1   -1    0    0    0  501 -0.00000000000E+00 -0.00000000000E+00 -0.12810315456E+03  0.12810315456E+03  0.00000000000E+00 0.  1.
         24    2    1    2    0    0  0.24085894623E+03 -0.24695498480E+03  0.17867188919E+04  0.18214597714E+04  0.79696322011E+02 0.  0.
        254    2    1    2    0    0 -0.24085894623E+03  0.24695498480E+03  0.19975198294E+04  0.22189852590E+04  0.90266844099E+03 0.  0.
         23    2    4    4    0    0 -0.37862684392E+03  0.31658871783E+03  0.49542795637E+03  0.70625220607E+03  0.98775581196E+02 0.  0.
         23    2    4    4    0    0  0.13776789769E+03 -0.69633733030E+02  0.15020918731E+04  0.15127330530E+04  0.90842963335E+02 0.  0.
          2    1    3    3  502    0  0.17496463687E+03 -0.15158312074E+03  0.13453663664E+04  0.13651376218E+04  0.00000000000E+00 0. -1.
         -1    1    3    3    0  502  0.65894309356E+02 -0.95371864059E+02  0.44135252556E+03  0.45632214967E+03  0.00000000000E+00 0.  1.
         13    1    5    5    0    0 -0.30179501033E+03  0.27183559509E+03  0.45071247327E+03  0.60672609354E+03  0.00000000000E+00 0.  1.
        -13    1    5    5    0    0 -0.76831833594E+02  0.44753122735E+02  0.44715483095E+02  0.99526112535E+02  0.00000000000E+00 0. -1.
          1    1    6    6  503    0  0.19956225156E+01  0.63127491343E+01  0.36372186239E+03  0.36378211404E+03  0.00000000000E+00 0. -1.
         -1    1    6    6    0  503  0.13577227518E+03 -0.75946482164E+02  0.11383700107E+04  0.11489509389E+04  0.00000000000E+00 0.  1.
<mgrwt>
<rscale>  0 0.14158861E+04</rscale>
<asrwt>0</asrwt>
<pdfrwt beam="1">  1        2 0.60189866E+00 0.14158861E+04</pdfrwt>
<pdfrwt beam="2">  1       -1 0.19708181E-01 0.14158861E+04</pdfrwt>
<totfact> 0.95700143E+00</totfact>
</mgrwt>
</event>
<event>
12    7  0.1544987E-007  0.2074970E+04  0.7818608E-02  0.8572350E-01
          2   -1    0    0  501    0  0.00000000000E+00  0.00000000000E+00  0.19822059872E+04  0.19822059872E+04  0.00000000000E+00 0. -1.
         -1   -1    0    0    0  501 -0.00000000000E+00 -0.00000000000E+00 -0.54301890470E+03  0.54301890470E+03  0.00000000000E+00 0.  1.
         24    2    1    2    0    0  0.44080226532E+03 -0.42935894645E+03  0.12860856589E+04  0.14277270288E+04  0.75712644478E+02 0.  0.
        254    2    1    2    0    0 -0.44080226532E+03  0.42935894645E+03  0.15310142354E+03  0.10974978631E+04  0.89577104865E+03 0.  0.
         23    2    4    4    0    0 -0.97243342302E+02  0.62918400408E+03 -0.39825781454E+02  0.64454904564E+03  0.92350423661E+02 0.  0.
         23    2    4    4    0    0 -0.34355892302E+03 -0.19982505763E+03  0.19292720499E+03  0.45294881746E+03  0.99894632316E+02 0.  0.
          4    1    3    3  502    0  0.36721217491E+03 -0.37838463932E+03  0.11459855528E+04  0.12614684316E+04  0.00000000000E+00 0. -1.
         -3    1    3    3    0  502  0.73590090411E+02 -0.50974307129E+02  0.14010010611E+03  0.16625859715E+03  0.00000000000E+00 0.  1.
         13    1    5    5    0    0 -0.75240649811E+02  0.21836728949E+03 -0.31102603869E+02  0.23305106838E+03  0.00000000000E+00 0.  1.
        -13    1    5    5    0    0 -0.22002692491E+02  0.41081671459E+03 -0.87231775846E+01  0.41149797726E+03  0.00000000000E+00 0. -1.
          3    1    6    6  503    0 -0.34513374859E+03 -0.19555241064E+03  0.17345075679E+03  0.43294712697E+03  0.00000000000E+00 0. -1.
         -3    1    6    6    0  503  0.15748255638E+01 -0.42726469880E+01  0.19476448200E+02  0.20001690487E+02  0.00000000000E+00 0.  1.
<mgrwt>
<rscale>  0 0.20749702E+04</rscale>
<asrwt>0</asrwt>
<pdfrwt beam="1">  1        2 0.30495476E+00 0.20749702E+04</pdfrwt>
<pdfrwt beam="2">  1       -1 0.83541371E-01 0.20749702E+04</pdfrwt>
<totfact> 0.10213377E+01</totfact>
</mgrwt>
</event>
<event>
12    7  0.1544987E-007  0.1820154E+04  0.7818608E-02  0.8695655E-01
          2   -1    0    0  501    0  0.00000000000E+00  0.00000000000E+00  0.18108388110E+04  0.18108388110E+04  0.00000000000E+00 0. -1.
         -1   -1    0    0    0  501 -0.00000000000E+00 -0.00000000000E+00 -0.45737910123E+03  0.45737910123E+03  0.00000000000E+00 0.  1.
         24    2    1    2    0    0 -0.52242951882E+03  0.43488443133E+03  0.63613616653E+03  0.93440062296E+03  0.79863828390E+02 0.  0.
        254    2    1    2    0    0  0.52242951882E+03 -0.43488443133E+03  0.71732354323E+03  0.13338172892E+04  0.89580043797E+03 0.  0.
         23    2    4    4    0    0  0.68227560109E+03 -0.36768819998E+03  0.80329184673E+03  0.11198568935E+04  0.90039228243E+02 0.  0.
         23    2    4    4    0    0 -0.15984608227E+03 -0.67196231355E+02 -0.85968303499E+02  0.21396039576E+03  0.91227179171E+02 0.  0.
          2    1    3    3  502    0 -0.52064965134E+03  0.42048880098E+03  0.62808210331E+03  0.91780935912E+03  0.00000000000E+00 0. -1.
         -1    1    3    3    0  502 -0.17798674720E+01  0.14395630358E+02  0.80540632172E+01  0.16591263844E+02  0.00000000000E+00 0.  1.
         13    1    5    5    0    0  0.20991602234E+03 -0.97353731702E+02  0.18582644944E+03  0.29677256413E+03  0.00000000000E+00 0. -1.
        -13    1    5    5    0    0  0.47235957875E+03 -0.27033446828E+03  0.61746539729E+03  0.82308432935E+03  0.00000000000E+00 0.  1.
          3    1    6    6  503    0 -0.59396564439E+02  0.15022552417E+02 -0.61470169132E+01  0.61574465205E+02  0.00000000000E+00 0. -1.
         -3    1    6    6    0  503 -0.10044951783E+03 -0.82218783772E+02 -0.79821286586E+02  0.15238593055E+03  0.00000000000E+00 0.  1.
<mgrwt>
<rscale>  0 0.18201537E+04</rscale>
<asrwt>0</asrwt>
<pdfrwt beam="1">  1        2 0.27859058E+00 0.18201537E+04</pdfrwt>
<pdfrwt beam="2">  1       -1 0.70366016E-01 0.18201537E+04</pdfrwt>
<totfact> 0.18646731E+01</totfact>
</mgrwt>
</event>
<event>
12    7  0.1544987E-007  0.2076955E+04  0.7818608E-02  0.8571464E-01
          2   -1    0    0  501    0  0.00000000000E+00  0.00000000000E+00  0.19782783529E+04  0.19782783529E+04  0.00000000000E+00 0. -1.
         -1   -1    0    0    0  501 -0.00000000000E+00 -0.00000000000E+00 -0.54513818737E+03  0.54513818737E+03  0.00000000000E+00 0.  1.
         24    2    1    2    0    0  0.19903569369E+03 -0.59067085848E+03 -0.10750976898E+03  0.63757281478E+03  0.80208935290E+02 0.  0.
        254    2    1    2    0    0 -0.19903569369E+03  0.59067085848E+03  0.15406499345E+04  0.18858437255E+04  0.89123345195E+03 0.  0.
         23    2    4    4    0    0 -0.14889374977E+03  0.53779012339E+02  0.12563318823E+04  0.12695240803E+04  0.90884877573E+02 0.  0.
         23    2    4    4    0    0 -0.50141943918E+02  0.53689184614E+03  0.28431805221E+03  0.61631964524E+03  0.90807936344E+02 0.  0.
          2    1    3    3  502    0  0.14643978299E+03 -0.37070421763E+03 -0.35219522269E+02  0.40013328000E+03  0.00000000000E+00 0. -1.
         -1    1    3    3    0  502  0.52595910694E+02 -0.21996664085E+03 -0.72290246707E+02  0.23743953478E+03  0.00000000000E+00 0.  1.
         13    1    5    5    0    0 -0.13699730584E+03  0.22218370076E+02  0.11395088970E+04  0.11479296338E+04  0.00000000000E+00 0. -1.
        -13    1    5    5    0    0 -0.11896443926E+02  0.31560642263E+02  0.11682298534E+03  0.12159444651E+03  0.00000000000E+00 0.  1.
          1    1    6    6  503    0 -0.24559256992E+02  0.40563252091E+03  0.17043079221E+03  0.44066716925E+03  0.00000000000E+00 0. -1.
         -1    1    6    6    0  503 -0.25582686926E+02  0.13125932523E+03  0.11388725999E+03  0.17565247598E+03  0.00000000000E+00 0.  1.
<mgrwt>
<rscale>  0 0.20769546E+04</rscale>
<asrwt>0</asrwt>
<pdfrwt beam="1">  1        2 0.30435051E+00 0.20769546E+04</pdfrwt>
<pdfrwt beam="2">  1       -1 0.83867414E-01 0.20769546E+04</pdfrwt>
<totfact> 0.10177172E+01</totfact>
</mgrwt>
</event>
<event>
12    7  0.1544987E-007  0.1581696E+04  0.7818608E-02  0.8831872E-01
         -1   -1    0    0    0  501 -0.00000000000E+00  0.00000000000E+00  0.20409181032E+03  0.20409181032E+03  0.00000000000E+00 0.  1.
          2   -1    0    0  501    0  0.00000000000E+00 -0.00000000000E+00 -0.30645073130E+04  0.30645073130E+04  0.00000000000E+00 0. -1.
         24    2    1    2    0    0 -0.13529181683E+03  0.51768373546E+03 -0.85983372202E+03  0.10159554086E+04  0.80938477526E+02 0.  0.
        254    2    1    2    0    0  0.13529181683E+03 -0.51768373546E+03 -0.20005817807E+04  0.22526437147E+04  0.88644002534E+03 0.  0.
         23    2    4    4    0    0  0.14210751367E+03 -0.18128579229E+03 -0.18610520211E+04  0.18773968272E+04  0.89694690731E+02 0.  0.
         23    2    4    4    0    0 -0.68156968372E+01 -0.33639794317E+03 -0.13952975954E+03  0.37524688748E+03  0.90175622413E+02 0.  0.
          2    1    3    3  502    0 -0.94626520207E+02  0.44175971608E+03 -0.75962980061E+03  0.88382309262E+03  0.00000000000E+00 0. -1.
         -1    1    3    3    0  502 -0.40665296624E+02  0.75924019378E+02 -0.10020392142E+03  0.13213231602E+03  0.00000000000E+00 0.  1.
         13    1    5    5    0    0  0.41177527262E+02 -0.10202309219E+03 -0.11121546008E+04  0.11175831764E+04  0.00000000000E+00 0.  1.
        -13    1    5    5    0    0  0.10092998641E+03 -0.79262700103E+02 -0.74889742032E+03  0.75981365080E+03  0.00000000000E+00 0. -1.
          2    1    6    6  503    0 -0.34455491248E+01 -0.56612515667E+01 -0.23997622004E+02  0.24895932196E+02  0.00000000000E+00 0. -1.
         -2    1    6    6    0  503 -0.33701477124E+01 -0.33073669160E+03 -0.11553213754E+03  0.35035095529E+03  0.00000000000E+00 0.  1.
<mgrwt>
<rscale>  0 0.15816964E+04</rscale>
<asrwt>0</asrwt>
<pdfrwt beam="1">  1        2 0.47146263E+00 0.15816964E+04</pdfrwt>
<pdfrwt beam="2">  1       -1 0.31398742E-01 0.15816964E+04</pdfrwt>
<totfact> 0.16434682E+01</totfact>
</mgrwt>
</event>
<event>
12    7  0.1544987E-007  0.1324501E+04  0.7818608E-02  0.9010358E-01
         -1   -1    0    0    0  501 -0.00000000000E+00  0.00000000000E+00  0.77981063891E+03  0.77981063891E+03  0.00000000000E+00 0.  1.
          2   -1    0    0  501    0  0.00000000000E+00 -0.00000000000E+00 -0.56241279505E+03  0.56241279505E+03  0.00000000000E+00 0. -1.
         24    2    1    2    0    0 -0.87746976668E+02 -0.27290406384E+03 -0.13448637025E+03  0.32679938691E+03  0.80839937714E+02 0.  0.
        254    2    1    2    0    0  0.87746976668E+02  0.27290406384E+03  0.35188421411E+03  0.10154240470E+04  0.90834318141E+03 0.  0.
         23    2    4    4    0    0 -0.34166438886E+03  0.30334132247E+03  0.33787014326E+03  0.57493873805E+03  0.87451736808E+02 0.  0.
         23    2    4    4    0    0  0.42941136552E+03 -0.30437258633E+02  0.14014070846E+02  0.44048530900E+03  0.92251643392E+02 0.  0.
          2    1    3    3  502    0 -0.31709651043E+02 -0.19783280518E+03 -0.11533294450E+03  0.23118176585E+03  0.00000000000E+00 0. -1.
         -1    1    3    3    0  502 -0.56037325625E+02 -0.75071258661E+02 -0.19153425752E+02  0.95617621065E+02  0.00000000000E+00 0.  1.
         13    1    5    5    0    0 -0.34561589912E+03  0.29786148443E+03  0.32426841036E+03  0.55975156596E+03  0.00000000000E+00 0. -1.
        -13    1    5    5    0    0  0.39515102640E+01  0.54798380432E+01  0.13601732899E+02  0.15187172094E+02  0.00000000000E+00 0.  1.
          2    1    6    6  503    0  0.33290432251E+03 -0.60350231460E+00  0.42312685022E+02  0.33558309772E+03  0.00000000000E+00 0. -1.
         -2    1    6    6    0  503  0.96507043018E+02 -0.29833756318E+02 -0.28298614176E+02  0.10490221128E+03  0.00000000000E+00 0.  1.
<mgrwt>
<rscale>  0 0.13245006E+04</rscale>
<asrwt>0</asrwt>
<pdfrwt beam="1">  1        2 0.86525046E-01 0.13245006E+04</pdfrwt>
<pdfrwt beam="2">  1       -1 0.11997087E+00 0.13245006E+04</pdfrwt>
<totfact> 0.37157381E+01</totfact>
</mgrwt>
</event>
<event>
12    7  0.1544987E-007  0.2685706E+04  0.7818608E-02  0.8339658E-01
          2   -1    0    0  501    0  0.00000000000E+00  0.00000000000E+00  0.40162014519E+04  0.40162014519E+04  0.00000000000E+00 0. -1.
         -1   -1    0    0    0  501 -0.00000000000E+00 -0.00000000000E+00 -0.44899505192E+03  0.44899505192E+03  0.00000000000E+00 0.  1.
         24    2    1    2    0    0  0.53090431756E+03 -0.69455038117E+03  0.29442625727E+04  0.30723453091E+04  0.79774525257E+02 0.  0.
        254    2    1    2    0    0 -0.53090431756E+03  0.69455038117E+03  0.62294382729E+03  0.13928511947E+04  0.88753355561E+03 0.  0.
         23    2    4    4    0    0 -0.71981799829E+03  0.51192367950E+03  0.24031033773E+03  0.91961797160E+03  0.88001994158E+02 0.  0.
         23    2    4    4    0    0  0.18891368073E+03  0.18262670167E+03  0.38263348956E+03  0.47323322313E+03  0.92197642143E+02 0.  0.
          2    1    3    3  502    0  0.50744392994E+03 -0.64576112330E+03  0.28105920389E+04  0.29281281358E+04  0.00000000000E+00 0. -1.
         -1    1    3    3    0  502  0.23460387615E+02 -0.48789257872E+02  0.13367053376E+03  0.14421717327E+03  0.00000000000E+00 0.  1.
         13    1    5    5    0    0 -0.27422916300E+03  0.19360530783E+03  0.13586055541E+03  0.36213635495E+03  0.00000000000E+00 0.  1.
        -13    1    5    5    0    0 -0.44558883529E+03  0.31831837167E+03  0.10444978232E+03  0.55748161665E+03  0.00000000000E+00 0. -1.
          1    1    6    6  503    0  0.16433778449E+03  0.10160462796E+03  0.25162632267E+03  0.31724787485E+03  0.00000000000E+00 0. -1.
         -1    1    6    6    0  503  0.24575896238E+02  0.81022073709E+02  0.13100716689E+03  0.15598534829E+03  0.00000000000E+00 0.  1.
<mgrwt>
<rscale>  0 0.26857063E+04</rscale>
<asrwt>0</asrwt>
<pdfrwt beam="1">  1        2 0.61787712E+00 0.26857063E+04</pdfrwt>
<pdfrwt beam="2">  1       -1 0.69076165E-01 0.26857063E+04</pdfrwt>
<totfact> 0.70384336E-01</totfact>
</mgrwt>
</event>
<event>
12    7  0.1544987E-007  0.2148256E+04  0.7818608E-02  0.8540279E-01
          2   -1    0    0  501    0  0.00000000000E+00  0.00000000000E+00  0.15012400399E+04  0.15012400399E+04  0.00000000000E+00 0. -1.
         -3   -1    0    0    0  501 -0.00000000000E+00 -0.00000000000E+00 -0.76853219807E+03  0.76853219807E+03  0.00000000000E+00 0.  1.
         24    2    1    2    0    0 -0.37513367208E+03  0.68743813102E+03 -0.12002607707E+03  0.79636620055E+03  0.80600311940E+02 0.  0.
        254    2    1    2    0    0  0.37513367208E+03 -0.68743813102E+03  0.85273391893E+03  0.14734060374E+04  0.91130332973E+03 0.  0.
         23    2    4    4    0    0  0.22267657443E+03 -0.41578676460E+03  0.10058278929E+04  0.11146762047E+04  0.91377244503E+02 0.  0.
         23    2    4    4    0    0  0.15245709765E+03 -0.27165136643E+03 -0.15309397395E+03  0.35872983275E+03  0.90618411721E+02 0.  0.
          2    1    3    3  502    0 -0.66785888528E+02  0.17164558397E+03 -0.53312890020E+02  0.19174155952E+03  0.00000000000E+00 0. -1.
         -1    1    3    3    0  502 -0.30834778355E+03  0.51579254705E+03 -0.66713187046E+02  0.60462464103E+03  0.00000000000E+00 0.  1.
         13    1    5    5    0    0  0.18640123590E+03 -0.35636863305E+03  0.76883487236E+03  0.86766991668E+03  0.00000000000E+00 0. -1.
        -13    1    5    5    0    0  0.36275338528E+02 -0.59418131543E+02  0.23699302052E+03  0.24700628801E+03  0.00000000000E+00 0.  1.
          1    1    6    6  503    0  0.15325361185E+03 -0.27828212095E+03 -0.14900427244E+03  0.35089867710E+03  0.00000000000E+00 0. -1.
         -1    1    6    6    0  503 -0.79651419810E+00  0.66307545247E+01 -0.40897015058E+01  0.78311556517E+01  0.00000000000E+00 0.  1.
<mgrwt>
<rscale>  0 0.21482563E+04</rscale>
<asrwt>0</asrwt>
<pdfrwt beam="1">  1        2 0.23096000E+00 0.21482563E+04</pdfrwt>
<pdfrwt beam="2">  1       -3 0.11823572E+00 0.21482563E+04</pdfrwt>
<totfact> 0.43324736E+00</totfact>
</mgrwt>
</event>
<event>
12    7  0.1544987E-007  0.1574504E+04  0.7818608E-02  0.8836366E-01
         -1   -1    0    0    0  501 -0.00000000000E+00  0.00000000000E+00  0.81751179361E+03  0.81751179361E+03  0.00000000000E+00 0.  1.
          2   -1    0    0  501    0  0.00000000000E+00 -0.00000000000E+00 -0.75811272242E+03  0.75811272242E+03  0.00000000000E+00 0. -1.
         24    2    1    2    0    0  0.12621710412E+03  0.19727268493E+03 -0.44750388651E+03  0.51108984340E+03  0.78139810531E+02 0.  0.
        254    2    1    2    0    0 -0.12621710412E+03 -0.19727268493E+03  0.50690295770E+03  0.10645346726E+04  0.90633117077E+03 0.  0.
         23    2    4    4    0    0 -0.30879935955E+03 -0.38235638631E+02 -0.15036628270E+03  0.35766142776E+03  0.92155680342E+02 0.  0.
         23    2    4    4    0    0  0.18258225543E+03 -0.15903704630E+03  0.65726924040E+03  0.70687324487E+03  0.95067701363E+02 0.  0.
          4    1    3    3  502    0  0.61018135326E+02  0.14465250430E+03 -0.23451471001E+03  0.28221394199E+03  0.00000000000E+00 0. -1.
         -3    1    3    3    0  502  0.65198968795E+02  0.52620180628E+02 -0.21298917650E+03  0.22887590141E+03  0.00000000000E+00 0.  1.
         13    1    5    5    0    0 -0.98780254872E+02  0.41263651310E+01 -0.93308615943E+02  0.13594507513E+03  0.00000000000E+00 0. -1.
        -13    1    5    5    0    0 -0.21001910468E+03 -0.42362003762E+02 -0.57057666754E+02  0.22171635264E+03  0.00000000000E+00 0.  1.
          4    1    6    6  503    0 -0.92286510686E+01 -0.18079184952E+02  0.32772980020E+02  0.38549878709E+02  0.00000000000E+00 0. -1.
         -4    1    6    6    0  503  0.19181090650E+03 -0.14095786135E+03  0.62449626038E+03  0.66832336616E+03  0.00000000000E+00 0.  1.
<mgrwt>
<rscale>  0 0.15745045E+04</rscale>
<asrwt>0</asrwt>
<pdfrwt beam="1">  1        2 0.11663273E+00 0.15745045E+04</pdfrwt>
<pdfrwt beam="2">  1       -1 0.12577104E+00 0.15745045E+04</pdfrwt>
<totfact> 0.22362788E+01</totfact>
</mgrwt>
</event>
<event>
12    7  0.1544987E-007  0.1193943E+04  0.7818608E-02  0.9118175E-01
          2   -1    0    0  501    0  0.00000000000E+00  0.00000000000E+00  0.13332154082E+04  0.13332154082E+04  0.00000000000E+00 0. -1.
         -1   -1    0    0    0  501 -0.00000000000E+00 -0.00000000000E+00 -0.26730466810E+03  0.26730466810E+03  0.00000000000E+00 0.  1.
         24    2    1    2    0    0  0.75527846863E+02 -0.18673668200E+03  0.43361586708E+02  0.22114132798E+03  0.80300782592E+02 0.  0.
        254    2    1    2    0    0 -0.75527846863E+02  0.18673668200E+03  0.10225491534E+04  0.13793787483E+04  0.90360606248E+03 0.  0.
         23    2    4    4    0    0  0.91263182127E+02  0.54614041368E+02 -0.13736824722E+03  0.19687931161E+03  0.92627026665E+02 0.  0.
         23    2    4    4    0    0 -0.16679102899E+03  0.13212264063E+03  0.11599174006E+04  0.11824994367E+04  0.87297777963E+02 0.  0.
          2    1    3    3  502    0  0.21654681308E+02  0.29128784372E+00  0.92177700942E+01  0.23536723576E+02  0.00000000000E+00 0. -1.
         -1    1    3    3    0  502  0.53873165555E+02 -0.18702796984E+03  0.34143816614E+02  0.19760460441E+03  0.00000000000E+00 0.  1.
         13    1    5    5    0    0  0.10928220016E+03  0.39320843646E+02 -0.10341329118E+03  0.15550896054E+03  0.00000000000E+00 0. -1.
        -13    1    5    5    0    0 -0.18019018033E+02  0.15293197722E+02 -0.33954956043E+02  0.41370351066E+02  0.00000000000E+00 0.  1.
          4    1    6    6  503    0 -0.17335641776E+03  0.11410995302E+03  0.99110934872E+03  0.10126061772E+04  0.00000000000E+00 0. -1.
         -4    1    6    6    0  503  0.65653887706E+01  0.18012687608E+02  0.16880805192E+03  0.16989325954E+03  0.00000000000E+00 0.  1.
<mgrwt>
<rscale>  0 0.11939425E+04</rscale>
<asrwt>0</asrwt>
<pdfrwt beam="1">  1        2 0.20511006E+00 0.11939425E+04</pdfrwt>
<pdfrwt beam="2">  1       -1 0.41123796E-01 0.11939425E+04</pdfrwt>
<totfact> 0.10291234E+02</totfact>
</mgrwt>
</event>
<event>
12    7  0.1544987E-007  0.1152767E+04  0.7818608E-02  0.9155235E-01
          2   -1    0    0  501    0  0.00000000000E+00  0.00000000000E+00  0.39074232224E+03  0.39074232224E+03  0.00000000000E+00 0. -1.
         -1   -1    0    0    0  501 -0.00000000000E+00 -0.00000000000E+00 -0.85022279609E+03  0.85022279609E+03  0.00000000000E+00 0.  1.
         24    2    1    2    0    0 -0.77956137701E+02  0.17113459429E+03 -0.21427982002E+03  0.29623916093E+03  0.80483479231E+02 0.  0.
        254    2    1    2    0    0  0.77956137701E+02 -0.17113459429E+03 -0.24520065384E+03  0.94472595740E+03  0.89275952259E+03 0.  0.
         23    2    4    4    0    0  0.17430317980E+03 -0.56523354483E+02  0.30518654743E+03  0.36693068655E+03  0.89010178705E+02 0.  0.
         23    2    4    4    0    0 -0.96347042095E+02 -0.11461123981E+03 -0.55038720127E+03  0.57779527085E+03  0.92210709163E+02 0.  0.
          2    1    3    3  502    0 -0.45301927022E+02  0.85286774410E+02 -0.51778834866E+02  0.10957712453E+03  0.00000000000E+00 0. -1.
         -1    1    3    3    0  502 -0.32654210679E+02  0.85847819885E+02 -0.16250098515E+03  0.18666203639E+03  0.00000000000E+00 0.  1.
         13    1    5    5    0    0  0.12364257366E+03  0.38721438035E+01  0.16676971371E+03  0.20764059557E+03  0.00000000000E+00 0. -1.
        -13    1    5    5    0    0  0.50660606135E+02 -0.60395498287E+02  0.13841683372E+03  0.15929009098E+03  0.00000000000E+00 0.  1.
          4    1    6    6  503    0 -0.76186066889E+02 -0.10252322893E+03 -0.29676946076E+03  0.32309045498E+03  0.00000000000E+00 0. -1.
         -4    1    6    6    0  503 -0.20160975206E+02 -0.12088010886E+02 -0.25361774050E+03  0.25470481587E+03  0.00000000000E+00 0.  1.
<mgrwt>
<rscale>  0 0.11527672E+04</rscale>
<asrwt>0</asrwt>
<pdfrwt beam="1">  1        2 0.60114204E-01 0.11527672E+04</pdfrwt>
<pdfrwt beam="2">  1       -1 0.13080351E+00 0.11527672E+04</pdfrwt>
<totfact> 0.46197759E+01</totfact>
</mgrwt>
</event>
<event>
12    7  0.1544987E-007  0.2963757E+04  0.7818608E-02  0.8254157E-01
         -1   -1    0    0    0  501 -0.00000000000E+00  0.00000000000E+00  0.18966947668E+04  0.18966947668E+04  0.00000000000E+00 0.  1.
          2   -1    0    0  501    0  0.00000000000E+00 -0.00000000000E+00 -0.11577847212E+04  0.11577847212E+04  0.00000000000E+00 0. -1.
         24    2    1    2    0    0  0.13045731022E+04 -0.92391867783E+02  0.30924141418E+02  0.13105895024E+04  0.79001931077E+02 0.  0.
        254    2    1    2    0    0 -0.13045731022E+04  0.92391867783E+02  0.70798590420E+03  0.17438899856E+04  0.91074749799E+03 0.  0.
         23    2    4    4    0    0 -0.97200054223E+03 -0.28664466741E+03  0.69309750437E+03  0.12309603739E+04  0.89045337539E+02 0.  0.
         23    2    4    4    0    0 -0.33257255996E+03  0.37903653519E+03  0.14888399827E+02  0.51292961167E+03  0.92746533239E+02 0.  0.
          2    1    3    3  502    0  0.51280414207E+03 -0.21598517052E+02 -0.23540317703E+02  0.51379833653E+03  0.00000000000E+00 0. -1.
         -1    1    3    3    0  502  0.79176896012E+03 -0.70793350731E+02  0.54464459121E+02  0.79679116588E+03  0.00000000000E+00 0.  1.
         13    1    5    5    0    0 -0.66711526477E+03 -0.23937734610E+03  0.48259317552E+03  0.85746163959E+03  0.00000000000E+00 0.  1.
        -13    1    5    5    0    0 -0.30488527746E+03 -0.47267321306E+02  0.21050432885E+03  0.37349873433E+03  0.00000000000E+00 0. -1.
          3    1    6    6  503    0 -0.11030283803E+02  0.55442935583E+02  0.20569691282E+01  0.56566928402E+02  0.00000000000E+00 0. -1.
         -3    1    6    6    0  503 -0.32154227615E+03  0.32359359961E+03  0.12831430699E+02  0.45636268327E+03  0.00000000000E+00 0.  1.
<mgrwt>
<rscale>  0 0.29637572E+04</rscale>
<asrwt>0</asrwt>
<pdfrwt beam="1">  1        2 0.17812073E+00 0.29637572E+04</pdfrwt>
<pdfrwt beam="2">  1       -1 0.29179919E+00 0.29637572E+04</pdfrwt>
<totfact> 0.73320001E-01</totfact>
</mgrwt>
</event>
<event>
12    7  0.1544987E-007  0.1622991E+04  0.7818608E-02  0.8806547E-01
          2   -1    0    0  501    0  0.00000000000E+00  0.00000000000E+00  0.65181036076E+03  0.65181036076E+03  0.00000000000E+00 0. -1.
         -1   -1    0    0    0  501 -0.00000000000E+00 -0.00000000000E+00 -0.10103016966E+04  0.10103016966E+04  0.00000000000E+00 0.  1.
         24    2    1    2    0    0  0.37991162994E+03  0.22369919572E+03  0.22394743486E+03  0.50098318964E+03  0.80358733144E+02 0.  0.
        254    2    1    2    0    0 -0.37991162994E+03 -0.22369919572E+03 -0.58243877072E+03  0.11611288677E+04  0.90255811400E+03 0.  0.
         23    2    4    4    0    0 -0.41228301070E+03 -0.39565884447E+03 -0.35251532899E+02  0.57981688320E+03  0.91770067855E+02 0.  0.
         23    2    4    4    0    0  0.32371380759E+02  0.17195964875E+03 -0.54718723782E+03  0.58131198455E+03  0.88835370511E+02 0.  0.
          4    1    3    3  502    0  0.30944033454E+03  0.21027098748E+03  0.16851240693E+03  0.41032138636E+03  0.00000000000E+00 0. -1.
         -3    1    3    3    0  502  0.70471295394E+02  0.13428208237E+02  0.55435027935E+02  0.90661803275E+02  0.00000000000E+00 0.  1.
         13    1    5    5    0    0 -0.33384269586E+03 -0.36466690858E+03 -0.29596437733E+02  0.49528663309E+03  0.00000000000E+00 0.  1.
        -13    1    5    5    0    0 -0.78440314840E+02 -0.30991935892E+02 -0.56550951655E+01  0.84530250111E+02  0.00000000000E+00 0. -1.
          1    1    6    6  503    0 -0.58025938411E+01 -0.49353542006E+01 -0.79015438361E+02  0.79381782014E+02  0.00000000000E+00 0. -1.
         -1    1    6    6    0  503  0.38173974600E+02  0.17689500295E+03 -0.46817179946E+03  0.50193020253E+03  0.00000000000E+00 0.  1.
<mgrwt>
<rscale>  0 0.16229912E+04</rscale>
<asrwt>0</asrwt>
<pdfrwt beam="1">  1        2 0.10027852E+00 0.16229912E+04</pdfrwt>
<pdfrwt beam="2">  1       -1 0.15543103E+00 0.16229912E+04</pdfrwt>
<totfact> 0.15516851E+01</totfact>
</mgrwt>
</event>
<event>
12    7  0.1544987E-007  0.2914362E+04  0.7818608E-02  0.8268617E-01
         -1   -1    0    0    0  501 -0.00000000000E+00  0.00000000000E+00  0.11567930526E+04  0.11567930526E+04  0.00000000000E+00 0.  1.
          2   -1    0    0  501    0  0.00000000000E+00 -0.00000000000E+00 -0.18355714061E+04  0.18355714061E+04  0.00000000000E+00 0. -1.
         24    2    1    2    0    0 -0.62954516238E+03  0.89807159170E+03  0.43797029398E+03  0.11836070867E+04  0.79044683901E+02 0.  0.
        254    2    1    2    0    0  0.62954516238E+03 -0.89807159170E+03 -0.11167486475E+04  0.18087573720E+04  0.90643035788E+03 0.  0.
         23    2    4    4    0    0  0.73442977490E+03 -0.60278835186E+03 -0.11339058389E+04  0.14822007463E+04  0.91846118173E+02 0.  0.
         23    2    4    4    0    0 -0.10488461251E+03 -0.29528323984E+03  0.17157191464E+02  0.32655662564E+03  0.90287800158E+02 0.  0.
          2    1    3    3  502    0 -0.13399540504E+03  0.24445998289E+03  0.12807097323E+03  0.30678596121E+03  0.00000000000E+00 0. -1.
         -1    1    3    3    0  502 -0.49554975734E+03  0.65361160881E+03  0.30989932075E+03  0.87682112553E+03  0.00000000000E+00 0.  1.
         13    1    5    5    0    0  0.68073782802E+03 -0.53574554255E+03 -0.99910572226E+03  0.13223613429E+04  0.00000000000E+00 0. -1.
        -13    1    5    5    0    0  0.53691946874E+02 -0.67042809312E+02 -0.13480011668E+03  0.15983940345E+03  0.00000000000E+00 0.  1.
          2    1    6    6  503    0 -0.10632342190E+03 -0.22222514170E+03 -0.14815164418E+02  0.24679581185E+03  0.00000000000E+00 0. -1.
         -2    1    6    6    0  503  0.14388093862E+01 -0.73058098134E+02  0.31972355882E+02  0.79760813788E+02  0.00000000000E+00 0.  1.
<mgrwt>
<rscale>  0 0.29143619E+04</rscale>
<asrwt>0</asrwt>
<pdfrwt beam="1">  1        2 0.28239560E+00 0.29143619E+04</pdfrwt>
<pdfrwt beam="2">  1       -1 0.17796816E+00 0.29143619E+04</pdfrwt>
<totfact> 0.17410332E+00</totfact>
</mgrwt>
</event>
<event>
12    7  0.1544987E-007  0.2767303E+04  0.7818608E-02  0.8313492E-01
         -1   -1    0    0    0  501 -0.00000000000E+00  0.00000000000E+00  0.22347455130E+04  0.22347455130E+04  0.00000000000E+00 0.  1.
          2   -1    0    0  501    0  0.00000000000E+00 -0.00000000000E+00 -0.85669341671E+03  0.85669341671E+03  0.00000000000E+00 0. -1.
         24    2    1    2    0    0 -0.22329951008E+03 -0.11634287290E+04  0.22697273445E+03  0.12088122101E+04  0.79254390682E+02 0.  0.
        254    2    1    2    0    0  0.22329951008E+03  0.11634287290E+04  0.11510793619E+04  0.18826267196E+04  0.90325555042E+03 0.  0.
         23    2    4    4    0    0  0.41013252480E+03  0.10391765966E+04  0.11927680660E+04  0.16367873038E+04  0.90996327304E+02 0.  0.
         23    2    4    4    0    0 -0.18683301472E+03  0.12425213244E+03 -0.41688704173E+02  0.24583941585E+03  0.91399685602E+02 0.  0.
          4    1    3    3  502    0 -0.12351899352E+03 -0.56456327295E+03  0.14807577498E+03  0.59658617656E+03  0.00000000000E+00 0. -1.
         -3    1    3    3    0  502 -0.99780516567E+02 -0.59886545608E+03  0.78896959476E+02  0.61222603358E+03  0.00000000000E+00 0.  1.
         13    1    5    5    0    0  0.23133457497E+03  0.62736576494E+03  0.65165375565E+03  0.93367880229E+03  0.00000000000E+00 0.  1.
        -13    1    5    5    0    0  0.17879794984E+03  0.41181083166E+03  0.54111431039E+03  0.70310850148E+03  0.00000000000E+00 0. -1.
          4    1    6    6  503    0 -0.39085653300E+01  0.32622836087E+02 -0.23594532778E+02  0.40450318841E+02  0.00000000000E+00 0. -1.
         -4    1    6    6    0  503 -0.18292444939E+03  0.91629296351E+02 -0.18094171394E+02  0.20538909701E+03  0.00000000000E+00 0.  1.
<mgrwt>
<rscale>  0 0.27673032E+04</rscale>
<asrwt>0</asrwt>
<pdfrwt beam="1">  1        2 0.13179899E+00 0.27673032E+04</pdfrwt>
<pdfrwt beam="2">  1       -1 0.34380700E+00 0.27673032E+04</pdfrwt>
<totfact> 0.53332068E-01</totfact>
</mgrwt>
</event>
<event>
12    7  0.1544987E-007  0.1767375E+04  0.7818608E-02  0.8723844E-01
         -1   -1    0    0    0  501 -0.00000000000E+00  0.00000000000E+00  0.24855516067E+03  0.24855516067E+03  0.00000000000E+00 0.  1.
          2   -1    0    0  501    0  0.00000000000E+00 -0.00000000000E+00 -0.31417717346E+04  0.31417717346E+04  0.00000000000E+00 0. -1.
         24    2    1    2    0    0 -0.29559600934E+03 -0.27002595674E+03 -0.12659463421E+03  0.42739535512E+03  0.79684189898E+02 0.  0.
        254    2    1    2    0    0  0.29559600934E+03  0.27002595674E+03 -0.27666219397E+04  0.29629315402E+04  0.98207705205E+03 0.  0.
         23    2    4    4    0    0  0.22319625996E+02  0.15825506378E+03 -0.26101037074E+04  0.26165574892E+04  0.90492541045E+02 0.  0.
         23    2    4    4    0    0  0.27327638334E+03  0.11177089296E+03 -0.15651823231E+03  0.34637405093E+03  0.91127997368E+02 0.  0.
          2    1    3    3  502    0 -0.38875139951E+01 -0.29576934377E+02 -0.47265086042E+01  0.30203438476E+02  0.00000000000E+00 0. -1.
         -1    1    3    3    0  502 -0.29170849534E+03 -0.24044902236E+03 -0.12186812560E+03  0.39719191665E+03  0.00000000000E+00 0.  1.
         13    1    5    5    0    0  0.43406344209E+02  0.28102566230E+02 -0.69650726174E+03  0.69842410511E+03  0.00000000000E+00 0. -1.
        -13    1    5    5    0    0 -0.21086718213E+02  0.13015249755E+03 -0.19135964457E+04  0.19181333841E+04  0.00000000000E+00 0.  1.
          1    1    6    6  503    0  0.18246713854E+03  0.68914112096E+02 -0.52922108447E+02  0.20209938410E+03  0.00000000000E+00 0. -1.
         -1    1    6    6    0  503  0.90809244806E+02  0.42856780863E+02 -0.10359612386E+03  0.14427466682E+03  0.00000000000E+00 0.  1.
<mgrwt>
<rscale>  0 0.17673750E+04</rscale>
<asrwt>0</asrwt>
<pdfrwt beam="1">  1        2 0.48334944E+00 0.17673750E+04</pdfrwt>
<pdfrwt beam="2">  1       -1 0.38239260E-01 0.17673750E+04</pdfrwt>
<totfact> 0.10134516E+01</totfact>
</mgrwt>
</event>
<event>
12    7  0.1544987E-007  0.2295900E+04  0.7818608E-02  0.8479540E-01
          2   -1    0    0  501    0  0.00000000000E+00  0.00000000000E+00  0.25794962027E+04  0.25794962027E+04  0.00000000000E+00 0. -1.
         -3   -1    0    0    0  501 -0.00000000000E+00 -0.00000000000E+00 -0.51087066696E+03  0.51087066696E+03  0.00000000000E+00 0.  1.
         24    2    1    2    0    0 -0.21080796302E+02  0.76830119528E+02 -0.42406113416E+03  0.43867211530E+03  0.79108229662E+02 0.  0.
        254    2    1    2    0    0  0.21080796302E+02 -0.76830119528E+02  0.24926866699E+04  0.26516947544E+04  0.90091673799E+03 0.  0.
         23    2    4    4    0    0  0.13427071279E+01 -0.40758181792E+02  0.25386618135E+04  0.25406508514E+04  0.91869000819E+02 0.  0.
         23    2    4    4    0    0  0.19738089174E+02 -0.36071937736E+02 -0.45975143555E+02  0.11104390298E+03  0.92337737178E+02 0.  0.
          2    1    3    3  502    0 -0.23214482532E+02 -0.69969408788E+01 -0.53437579677E+02  0.58680868285E+02  0.00000000000E+00 0. -1.
         -1    1    3    3    0  502  0.21336862299E+01  0.83827060407E+02 -0.37062355448E+03  0.37999124702E+03  0.00000000000E+00 0.  1.
         13    1    5    5    0    0 -0.43727897095E+02 -0.25306993558E+02  0.10321423051E+04  0.10333781065E+04  0.00000000000E+00 0. -1.
        -13    1    5    5    0    0  0.45070604223E+02 -0.15451188234E+02  0.15065195083E+04  0.15072727449E+04  0.00000000000E+00 0.  1.
          4    1    6    6  503    0  0.14791637046E+02  0.11644417461E+02  0.21293597791E+02  0.28421862913E+02  0.00000000000E+00 0. -1.
         -4    1    6    6    0  503  0.49464521280E+01 -0.47716355198E+02 -0.67268741346E+02  0.82622040064E+02  0.00000000000E+00 0.  1.
<mgrwt>
<rscale>  0 0.22958998E+04</rscale>
<asrwt>0</asrwt>
<pdfrwt beam="1">  1        2 0.39684556E+00 0.22958998E+04</pdfrwt>
<pdfrwt beam="2">  1       -3 0.78595488E-01 0.22958998E+04</pdfrwt>
<totfact> 0.27515939E+00</totfact>
</mgrwt>
</event>
<event>
12    7  0.1544987E-007  0.2051147E+04  0.7818608E-02  0.8583074E-01
         -1   -1    0    0    0  501 -0.00000000000E+00  0.00000000000E+00  0.90295547324E+03  0.90295547324E+03  0.00000000000E+00 0.  1.
          2   -1    0    0  501    0  0.00000000000E+00 -0.00000000000E+00 -0.11648428619E+04  0.11648428619E+04  0.00000000000E+00 0. -1.
         24    2    1    2    0    0 -0.72362652095E+03 -0.13042623197E+03 -0.28800162663E+03  0.79356078455E+03  0.78405599499E+02 0.  0.
        254    2    1    2    0    0  0.72362652095E+03  0.13042623197E+03  0.26114237943E+02  0.12742375506E+04  0.10403619746E+04 0.  0.
         23    2    4    4    0    0  0.28019406209E+03  0.52838845506E+03  0.21539866152E+03  0.64200957087E+03  0.89870094160E+02 0.  0.
         23    2    4    4    0    0  0.44343245885E+03 -0.39796222309E+03 -0.18928442358E+03  0.63222797975E+03  0.94219683679E+02 0.  0.
          2    1    3    3  502    0 -0.15376977106E+01 -0.10835576787E+00  0.36550487028E+01  0.39668168903E+01  0.00000000000E+00 0. -1.
         -1    1    3    3    0  502 -0.72208882324E+03 -0.13031787620E+03 -0.29165667534E+03  0.78959396766E+03  0.00000000000E+00 0.  1.
         13    1    5    5    0    0  0.27305358202E+03  0.45355973561E+03  0.18285810033E+03  0.56009979225E+03  0.00000000000E+00 0. -1.
        -13    1    5    5    0    0  0.71404800703E+01  0.74828719449E+02  0.32540561191E+02  0.81909778614E+02  0.00000000000E+00 0.  1.
          1    1    6    6  503    0  0.43806889494E+03 -0.38871809118E+03 -0.16943430658E+03  0.60968360268E+03  0.00000000000E+00 0. -1.
         -1    1    6    6    0  503  0.53635639087E+01 -0.92441319104E+01 -0.19850116996E+02  0.22544377067E+02  0.00000000000E+00 0.  1.
<mgrwt>
<rscale>  0 0.20511472E+04</rscale>
<asrwt>0</asrwt>
<pdfrwt beam="1">  1        2 0.17920659E+00 0.20511472E+04</pdfrwt>
<pdfrwt beam="2">  1       -1 0.13891623E+00 0.20511472E+04</pdfrwt>
<totfact> 0.89747095E+00</totfact>
</mgrwt>
</event>
<event>
12    7  0.1544987E-007  0.1370723E+04  0.7818608E-02  0.8975287E-01
          2   -1    0    0  501    0  0.00000000000E+00  0.00000000000E+00  0.15566434492E+04  0.15566434492E+04  0.00000000000E+00 0. -1.
         -1   -1    0    0    0  501 -0.00000000000E+00 -0.00000000000E+00 -0.30175224136E+03  0.30175224136E+03  0.00000000000E+00 0.  1.
         24    2    1    2    0    0  0.22927768021E+03  0.63345635855E+02  0.69510203897E+03  0.73867772280E+03  0.76791987628E+02 0.  0.
        254    2    1    2    0    0 -0.22927768021E+03 -0.63345635855E+02  0.55978916886E+03  0.11197179677E+04  0.94011886987E+03 0.  0.
         23    2    4    4    0    0 -0.34616749617E+03  0.40843053037E+02  0.76509588670E+03  0.84580517335E+03  0.92274509126E+02 0.  0.
         23    2    4    4    0    0  0.11688981596E+03 -0.10418868889E+03 -0.20530671784E+03  0.27391279439E+03  0.91426793519E+02 0.  0.
          2    1    3    3  502    0  0.17133282224E+03  0.56773188058E+02  0.41471590346E+03  0.45229129047E+03  0.00000000000E+00 0. -1.
         -1    1    3    3    0  502  0.57944857973E+02  0.65724477971E+01  0.28038613551E+03  0.28638643233E+03  0.00000000000E+00 0.  1.
         13    1    5    5    0    0 -0.17754209532E+03  0.57477595850E+02  0.46719277397E+03  0.50308444390E+03  0.00000000000E+00 0. -1.
        -13    1    5    5    0    0 -0.16862540085E+03 -0.16634542813E+02  0.29790311272E+03  0.34272072945E+03  0.00000000000E+00 0.  1.
          3    1    6    6  503    0  0.75467403537E+02 -0.77753714944E+02 -0.19591701729E+03  0.22388489643E+03  0.00000000000E+00 0. -1.
         -3    1    6    6    0  503  0.41422412422E+02 -0.26434973949E+02 -0.93897005524E+01  0.50027897967E+02  0.00000000000E+00 0.  1.
<mgrwt>
<rscale>  0 0.13707234E+04</rscale>
<asrwt>0</asrwt>
<pdfrwt beam="1">  1        2 0.23948360E+00 0.13707234E+04</pdfrwt>
<pdfrwt beam="2">  1       -1 0.46423423E-01 0.13707234E+04</pdfrwt>
<totfact> 0.60539749E+01</totfact>
</mgrwt>
</event>
<event>
12    7  0.1544987E-007  0.2578256E+04  0.7818608E-02  0.8375625E-01
          2   -1    0    0  501    0  0.00000000000E+00  0.00000000000E+00  0.19417698477E+04  0.19417698477E+04  0.00000000000E+00 0. -1.
         -1   -1    0    0    0  501 -0.00000000000E+00 -0.00000000000E+00 -0.85584351834E+03  0.85584351834E+03  0.00000000000E+00 0.  1.
         24    2    1    2    0    0  0.19749213516E+03  0.30254226168E+03  0.16390323736E+04  0.16802437828E+04  0.79101733286E+02 0.  0.
        254    2    1    2    0    0 -0.19749213516E+03 -0.30254226168E+03 -0.55310604425E+03  0.11173695833E+04  0.90114012557E+03 0.  0.
         23    2    4    4    0    0  0.34045366287E+03 -0.21602881214E+03 -0.17895978167E+03  0.44998588482E+03  0.88789351015E+02 0.  0.
         23    2    4    4    0    0 -0.53794579803E+03 -0.86513449541E+02 -0.37414626258E+03  0.66738369846E+03  0.92440881642E+02 0.  0.
          2    1    3    3  502    0  0.14572433753E+03  0.26728951018E+03  0.14291936368E+04  0.14612575804E+04  0.00000000000E+00 0. -1.
         -1    1    3    3    0  502  0.51767797625E+02  0.35252751501E+02  0.20983873689E+03  0.21898620244E+03  0.00000000000E+00 0.  1.
         13    1    5    5    0    0  0.26703689871E+03 -0.15185690394E+03 -0.95674058994E+02  0.32174951455E+03  0.00000000000E+00 0.  1.
        -13    1    5    5    0    0  0.73416764161E+02 -0.64171908193E+02 -0.83285722672E+02  0.12823637028E+03  0.00000000000E+00 0. -1.
          2    1    6    6  503    0 -0.69348500813E+02  0.19258059048E+02 -0.56112918062E+02  0.91261968951E+02  0.00000000000E+00 0. -1.
         -2    1    6    6    0  503 -0.46859729721E+03 -0.10577150859E+03 -0.31803334452E+03  0.57612172951E+03  0.00000000000E+00 0.  1.
<mgrwt>
<rscale>  0 0.25782561E+04</rscale>
<asrwt>0</asrwt>
<pdfrwt beam="1">  1        2 0.29873382E+00 0.25782561E+04</pdfrwt>
<pdfrwt beam="2">  1       -1 0.13166823E+00 0.25782561E+04</pdfrwt>
<totfact> 0.35639631E+00</totfact>
</mgrwt>
</event>
<event>
12    7  0.1544987E-007  0.2444702E+04  0.7818608E-02  0.8422955E-01
         -1   -1    0    0    0  501 -0.00000000000E+00  0.00000000000E+00  0.13841329128E+04  0.13841329128E+04  0.00000000000E+00 0.  1.
          2   -1    0    0  501    0  0.00000000000E+00 -0.00000000000E+00 -0.10794789447E+04  0.10794789447E+04  0.00000000000E+00 0. -1.
         24    2    1    2    0    0  0.32161808776E+03  0.39571821332E+01 -0.88314408974E+03  0.94311800253E+03  0.77937345299E+02 0.  0.
        254    2    1    2    0    0 -0.32161808776E+03 -0.39571821332E+01  0.11877980578E+04  0.15204938550E+04  0.89307529536E+03 0.  0.
         23    2    4    4    0    0 -0.42952589729E+02  0.25011681475E+03  0.10863732708E+04  0.11192881398E+04  0.90530163551E+02 0.  0.
         23    2    4    4    0    0 -0.27866549803E+03 -0.25407399688E+03  0.10142478702E+03  0.40120571513E+03  0.92037941869E+02 0.  0.
          4    1    3    3  502    0  0.19779024459E+03  0.38052135248E+02 -0.57604283597E+03  0.61024117751E+03  0.00000000000E+00 0. -1.
         -3    1    3    3    0  502  0.12382784317E+03 -0.34094953115E+02 -0.30710125376E+03  0.33287682502E+03  0.00000000000E+00 0.  1.
         13    1    5    5    0    0  0.57512033147E+01 -0.60622254277E+01  0.25420371102E+02  0.26758590838E+02  0.00000000000E+00 0. -1.
        -13    1    5    5    0    0 -0.48703793044E+02  0.25617904018E+03  0.10609528997E+04  0.10925295490E+04  0.00000000000E+00 0.  1.
          2    1    6    6  503    0 -0.28301500218E+03 -0.24327957105E+03  0.88002766036E+02  0.38344090546E+03  0.00000000000E+00 0. -1.
         -2    1    6    6    0  503  0.43495041427E+01 -0.10794425828E+02  0.13422020987E+02  0.17764809670E+02  0.00000000000E+00 0.  1.
<mgrwt>
<rscale>  0 0.24447023E+04</rscale>
<asrwt>0</asrwt>
<pdfrwt beam="1">  1        2 0.16607368E+00 0.24447023E+04</pdfrwt>
<pdfrwt beam="2">  1       -1 0.21294352E+00 0.24447023E+04</pdfrwt>
<totfact> 0.28133161E+00</totfact>
</mgrwt>
</event>
<event>
12    7  0.1544987E-007  0.2010339E+04  0.7818608E-02  0.8601802E-01
          2   -1    0    0  501    0  0.00000000000E+00  0.00000000000E+00  0.18604440132E+04  0.18604440132E+04  0.00000000000E+00 0. -1.
         -1   -1    0    0    0  501 -0.00000000000E+00 -0.00000000000E+00 -0.54307765374E+03  0.54307765374E+03  0.00000000000E+00 0.  1.
         24    2    1    2    0    0  0.20460764261E+03 -0.14000618316E+03  0.14311785894E+04  0.14547130790E+04  0.80324147526E+02 0.  0.
        254    2    1    2    0    0 -0.20460764261E+03  0.14000618316E+03 -0.11381222996E+03  0.94880858792E+03  0.90874556070E+03 0.  0.
         23    2    4    4    0    0 -0.31068599920E+03 -0.18055180447E+03  0.24776902233E+03  0.44583317865E+03  0.90845971652E+02 0.  0.
         23    2    4    4    0    0  0.10607835659E+03  0.32055798764E+03 -0.36158125230E+03  0.50297540927E+03  0.90737088041E+02 0.  0.
          4    1    3    3  502    0  0.20926763472E+03 -0.13393345909E+03  0.13139179293E+04  0.13372028415E+04  0.00000000000E+00 0. -1.
         -3    1    3    3    0  502 -0.46599921121E+01 -0.60727240688E+01  0.11726066017E+03  0.11751023755E+03  0.00000000000E+00 0.  1.
         13    1    5    5    0    0 -0.11728514574E+03 -0.90068548286E+02  0.53795202239E+02  0.15735969175E+03  0.00000000000E+00 0. -1.
        -13    1    5    5    0    0 -0.19340085345E+03 -0.90483256185E+02  0.19397382010E+03  0.28847348691E+03  0.00000000000E+00 0.  1.
          3    1    6    6  503    0 -0.99050373405E+00 -0.24514045476E+01 -0.22257006651E+02  0.22413496536E+02  0.00000000000E+00 0. -1.
         -3    1    6    6    0  503  0.10706886032E+03  0.32300939218E+03 -0.33932424565E+03  0.48056191274E+03  0.00000000000E+00 0.  1.
<mgrwt>
<rscale>  0 0.20103388E+04</rscale>
<asrwt>0</asrwt>
<pdfrwt beam="1">  1        2 0.28622215E+00 0.20103388E+04</pdfrwt>
<pdfrwt beam="2">  1       -1 0.83550409E-01 0.20103388E+04</pdfrwt>
<totfact> 0.11997079E+01</totfact>
</mgrwt>
</event>
<event>
12    7  0.1544987E-007  0.1098025E+04  0.7818608E-02  0.9207119E-01
         -1   -1    0    0    0  501 -0.00000000000E+00  0.00000000000E+00  0.15982461862E+03  0.15982461862E+03  0.00000000000E+00 0.  1.
          2   -1    0    0  501    0  0.00000000000E+00 -0.00000000000E+00 -0.18859093149E+04  0.18859093149E+04  0.00000000000E+00 0. -1.
         24    2    1    2    0    0  0.13545005372E+03  0.29258108644E+02 -0.12167527738E+03  0.20060549924E+03  0.78961631352E+02 0.  0.
        254    2    1    2    0    0 -0.13545005372E+03 -0.29258108644E+02 -0.16044094189E+04  0.18451284342E+04  0.90064787880E+03 0.  0.
         23    2    4    4    0    0 -0.26832331718E+03 -0.41002809081E+03 -0.88681681734E+03  0.10174305279E+04  0.92738199955E+02 0.  0.
         23    2    4    4    0    0  0.13287326347E+03  0.38076998216E+03 -0.71759260152E+03  0.82769790638E+03  0.86623316798E+02 0.  0.
          4    1    3    3  502    0  0.87167002616E+01 -0.50355393164E-01 -0.52613551481E+02  0.53330752841E+02  0.00000000000E+00 0. -1.
         -3    1    3    3    0  502  0.12673335345E+03  0.29308464037E+02 -0.69061725899E+02  0.14727474640E+03  0.00000000000E+00 0.  1.
         13    1    5    5    0    0 -0.26478972302E+03 -0.39197915223E+03 -0.87734677187E+03  0.99674400490E+03  0.00000000000E+00 0.  1.
        -13    1    5    5    0    0 -0.35335941616E+01 -0.18048938572E+02 -0.94700454758E+01  0.20686522970E+02  0.00000000000E+00 0. -1.
          3    1    6    6  503    0  0.11723070522E+02  0.97530048667E+02 -0.24052171429E+03  0.25980807497E+03  0.00000000000E+00 0. -1.
         -3    1    6    6    0  503  0.12115019294E+03  0.28323993349E+03 -0.47707088722E+03  0.56788983141E+03  0.00000000000E+00 0.  1.
<mgrwt>
<rscale>  0 0.10980250E+04</rscale>
<asrwt>0</asrwt>
<pdfrwt beam="1">  1        2 0.29013991E+00 0.10980250E+04</pdfrwt>
<pdfrwt beam="2">  1       -1 0.24588402E-01 0.10980250E+04</pdfrwt>
<totfact> 0.12619790E+02</totfact>
</mgrwt>
</event>
<event>
12    7  0.1544987E-007  0.2150472E+04  0.7818608E-02  0.8539330E-01
          2   -1    0    0  501    0  0.00000000000E+00  0.00000000000E+00  0.21272252564E+04  0.21272252564E+04  0.00000000000E+00 0. -1.
         -1   -1    0    0    0  501 -0.00000000000E+00 -0.00000000000E+00 -0.54349337670E+03  0.54349337670E+03  0.00000000000E+00 0.  1.
         24    2    1    2    0    0  0.27339351525E+03  0.62278502455E+03  0.13828073395E+04  0.15430837486E+04  0.79662512168E+02 0.  0.
        254    2    1    2    0    0 -0.27339351525E+03 -0.62278502455E+03  0.20092454016E+03  0.11276348845E+04  0.87668954652E+03 0.  0.
         23    2    4    4    0    0  0.16172901007E+03 -0.46757459273E+03  0.37335401864E+03  0.62635150917E+03  0.90225923845E+02 0.  0.
         23    2    4    4    0    0 -0.43512252531E+03 -0.15521043182E+03 -0.17242947849E+03  0.50128337536E+03  0.90173206566E+02 0.  0.
          2    1    3    3  502    0  0.26651278683E+03  0.58128249898E+03  0.13284681510E+04  0.14743629259E+04  0.00000000000E+00 0. -1.
         -1    1    3    3    0  502  0.68807284119E+01  0.41502525570E+02  0.54339188535E+02  0.68720822629E+02  0.00000000000E+00 0.  1.
         13    1    5    5    0    0  0.16042439350E+03 -0.45890435938E+03  0.37856692706E+03  0.61615104913E+03  0.00000000000E+00 0.  1.
        -13    1    5    5    0    0  0.13046165668E+01 -0.86702333491E+01 -0.52129084139E+01  0.10200460031E+02  0.00000000000E+00 0. -1.
          3    1    6    6  503    0 -0.12796098529E+03 -0.46156887360E+02 -0.81414743336E+01  0.13627455967E+03  0.00000000000E+00 0. -1.
         -3    1    6    6    0  503 -0.30716154002E+03 -0.10905354446E+03 -0.16428800415E+03  0.36500881570E+03  0.00000000000E+00 0.  1.
<mgrwt>
<rscale>  0 0.21504724E+04</rscale>
<asrwt>0</asrwt>
<pdfrwt beam="1">  1        2 0.32726542E+00 0.21504724E+04</pdfrwt>
<pdfrwt beam="2">  1       -1 0.83614367E-01 0.21504724E+04</pdfrwt>
<totfact> 0.84072173E+00</totfact>
</mgrwt>
</event>
<event>
12    7  0.1544987E-007  0.1079239E+04  0.7818608E-02  0.9225667E-01
         -1   -1    0    0    0  501 -0.00000000000E+00  0.00000000000E+00  0.24648712644E+03  0.24648712644E+03  0.00000000000E+00 0.  1.
          2   -1    0    0  501    0  0.00000000000E+00 -0.00000000000E+00 -0.11813557560E+04  0.11813557560E+04  0.00000000000E+00 0. -1.
         24    2    1    2    0    0 -0.14660803191E+03  0.25091598007E+01 -0.15237421520E+03  0.22622404852E+03  0.80369196626E+02 0.  0.
        254    2    1    2    0    0  0.14660803191E+03 -0.25091598007E+01 -0.78249441440E+03  0.12016188340E+04  0.90005005563E+03 0.  0.
         23    2    4    4    0    0  0.16601201914E+03  0.41648412798E+03 -0.54288040834E+03  0.70992966697E+03  0.90895406457E+02 0.  0.
         23    2    4    4    0    0 -0.19403987224E+02 -0.41899328778E+03 -0.23961400605E+03  0.49168916699E+03  0.91714094382E+02 0.  0.
          2    1    3    3  502    0 -0.91074817909E+01 -0.10536064728E+02 -0.56251852396E+02  0.57950200884E+02  0.00000000000E+00 0. -1.
         -1    1    3    3    0  502 -0.13750055012E+03  0.13045224528E+02 -0.96122362806E+02  0.16827384764E+03  0.00000000000E+00 0.  1.
         13    1    5    5    0    0  0.26191433924E+02  0.11280268709E+02 -0.40475374247E+02  0.49512539761E+02  0.00000000000E+00 0.  1.
        -13    1    5    5    0    0  0.13982058521E+03  0.40520385927E+03 -0.50240503410E+03  0.66041712721E+03  0.00000000000E+00 0. -1.
          3    1    6    6  503    0 -0.29269682542E+02 -0.21442844631E+03 -0.75380396700E+02  0.22916910156E+03  0.00000000000E+00 0. -1.
         -3    1    6    6    0  503  0.98656953178E+01 -0.20456484147E+03 -0.16423360935E+03  0.26252006543E+03  0.00000000000E+00 0.  1.
<mgrwt>
<rscale>  0 0.10792386E+04</rscale>
<asrwt>0</asrwt>
<pdfrwt beam="1">  1        2 0.18174704E+00 0.10792386E+04</pdfrwt>
<pdfrwt beam="2">  1       -1 0.37921096E-01 0.10792386E+04</pdfrwt>
<totfact> 0.14771764E+02</totfact>
</mgrwt>
</event>
<event>
12    7  0.1544987E-007  0.1937717E+04  0.7818608E-02  0.8636307E-01
          2   -1    0    0  501    0  0.00000000000E+00  0.00000000000E+00  0.32932161105E+04  0.32932161105E+04  0.00000000000E+00 0. -1.
         -1   -1    0    0    0  501 -0.00000000000E+00 -0.00000000000E+00 -0.28503657519E+03  0.28503657519E+03  0.00000000000E+00 0.  1.
         24    2    1    2    0    0  0.37704353088E+02  0.58013425397E+03  0.20713871900E+04  0.21528740943E+04  0.79022806288E+02 0.  0.
        254    2    1    2    0    0 -0.37704353088E+02 -0.58013425397E+03  0.93679234530E+03  0.14253785914E+04  0.90340846787E+03 0.  0.
         23    2    4    4    0    0 -0.33476587143E+03 -0.66155658490E+03  0.71890313218E+03  0.10369207017E+04  0.93045819166E+02 0.  0.
         23    2    4    4    0    0  0.29706151834E+03  0.81422330931E+02  0.21788921312E+03  0.38845788973E+03  0.92459078746E+02 0.  0.
          2    1    3    3  502    0  0.18339155069E+02  0.52395839209E+03  0.17857095256E+04  0.18610822742E+04  0.00000000000E+00 0. -1.
         -1    1    3    3    0  502  0.19365198019E+02  0.56175861878E+02  0.28567766439E+03  0.29179182011E+03  0.00000000000E+00 0.  1.
         13    1    5    5    0    0 -0.24596751416E+03 -0.47652957440E+03  0.57502944007E+03  0.78628195340E+03  0.00000000000E+00 0.  1.
        -13    1    5    5    0    0 -0.88798357270E+02 -0.18502701050E+03  0.14387369211E+03  0.25063874830E+03  0.00000000000E+00 0. -1.
          2    1    6    6  503    0  0.11603076131E+03  0.12856817157E+01  0.12238783396E+03  0.16865222337E+03  0.00000000000E+00 0. -1.
         -2    1    6    6    0  503  0.18103075703E+03  0.80136649215E+02  0.95501379163E+02  0.21980566635E+03  0.00000000000E+00 0.  1.
<mgrwt>
<rscale>  0 0.19377173E+04</rscale>
<asrwt>0</asrwt>
<pdfrwt beam="1">  1        2 0.50664861E+00 0.19377173E+04</pdfrwt>
<pdfrwt beam="2">  1       -1 0.43851783E-01 0.19377173E+04</pdfrwt>
<totfact> 0.61771372E+00</totfact>
</mgrwt>
</event>
<event>
12    7  0.1544987E-007  0.2775437E+04  0.7818608E-02  0.8310935E-01
          2   -1    0    0  501    0  0.00000000000E+00  0.00000000000E+00  0.11127167243E+04  0.11127167243E+04  0.00000000000E+00 0. -1.
         -3   -1    0    0    0  501 -0.00000000000E+00 -0.00000000000E+00 -0.17306856975E+04  0.17306856975E+04  0.00000000000E+00 0.  1.
         24    2    1    2    0    0 -0.63395834625E+03 -0.10226165311E+04 -0.57782499654E+03  0.13372676375E+04  0.82190347561E+02 0.  0.
        254    2    1    2    0    0  0.63395834625E+03  0.10226165311E+04 -0.40143976642E+02  0.15061347842E+04  0.90508712000E+03 0.  0.
         23    2    4    4    0    0  0.75894464626E+03  0.94706620961E+03 -0.24192352192E+03  0.12408877558E+04  0.91345774001E+02 0.  0.
         23    2    4    4    0    0 -0.12498630002E+03  0.75550321529E+02  0.20177954528E+03  0.26524702845E+03  0.91167839359E+02 0.  0.
          4    1    3    3  502    0 -0.26524270319E+02 -0.82754900526E+02 -0.39901142943E+02  0.95624325802E+02  0.00000000000E+00 0. -1.
         -3    1    3    3    0  502 -0.60743407593E+03 -0.93986163062E+03 -0.53792385359E+03  0.12416433117E+04  0.00000000000E+00 0.  1.
         13    1    5    5    0    0  0.60287126947E+03  0.69638759465E+03 -0.20105117082E+03  0.94277835297E+03  0.00000000000E+00 0. -1.
        -13    1    5    5    0    0  0.15607337680E+03  0.25067861496E+03 -0.40872351109E+02  0.29810940278E+03  0.00000000000E+00 0.  1.
          1    1    6    6  503    0 -0.10692522715E+03  0.93384693546E+02  0.14436530654E+03  0.20247233618E+03  0.00000000000E+00 0. -1.
         -1    1    6    6    0  503 -0.18061072873E+02 -0.17834372017E+02  0.57414238747E+02  0.62774692269E+02  0.00000000000E+00 0.  1.
<mgrwt>
<rscale>  0 0.27754372E+04</rscale>
<asrwt>0</asrwt>
<pdfrwt beam="1">  1        2 0.17118719E+00 0.27754372E+04</pdfrwt>
<pdfrwt beam="2">  1       -3 0.26625934E+00 0.27754372E+04</pdfrwt>
<totfact> 0.69002661E-01</totfact>
</mgrwt>
</event>
<event>
12    7  0.1544987E-007  0.4668180E+04  0.7818608E-02  0.7881837E-01
          2   -1    0    0  501    0  0.00000000000E+00  0.00000000000E+00  0.38883876413E+04  0.38883876413E+04  0.00000000000E+00 0. -1.
         -1   -1    0    0    0  501 -0.00000000000E+00 -0.00000000000E+00 -0.14010887804E+04  0.14010887804E+04  0.00000000000E+00 0.  1.
         24    2    1    2    0    0 -0.13753739409E+04  0.40273352472E+03 -0.76298826874E+03  0.16255718553E+04  0.80529430255E+02 0.  0.
        254    2    1    2    0    0  0.13753739409E+04 -0.40273352472E+03  0.32502871297E+04  0.36639045664E+04  0.89776526839E+03 0.  0.
         23    2    4    4    0    0  0.75147035377E+03 -0.79311862594E+02  0.76319807223E+03  0.10778231378E+04  0.90737835060E+02 0.  0.
         23    2    4    4    0    0  0.62390358712E+03 -0.32342166213E+03  0.24870890574E+04  0.25860814286E+04  0.91366943015E+02 0.  0.
          2    1    3    3  502    0 -0.23289341130E+03  0.70392873012E+02 -0.96122654034E+02  0.26159904858E+03  0.00000000000E+00 0. -1.
         -1    1    3    3    0  502 -0.11424805296E+04  0.33234065171E+03 -0.66686561470E+03  0.13639728067E+04  0.00000000000E+00 0.  1.
         13    1    5    5    0    0  0.66905244409E+03 -0.53562891742E+02  0.70666732563E+03  0.97461729177E+03  0.00000000000E+00 0.  1.
        -13    1    5    5    0    0  0.82417909687E+02 -0.25748970852E+02  0.56530746600E+02  0.10320584600E+03  0.00000000000E+00 0. -1.
          4    1    6    6  503    0  0.22741359676E+03 -0.82290518447E+02  0.96345913569E+03  0.99334897170E+03  0.00000000000E+00 0. -1.
         -4    1    6    6    0  503  0.39648999036E+03 -0.24113114368E+03  0.15236299217E+04  0.15927324569E+04  0.00000000000E+00 0.  1.
<mgrwt>
<rscale>  0 0.46681801E+04</rscale>
<asrwt>0</asrwt>
<pdfrwt beam="1">  1        2 0.59821348E+00 0.46681801E+04</pdfrwt>
<pdfrwt beam="2">  1       -1 0.21555212E+00 0.46681801E+04</pdfrwt>
<totfact> 0.41818810E-02</totfact>
</mgrwt>
</event>
<event>
12    7  0.1544987E-007  0.2845954E+04  0.7818608E-02  0.8289142E-01
         -1   -1    0    0    0  501 -0.00000000000E+00  0.00000000000E+00  0.18677534514E+04  0.18677534514E+04  0.00000000000E+00 0.  1.
          2   -1    0    0  501    0  0.00000000000E+00 -0.00000000000E+00 -0.10841169606E+04  0.10841169606E+04  0.00000000000E+00 0. -1.
         24    2    1    2    0    0  0.10555135247E+03  0.28596601518E+03 -0.90788817172E+03  0.96127122964E+03  0.82848021961E+02 0.  0.
        254    2    1    2    0    0 -0.10555135247E+03 -0.28596601518E+03  0.16915246625E+04  0.19905991823E+04  0.10041472855E+04 0.  0.
         23    2    4    4    0    0 -0.52449780198E+03  0.62542287274E+00  0.88722110123E+03  0.10346791978E+04  0.91112153006E+02 0.  0.
         23    2    4    4    0    0  0.41894644951E+03 -0.28659143805E+03  0.80430356125E+03  0.95591998453E+03  0.96062574702E+02 0.  0.
          4    1    3    3  502    0  0.87452161182E+02  0.19834530339E+03 -0.73915219237E+03  0.77028222319E+03  0.00000000000E+00 0. -1.
         -3    1    3    3    0  502  0.18099191287E+02  0.87620711786E+02 -0.16873597935E+03  0.19098900645E+03  0.00000000000E+00 0.  1.
         13    1    5    5    0    0 -0.32310350282E+03  0.31173798185E+01  0.45750642634E+03  0.56010509883E+03  0.00000000000E+00 0. -1.
        -13    1    5    5    0    0 -0.20139429915E+03 -0.24919569458E+01  0.42971467489E+03  0.47457409895E+03  0.00000000000E+00 0.  1.
          4    1    6    6  503    0  0.11119587074E+03 -0.91969901033E+02  0.15709309148E+03  0.21331015859E+03  0.00000000000E+00 0.  1.
         -4    1    6    6    0  503  0.30775057877E+03 -0.19462153702E+03  0.64721046977E+03  0.74260982594E+03  0.00000000000E+00 0. -1.
<mgrwt>
<rscale>  0 0.28459538E+04</rscale>
<asrwt>0</asrwt>
<pdfrwt beam="1">  1        2 0.16678722E+00 0.28459538E+04</pdfrwt>
<pdfrwt beam="2">  1       -1 0.28734668E+00 0.28459538E+04</pdfrwt>
<totfact> 0.87813673E-01</totfact>
</mgrwt>
</event>
<event>
12    7  0.1544987E-007  0.1327889E+04  0.7818608E-02  0.9007736E-01
         -1   -1    0    0    0  501 -0.00000000000E+00  0.00000000000E+00  0.22927312768E+03  0.22927312768E+03  0.00000000000E+00 0.  1.
          2   -1    0    0  501    0  0.00000000000E+00 -0.00000000000E+00 -0.19226957563E+04  0.19226957563E+04  0.00000000000E+00 0. -1.
         24    2    1    2    0    0 -0.15180445969E+03 -0.30582016627E+03 -0.44597071902E+03  0.56670713629E+03  0.75475347133E+02 0.  0.
        254    2    1    2    0    0  0.15180445969E+03  0.30582016627E+03 -0.12474519096E+04  0.15852617477E+04  0.91670495461E+03 0.  0.
         23    2    4    4    0    0 -0.42787445114E+02  0.41434849390E+03 -0.12739043171E+04  0.13435681002E+04  0.93955259355E+02 0.  0.
         23    2    4    4    0    0  0.19459190480E+03 -0.10852832763E+03  0.26452407525E+02  0.24169364750E+03  0.89842540409E+02 0.  0.
          2    1    3    3  502    0 -0.63700806890E+02 -0.86506737142E+02 -0.19029229343E+03  0.21852314593E+03  0.00000000000E+00 0. -1.
         -1    1    3    3    0  502 -0.88103652799E+02 -0.21931342913E+03 -0.25567842559E+03  0.34818399036E+03  0.00000000000E+00 0.  1.
         13    1    5    5    0    0 -0.45177580254E+02  0.21366591550E+03 -0.53410186723E+03  0.57702594551E+03  0.00000000000E+00 0.  1.
        -13    1    5    5    0    0  0.23901351400E+01  0.20068257840E+03 -0.73980244989E+03  0.76654215466E+03  0.00000000000E+00 0. -1.
          1    1    6    6  503    0  0.18899942244E+03 -0.11018841977E+03  0.43324506868E+01  0.21881736600E+03  0.00000000000E+00 0. -1.
         -1    1    6    6    0  503  0.55924823642E+01  0.16600921433E+01  0.22119956839E+02  0.22876281504E+02  0.00000000000E+00 0.  1.
<mgrwt>
<rscale>  0 0.13278893E+04</rscale>
<asrwt>0</asrwt>
<pdfrwt beam="1">  1        2 0.29579936E+00 0.13278893E+04</pdfrwt>
<pdfrwt beam="2">  1       -1 0.35272788E-01 0.13278893E+04</pdfrwt>
<totfact> 0.62935244E+01</totfact>
</mgrwt>
</event>
<event>
12    7  0.1544987E-007  0.1133465E+04  0.7818608E-02  0.9173175E-01
          2   -1    0    0  501    0  0.00000000000E+00  0.00000000000E+00  0.56383890507E+03  0.56383890507E+03  0.00000000000E+00 0. -1.
         -1   -1    0    0    0  501 -0.00000000000E+00 -0.00000000000E+00 -0.56964070708E+03  0.56964070708E+03  0.00000000000E+00 0.  1.
         24    2    1    2    0    0  0.75649690134E+02 -0.73547289348E+02  0.15965269976E+03  0.20772061825E+03  0.80788559308E+02 0.  0.
        254    2    1    2    0    0 -0.75649690134E+02  0.73547289348E+02 -0.16545450176E+03  0.92575899390E+03  0.90472230173E+03 0.  0.
         23    2    4    4    0    0  0.13250412622E+03  0.18919196163E+03 -0.46773644757E+03  0.53011887324E+03  0.94327586493E+02 0.  0.
         23    2    4    4    0    0 -0.20815381636E+03 -0.11564467229E+03  0.30228194580E+03  0.39564012066E+03  0.91951230698E+02 0.  0.
          4    1    3    3  502    0  0.36188789229E+02 -0.66861943099E+02  0.14741984018E+03  0.16586969940E+03  0.00000000000E+00 0. -1.
         -3    1    3    3    0  502  0.39460900905E+02 -0.66853462481E+01  0.12232859587E+02  0.41850918848E+02  0.00000000000E+00 0.  1.
         13    1    5    5    0    0  0.13739191558E+03  0.14099667637E+03 -0.40953020097E+03  0.45439144657E+03  0.00000000000E+00 0. -1.
        -13    1    5    5    0    0 -0.48877893623E+01  0.48195285268E+02 -0.58206246598E+02  0.75727426669E+02  0.00000000000E+00 0.  1.
          1    1    6    6  503    0 -0.10219288824E+03 -0.86414717715E+02  0.22313122072E+03  0.26018922250E+03  0.00000000000E+00 0. -1.
         -1    1    6    6    0  503 -0.10596092812E+03 -0.29229954570E+02  0.79150725081E+02  0.13545089816E+03  0.00000000000E+00 0.  1.
<mgrwt>
<rscale>  0 0.11334648E+04</rscale>
<asrwt>0</asrwt>
<pdfrwt beam="1">  1        2 0.86744448E-01 0.11334648E+04</pdfrwt>
<pdfrwt beam="2">  1       -1 0.87637031E-01 0.11334648E+04</pdfrwt>
<totfact> 0.77581343E+01</totfact>
</mgrwt>
</event>
<event>
12    7  0.1544987E-007  0.1810485E+04  0.7818608E-02  0.8700744E-01
         -1   -1    0    0    0  501 -0.00000000000E+00  0.00000000000E+00  0.37838872755E+03  0.37838872755E+03  0.00000000000E+00 0.  1.
          2   -1    0    0  501    0  0.00000000000E+00 -0.00000000000E+00 -0.21656668224E+04  0.21656668224E+04  0.00000000000E+00 0. -1.
         24    2    1    2    0    0 -0.63844928576E+03  0.19184494992E+03 -0.51999799979E+03  0.84891755885E+03  0.76427263733E+02 0.  0.
        254    2    1    2    0    0  0.63844928576E+03 -0.19184494992E+03 -0.12672800951E+04  0.16951379911E+04  0.90723315317E+03 0.  0.
         23    2    4    4    0    0  0.72423338542E+03  0.12106899933E+02 -0.48427423810E+03  0.87665683211E+03  0.96670005808E+02 0.  0.
         23    2    4    4    0    0 -0.85784099656E+02 -0.20395184985E+03 -0.78300585697E+03  0.81848115899E+03  0.88645173357E+02 0.  0.
          2    1    3    3  502    0 -0.22803888521E+03  0.10080002694E+03 -0.16826204083E+03  0.30078978205E+03  0.00000000000E+00 0. -1.
         -1    1    3    3    0  502 -0.41041040055E+03  0.91044922980E+02 -0.35173595896E+03  0.54812777680E+03  0.00000000000E+00 0.  1.
         13    1    5    5    0    0  0.25415207551E+03 -0.28151142491E+02 -0.21028986615E+03  0.33107037336E+03  0.00000000000E+00 0. -1.
        -13    1    5    5    0    0  0.47008130990E+03  0.40258042424E+02 -0.27398437194E+03  0.54558645875E+03  0.00000000000E+00 0.  1.
          4    1    6    6  503    0 -0.83822096963E+02 -0.10839651091E+03 -0.54596067538E+03  0.56289342381E+03  0.00000000000E+00 0. -1.
         -4    1    6    6    0  503 -0.19620026923E+01 -0.95555338940E+02 -0.23704518159E+03  0.25558773517E+03  0.00000000000E+00 0.  1.
<mgrwt>
<rscale>  0 0.18104849E+04</rscale>
<asrwt>0</asrwt>
<pdfrwt beam="1">  1        2 0.33317950E+00 0.18104849E+04</pdfrwt>
<pdfrwt beam="2">  1       -1 0.58213652E-01 0.18104849E+04</pdfrwt>
<totfact> 0.17341194E+01</totfact>
</mgrwt>
</event>
<event>
12    7  0.1544987E-007  0.3745451E+04  0.7818608E-02  0.8057963E-01
         -1   -1    0    0    0  501 -0.00000000000E+00  0.00000000000E+00  0.11889697847E+04  0.11889697847E+04  0.00000000000E+00 0.  1.
          2   -1    0    0  501    0  0.00000000000E+00 -0.00000000000E+00 -0.29496973621E+04  0.29496973621E+04  0.00000000000E+00 0. -1.
         24    2    1    2    0    0 -0.15680853209E+03  0.13774519248E+04 -0.20337185280E+04  0.24625802472E+04  0.79546855219E+02 0.  0.
        254    2    1    2    0    0  0.15680853209E+03 -0.13774519248E+04  0.27299095048E+03  0.16760868996E+04  0.90154340717E+03 0.  0.
         23    2    4    4    0    0  0.16147848440E+03 -0.11426624442E+04  0.56699179505E+03  0.12890563691E+04  0.91836076098E+02 0.  0.
         23    2    4    4    0    0 -0.46699523106E+01 -0.23478948062E+03 -0.29400084457E+03  0.38703053045E+03  0.90599261736E+02 0.  0.
          2    1    3    3  502    0 -0.12063421748E+03  0.12376678984E+04 -0.18453351040E+04  0.22252271990E+04  0.00000000000E+00 0. -1.
         -1    1    3    3    0  502 -0.36174314613E+02  0.13978402636E+03 -0.18838342396E+03  0.23735304819E+03  0.00000000000E+00 0.  1.
         13    1    5    5    0    0  0.36667841995E+02 -0.22288213387E+03  0.71793931610E+02  0.23701338538E+03  0.00000000000E+00 0. -1.
        -13    1    5    5    0    0  0.12481064240E+03 -0.91978031032E+03  0.49519786344E+03  0.10520429837E+04  0.00000000000E+00 0.  1.
          1    1    6    6  503    0 -0.20001148061E+02 -0.39892882406E+01 -0.24296556190E+02  0.31721963797E+02  0.00000000000E+00 0. -1.
         -1    1    6    6    0  503  0.15331195750E+02 -0.23080019238E+03 -0.26970428838E+03  0.35530856665E+03  0.00000000000E+00 0.  1.
<mgrwt>
<rscale>  0 0.37454511E+04</rscale>
<asrwt>0</asrwt>
<pdfrwt beam="1">  1        2 0.45379959E+00 0.37454511E+04</pdfrwt>
<pdfrwt beam="2">  1       -1 0.18291843E+00 0.37454511E+04</pdfrwt>
<totfact> 0.33934185E-01</totfact>
</mgrwt>
</event>
<event>
12    7  0.1544987E-007  0.1815203E+04  0.7818608E-02  0.8698256E-01
         -3   -1    0    0    0  501 -0.00000000000E+00  0.00000000000E+00  0.95562165731E+03  0.95562165731E+03  0.00000000000E+00 0.  1.
          4   -1    0    0  501    0  0.00000000000E+00 -0.00000000000E+00 -0.86199449972E+03  0.86199449972E+03  0.00000000000E+00 0. -1.
         24    2    1    2    0    0 -0.29100985192E+03  0.31330626705E+03  0.57390675983E+03  0.72027509057E+03  0.81115265118E+02 0.  0.
        254    2    1    2    0    0  0.29100985192E+03 -0.31330626705E+03 -0.48027960224E+03  0.10973410665E+04  0.88918016674E+03 0.  0.
         23    2    4    4    0    0 -0.44574564491E+02 -0.23183461104E+03 -0.65318929279E+03  0.70039714737E+03  0.90364446270E+02 0.  0.
         23    2    4    4    0    0  0.33558441641E+03 -0.81471656002E+02  0.17290969055E+03  0.39694391909E+03  0.91717951061E+02 0.  0.
          4    1    3    3  502    0 -0.14487231152E+02  0.74347170352E+01  0.38680627984E+01  0.16736690045E+02  0.00000000000E+00 0. -1.
         -3    1    3    3    0  502 -0.27652262076E+03  0.30587155001E+03  0.57003869704E+03  0.70353840053E+03  0.00000000000E+00 0.  1.
         13    1    5    5    0    0 -0.66761160691E+01 -0.17643403689E+02 -0.98514071072E+01  0.21281692637E+02  0.00000000000E+00 0. -1.
        -13    1    5    5    0    0 -0.37898448422E+02 -0.21419120736E+03 -0.64333788569E+03  0.67911545473E+03  0.00000000000E+00 0.  1.
          4    1    6    6  503    0  0.11180089493E+02  0.14849077429E+02  0.12858188624E+02  0.22601383061E+02  0.00000000000E+00 0. -1.
         -4    1    6    6    0  503  0.32440432691E+03 -0.96320733431E+02  0.16005150193E+03  0.37434253603E+03  0.00000000000E+00 0.  1.
<mgrwt>
<rscale>  0 0.18152031E+04</rscale>
<asrwt>0</asrwt>
<pdfrwt beam="1">  1        4 0.13261454E+00 0.18152031E+04</pdfrwt>
<pdfrwt beam="2">  1       -3 0.14701872E+00 0.18152031E+04</pdfrwt>
<totfact> 0.30120685E-01</totfact>
</mgrwt>
</event>
<event>
12    7  0.1544987E-007  0.1578946E+04  0.7818608E-02  0.8833587E-01
         -1   -1    0    0    0  501 -0.00000000000E+00  0.00000000000E+00  0.65044858848E+03  0.65044858848E+03  0.00000000000E+00 0.  1.
          2   -1    0    0  501    0  0.00000000000E+00 -0.00000000000E+00 -0.95821243293E+03  0.95821243293E+03  0.00000000000E+00 0. -1.
         24    2    1    2    0    0 -0.12751951343E+03  0.45947247789E+03 -0.30973326620E+03  0.57411744179E+03  0.79372265509E+02 0.  0.
        254    2    1    2    0    0  0.12751951343E+03 -0.45947247789E+03  0.19694217442E+01  0.10345435796E+04  0.91809604904E+03 0.  0.
         23    2    4    4    0    0  0.15546651369E+03  0.17519482655E+03 -0.24073717167E+03  0.34805042381E+03  0.91223064859E+02 0.  0.
         23    2    4    4    0    0 -0.27947000262E+02 -0.63466730444E+03  0.24270659341E+03  0.68649315581E+03  0.93716275777E+02 0.  0.
          4    1    3    3  502    0 -0.12118893806E+03  0.46102826752E+03 -0.30355997097E+03  0.56513934400E+03  0.00000000000E+00 0. -1.
         -3    1    3    3    0  502 -0.63305753767E+01 -0.15557896302E+01 -0.61732952229E+01  0.89780977875E+01  0.00000000000E+00 0.  1.
         13    1    5    5    0    0  0.43832630165E+02  0.59181102589E+00 -0.35869418847E+02  0.56641547612E+02  0.00000000000E+00 0.  1.
        -13    1    5    5    0    0  0.11163388353E+03  0.17460301552E+03 -0.20486775282E+03  0.29140887620E+03  0.00000000000E+00 0. -1.
          3    1    6    6  503    0 -0.25763818877E+02 -0.63683391278E+03  0.23696687261E+03  0.67998125382E+03  0.00000000000E+00 0. -1.
         -3    1    6    6    0  503 -0.21831813854E+01  0.21666083442E+01  0.57397208006E+01  0.65119019916E+01  0.00000000000E+00 0.  1.
<mgrwt>
<rscale>  0 0.15789464E+04</rscale>
<asrwt>0</asrwt>
<pdfrwt beam="1">  1        2 0.14741730E+00 0.15789464E+04</pdfrwt>
<pdfrwt beam="2">  1       -1 0.10006901E+00 0.15789464E+04</pdfrwt>
<totfact> 0.27972762E+01</totfact>
</mgrwt>
</event>
<event>
12    7  0.1544987E-007  0.1873144E+04  0.7818608E-02  0.8668341E-01
         -1   -1    0    0    0  501 -0.00000000000E+00  0.00000000000E+00  0.20899960121E+04  0.20899960121E+04  0.00000000000E+00 0.  1.
          2   -1    0    0  501    0  0.00000000000E+00 -0.00000000000E+00 -0.41969794517E+03  0.41969794517E+03  0.00000000000E+00 0. -1.
         24    2    1    2    0    0  0.46221534564E+03  0.45336073956E+03  0.10443895688E+04  0.12311193637E+04  0.75672520822E+02 0.  0.
        254    2    1    2    0    0 -0.46221534564E+03 -0.45336073956E+03  0.62590849813E+03  0.12785745935E+04  0.90764120516E+03 0.  0.
         23    2    4    4    0    0 -0.33475818071E+03 -0.70650544949E+03  0.31449222603E+03  0.84764157062E+03  0.91530772402E+02 0.  0.
         23    2    4    4    0    0 -0.12745716492E+03  0.25314470993E+03  0.31141627210E+03  0.43093302292E+03  0.91627521299E+02 0.  0.
          2    1    3    3  502    0  0.20361855850E+03  0.16480260544E+03  0.47397085075E+03  0.54154296550E+03  0.00000000000E+00 0. -1.
         -1    1    3    3    0  502  0.25859678714E+03  0.28855813412E+03  0.57041871804E+03  0.68957639822E+03  0.00000000000E+00 0.  1.
         13    1    5    5    0    0 -0.21977335799E+03 -0.54516595984E+03  0.21445831908E+03  0.62569850829E+03  0.00000000000E+00 0. -1.
        -13    1    5    5    0    0 -0.11498482273E+03 -0.16133948965E+03  0.10003390696E+03  0.22194306233E+03  0.00000000000E+00 0.  1.
          4    1    6    6  503    0 -0.10362281821E+03  0.20073743481E+03  0.29403064236E+03  0.37079269793E+03  0.00000000000E+00 0. -1.
         -4    1    6    6    0  503 -0.23834346709E+02  0.52407275124E+02  0.17385629734E+02  0.60140324993E+02  0.00000000000E+00 0.  1.
<mgrwt>
<rscale>  0 0.18731439E+04</rscale>
<asrwt>0</asrwt>
<pdfrwt beam="1">  1        2 0.64568916E-01 0.18731439E+04</pdfrwt>
<pdfrwt beam="2">  1       -1 0.32153784E+00 0.18731439E+04</pdfrwt>
<totfact> 0.19350040E+00</totfact>
</mgrwt>
</event>
<event>
12    7  0.1544987E-007  0.1468648E+04  0.7818608E-02  0.8905574E-01
         -1   -1    0    0    0  501 -0.00000000000E+00  0.00000000000E+00  0.40313874976E+03  0.40313874976E+03  0.00000000000E+00 0.  1.
          2   -1    0    0  501    0  0.00000000000E+00 -0.00000000000E+00 -0.13375826555E+04  0.13375826555E+04  0.00000000000E+00 0. -1.
         24    2    1    2    0    0 -0.47162315451E+03 -0.33963081123E+02 -0.12054373755E+03  0.49391609271E+03  0.76422661698E+02 0.  0.
        254    2    1    2    0    0  0.47162315451E+03  0.33963081123E+02 -0.81390016819E+03  0.12468053126E+04  0.81762345422E+03 0.  0.
         23    2    4    4    0    0 -0.17424284324E+03  0.18805102625E+03 -0.19689256589E+03  0.33581029949E+03  0.90984162581E+02 0.  0.
         23    2    4    4    0    0  0.64586599775E+03 -0.15408794513E+03 -0.61700760229E+03  0.91099501307E+03  0.91255414425E+02 0.  0.
          2    1    3    3  502    0 -0.13118687780E+03 -0.19744336329E+02 -0.68258790387E+02  0.14919483298E+03  0.00000000000E+00 0. -1.
         -1    1    3    3    0  502 -0.34043627671E+03 -0.14218744793E+02 -0.52284947162E+02  0.34472125972E+03  0.00000000000E+00 0.  1.
         13    1    5    5    0    0 -0.16502451127E+03  0.18088788828E+03 -0.20679957951E+03  0.32049896027E+03  0.00000000000E+00 0.  1.
        -13    1    5    5    0    0 -0.92183319717E+01  0.71631379695E+01  0.99070136142E+01  0.15311339218E+02  0.00000000000E+00 0. -1.
          3    1    6    6  503    0  0.17700894446E+03 -0.36865367122E+02 -0.22543312418E+03  0.28898324379E+03  0.00000000000E+00 0. -1.
         -3    1    6    6    0  503  0.46885705329E+03 -0.11722257801E+03 -0.39157447812E+03  0.62201176928E+03  0.00000000000E+00 0.  1.
<mgrwt>
<rscale>  0 0.14686475E+04</rscale>
<asrwt>0</asrwt>
<pdfrwt beam="1">  1        2 0.20578195E+00 0.14686475E+04</pdfrwt>
<pdfrwt beam="2">  1       -1 0.62021347E-01 0.14686475E+04</pdfrwt>
<totfact> 0.45755219E+01</totfact>
</mgrwt>
</event>
<event>
12    7  0.1544987E-007  0.2218073E+04  0.7818608E-02  0.8510943E-01
          2   -1    0    0  501    0  0.00000000000E+00  0.00000000000E+00  0.24890447842E+04  0.24890447842E+04  0.00000000000E+00 0. -1.
         -1   -1    0    0    0  501 -0.00000000000E+00 -0.00000000000E+00 -0.49415038089E+03  0.49415038089E+03  0.00000000000E+00 0.  1.
         24    2    1    2    0    0  0.80520136071E+03  0.99367269081E+02  0.23894632543E+03  0.84949246602E+03  0.79492250770E+02 0.  0.
        254    2    1    2    0    0 -0.80520136071E+03 -0.99367269081E+02  0.17559480779E+04  0.21337026991E+04  0.90061671671E+03 0.  0.
         23    2    4    4    0    0 -0.16599175974E+03 -0.42151395778E+03  0.46778537581E+03  0.65722359226E+03  0.88839245248E+02 0.  0.
         23    2    4    4    0    0 -0.63920960097E+03  0.32214668870E+03  0.12881627021E+04  0.14764791069E+04  0.90884557896E+02 0.  0.
          4    1    3    3  502    0  0.19787471898E+03  0.59075759286E+02  0.63584025387E+02  0.21607239072E+03  0.00000000000E+00 0. -1.
         -3    1    3    3    0  502  0.60732664173E+03  0.40291509795E+02  0.17536230004E+03  0.63342007530E+03  0.00000000000E+00 0.  1.
         13    1    5    5    0    0 -0.76786581780E+02 -0.13210638963E+03  0.10890612741E+03  0.18764013939E+03  0.00000000000E+00 0.  1.
        -13    1    5    5    0    0 -0.89205177959E+02 -0.28940756815E+03  0.35887924840E+03  0.46958345287E+03  0.00000000000E+00 0. -1.
          4    1    6    6  503    0 -0.17598730432E+03  0.85277230190E+02  0.27372265125E+03  0.33640426139E+03  0.00000000000E+00 0.  1.
         -4    1    6    6    0  503 -0.46322229665E+03  0.23686945851E+03  0.10144400509E+04  0.11400748455E+04  0.00000000000E+00 0. -1.
<mgrwt>
<rscale>  0 0.22180734E+04</rscale>
<asrwt>0</asrwt>
<pdfrwt beam="1">  1        2 0.38292996E+00 0.22180734E+04</pdfrwt>
<pdfrwt beam="2">  1       -1 0.76023137E-01 0.22180734E+04</pdfrwt>
<totfact> 0.63756735E+00</totfact>
</mgrwt>
</event>
<event>
12    7  0.1794439E-007  0.1546903E+04  0.7818608E-02  0.8853849E-01
          2   -1    0    0  501    0  0.00000000000E+00  0.00000000000E+00  0.10175325503E+04  0.10175325503E+04  0.00000000000E+00 0. -1.
         -1   -1    0    0    0  501 -0.00000000000E+00 -0.00000000000E+00 -0.58791927485E+03  0.58791927485E+03  0.00000000000E+00 0.  1.
         24    2    1    2    0    0  0.25039699448E+03 -0.26640626908E+03 -0.22197439815E+03  0.43330203397E+03  0.69332994785E+02 0.  0.
        254    2    1    2    0    0 -0.25039699448E+03  0.26640626908E+03  0.65158767362E+03  0.11721497912E+04  0.90315983167E+03 0.  0.
         23    2    4    4    0    0 -0.15711139564E+03  0.19746358114E+03  0.86898529846E+03  0.90956361237E+03  0.92166477077E+02 0.  0.
         23    2    4    4    0    0 -0.93285598838E+02  0.68942687936E+02 -0.21739762484E+03  0.26258617882E+03  0.90744018258E+02 0.  0.
          4    1    3    3  502    0  0.11144767156E+03 -0.98608094821E+02 -0.54370266216E+02  0.15843063375E+03  0.00000000000E+00 0. -1.
         -3    1    3    3    0  502  0.13894932291E+03 -0.16779817426E+03 -0.16760413193E+03  0.27487140023E+03  0.00000000000E+00 0.  1.
         13    1    5    5    0    0 -0.30335682677E+02  0.24748144724E+02  0.52827719027E+02  0.65753267663E+02  0.00000000000E+00 0.  1.
        -13    1    5    5    0    0 -0.12677571296E+03  0.17271543642E+03  0.81615757943E+03  0.84381034471E+03  0.00000000000E+00 0. -1.
          3    1    6    6  503    0 -0.10825260320E+03  0.49316468054E+02 -0.15428858822E+03  0.19482224867E+03  0.00000000000E+00 0. -1.
         -3    1    6    6    0  503  0.14967004361E+02  0.19626219882E+02 -0.63109036622E+02  0.67763930153E+02  0.00000000000E+00 0.  1.
<mgrwt>
<rscale>  0 0.15469027E+04</rscale>
<asrwt>0</asrwt>
<pdfrwt beam="1">  1        2 0.15654347E+00 0.15469027E+04</pdfrwt>
<pdfrwt beam="2">  1       -1 0.90449119E-01 0.15469027E+04</pdfrwt>
<totfact> 0.32217655E+01</totfact>
</mgrwt>
</event>
<event>
12    7  0.1544987E-007  0.3290828E+04  0.7818608E-02  0.8165233E-01
         -1   -1    0    0    0  501 -0.00000000000E+00  0.00000000000E+00  0.26616304399E+04  0.26616304399E+04  0.00000000000E+00 0.  1.
          2   -1    0    0  501    0  0.00000000000E+00 -0.00000000000E+00 -0.10171911573E+04  0.10171911573E+04  0.00000000000E+00 0. -1.
         24    2    1    2    0    0  0.11872017404E+04  0.41488378410E+03 -0.19533865219E+03  0.12752497479E+04  0.80797300103E+02 0.  0.
        254    2    1    2    0    0 -0.11872017404E+04 -0.41488378410E+03  0.18397779348E+04  0.24035718492E+04  0.90044336765E+03 0.  0.
         23    2    4    4    0    0 -0.98283750326E+03 -0.21648967674E+03  0.18461752481E+04  0.21044927933E+04  0.87689979487E+02 0.  0.
         23    2    4    4    0    0 -0.20436423718E+03 -0.19839410736E+03 -0.63973132924E+01  0.29907905594E+03  0.91007652482E+02 0.  0.
          2    1    3    3  502    0  0.11502675447E+04  0.39869198175E+03 -0.17446706180E+03  0.12298412403E+04  0.00000000000E+00 0. -1.
         -1    1    3    3    0  502  0.36934195771E+02  0.16191802350E+02 -0.20871590389E+02  0.45408507639E+02  0.00000000000E+00 0.  1.
         13    1    5    5    0    0 -0.22736534982E+03 -0.28831707289E+02  0.35924258942E+03  0.42612381733E+03  0.00000000000E+00 0. -1.
        -13    1    5    5    0    0 -0.75547215343E+03 -0.18765796945E+03  0.14869326587E+04  0.16783689760E+04  0.00000000000E+00 0.  1.
          2    1    6    6  503    0 -0.17159989126E+03 -0.20311207868E+03 -0.48597818377E+01  0.26594107743E+03  0.00000000000E+00 0. -1.
         -2    1    6    6    0  503 -0.32764345921E+02  0.47179713125E+01 -0.15375314547E+01  0.33137978512E+02  0.00000000000E+00 0.  1.
<mgrwt>
<rscale>  0 0.32908278E+04</rscale>
<asrwt>0</asrwt>
<pdfrwt beam="1">  1        2 0.15649095E+00 0.32908278E+04</pdfrwt>
<pdfrwt beam="2">  1       -1 0.40948160E+00 0.32908278E+04</pdfrwt>
<totfact> 0.14393222E-01</totfact>
</mgrwt>
</event>
<event>
12    7  0.1544987E-007  0.1345358E+04  0.7818608E-02  0.8994350E-01
         -1   -1    0    0    0  501 -0.00000000000E+00  0.00000000000E+00  0.23444433052E+03  0.23444433052E+03  0.00000000000E+00 0.  1.
          2   -1    0    0  501    0  0.00000000000E+00 -0.00000000000E+00 -0.19300824653E+04  0.19300824653E+04  0.00000000000E+00 0. -1.
         24    2    1    2    0    0  0.13465722553E+03 -0.32456647815E+03 -0.67460715855E+03  0.76530546269E+03  0.84389962233E+02 0.  0.
        254    2    1    2    0    0 -0.13465722553E+03  0.32456647815E+03 -0.10210309763E+04  0.13992213332E+04  0.88985398664E+03 0.  0.
         23    2    4    4    0    0 -0.18750545204E+03 -0.26537081114E+03 -0.51111359240E+03  0.61231887816E+03  0.90096294387E+02 0.  0.
         23    2    4    4    0    0  0.52848226516E+02  0.58993728929E+03 -0.50991738386E+03  0.78690245500E+03  0.91546681942E+02 0.  0.
          4    1    3    3  502    0  0.83203764197E+02 -0.23241699892E+03 -0.54395302212E+03  0.59734865702E+03  0.00000000000E+00 0. -1.
         -3    1    3    3    0  502  0.51453461330E+02 -0.92149479233E+02 -0.13065413643E+03  0.16795680567E+03  0.00000000000E+00 0.  1.
         13    1    5    5    0    0 -0.17879953352E+03 -0.25966684811E+03 -0.51261219222E+03  0.60180346029E+03  0.00000000000E+00 0.  1.
        -13    1    5    5    0    0 -0.87059185200E+01 -0.57039630305E+01  0.14985998277E+01  0.10515417870E+02  0.00000000000E+00 0. -1.
          3    1    6    6  503    0  0.55273233133E+02  0.43518984323E+03 -0.32613459680E+03  0.54663434322E+03  0.00000000000E+00 0. -1.
         -3    1    6    6    0  503 -0.24250066170E+01  0.15474744606E+03 -0.18378278706E+03  0.24026811178E+03  0.00000000000E+00 0.  1.
<mgrwt>
<rscale>  0 0.13453578E+04</rscale>
<asrwt>0</asrwt>
<pdfrwt beam="1">  1        2 0.29693577E+00 0.13453578E+04</pdfrwt>
<pdfrwt beam="2">  1       -1 0.36068358E-01 0.13453578E+04</pdfrwt>
<totfact> 0.59815987E+01</totfact>
</mgrwt>
</event>
<event>
12    7  0.1544987E-007  0.1804019E+04  0.7818608E-02  0.8704165E-01
          2   -1    0    0  501    0  0.00000000000E+00  0.00000000000E+00  0.34966770046E+04  0.34966770046E+04  0.00000000000E+00 0. -1.
         -1   -1    0    0    0  501 -0.00000000000E+00 -0.00000000000E+00 -0.23268399310E+03  0.23268399310E+03  0.00000000000E+00 0.  1.
         24    2    1    2    0    0  0.45253199335E+03  0.43273968374E+03  0.17444007210E+04  0.18550605002E+04  0.79162774516E+02 0.  0.
        254    2    1    2    0    0 -0.45253199335E+03 -0.43273968374E+03  0.15195922905E+04  0.18743004976E+04  0.90099544222E+03 0.  0.
         23    2    4    4    0    0 -0.26884990881E+03 -0.96660929113E+02 -0.52002921217E+01  0.29929338924E+03  0.89027417811E+02 0.  0.
         23    2    4    4    0    0 -0.18368208454E+03 -0.33607875462E+03  0.15247925826E+04  0.15750071083E+04  0.94693894892E+02 0.  0.
          2    1    3    3  502    0  0.28240921188E+03  0.24247691530E+03  0.93478383583E+03  0.10061664063E+04  0.00000000000E+00 0. -1.
         -3    1    3    3    0  502  0.17012278147E+03  0.19026276843E+03  0.80961688518E+03  0.84889409386E+03  0.00000000000E+00 0.  1.
         13    1    5    5    0    0 -0.24803767832E+03 -0.11313342479E+03 -0.67739980372E+01  0.27270450806E+03  0.00000000000E+00 0. -1.
        -13    1    5    5    0    0 -0.20812230490E+02  0.16472495678E+02  0.15737059155E+01  0.26588881175E+02  0.00000000000E+00 0.  1.
          3    1    6    6  503    0 -0.15055282164E+03 -0.23114705103E+03  0.12245346889E+04  0.12552212218E+04  0.00000000000E+00 0. -1.
         -3    1    6    6    0  503 -0.33129262906E+02 -0.10493170360E+03  0.30025789372E+03  0.31978588652E+03  0.00000000000E+00 0.  1.
<mgrwt>
<rscale>  0 0.18040186E+04</rscale>
<asrwt>0</asrwt>
<pdfrwt beam="1">  1        2 0.53795027E+00 0.18040186E+04</pdfrwt>
<pdfrwt beam="2">  1       -1 0.35797540E-01 0.18040186E+04</pdfrwt>
<totfact> 0.65974028E+00</totfact>
</mgrwt>
</event>
<event>
12    7  0.1544987E-007  0.2316983E+04  0.7818608E-02  0.8471255E-01
          2   -1    0    0  501    0  0.00000000000E+00  0.00000000000E+00  0.78164493941E+03  0.78164493941E+03  0.00000000000E+00 0. -1.
         -1   -1    0    0    0  501 -0.00000000000E+00 -0.00000000000E+00 -0.17170230050E+04  0.17170230050E+04  0.00000000000E+00 0.  1.
         24    2    1    2    0    0  0.95468770506E+01 -0.94716018906E+03 -0.11646562919E+03  0.95830325270E+03  0.87047772765E+02 0.  0.
        254    2    1    2    0    0 -0.95468770506E+01  0.94716018906E+03 -0.81891243645E+03  0.15403646918E+04  0.89716344021E+03 0.  0.
         23    2    4    4    0    0 -0.10076473207E+03  0.37553541888E+03  0.13347773069E+03  0.42108425741E+03  0.91188075906E+02 0.  0.
         23    2    4    4    0    0  0.91217855018E+02  0.57162477018E+03 -0.95239016713E+03  0.11192804343E+04  0.10327674134E+03 0.  0.
          4    1    3    3  502    0  0.18803696985E+02 -0.84201238921E+03 -0.12886183508E+03  0.85202336537E+03  0.00000000000E+00 0. -1.
         -3    1    3    3    0  502 -0.92568199343E+01 -0.10514779986E+03  0.12396205891E+02  0.10627988733E+03  0.00000000000E+00 0.  1.
         13    1    5    5    0    0 -0.10690537468E+03  0.26111501069E+03  0.72651965275E+02  0.29135565208E+03  0.00000000000E+00 0. -1.
        -13    1    5    5    0    0  0.61406426106E+01  0.11442040819E+03  0.60825765413E+02  0.12972860533E+03  0.00000000000E+00 0.  1.
          3    1    6    6  503    0  0.98672440474E+02  0.51038993425E+03 -0.89504860670E+03  0.10350585219E+04  0.00000000000E+00 0. -1.
         -3    1    6    6    0  503 -0.74545854565E+01  0.61234835931E+02 -0.57341560431E+02  0.84221912401E+02  0.00000000000E+00 0.  1.
<mgrwt>
<rscale>  0 0.23169828E+04</rscale>
<asrwt>0</asrwt>
<pdfrwt beam="1">  1        2 0.12025307E+00 0.23169828E+04</pdfrwt>
<pdfrwt beam="2">  1       -1 0.26415738E+00 0.23169828E+04</pdfrwt>
<totfact> 0.20688264E+00</totfact>
</mgrwt>
</event>
<event>
12    7  0.1544987E-007  0.1129273E+04  0.7818608E-02  0.9177120E-01
         -1   -1    0    0    0  501 -0.00000000000E+00  0.00000000000E+00  0.32187698905E+03  0.32187698905E+03  0.00000000000E+00 0.  1.
          2   -1    0    0  501    0  0.00000000000E+00 -0.00000000000E+00 -0.99048595570E+03  0.99048595570E+03  0.00000000000E+00 0. -1.
         24    2    1    2    0    0  0.81486562664E+02 -0.59749529536E+02 -0.27307988512E+03  0.30178297503E+03  0.79311248802E+02 0.  0.
        254    2    1    2    0    0 -0.81486562664E+02  0.59749529536E+02 -0.39552908153E+03  0.10105799697E+04  0.92445581544E+03 0.  0.
         23    2    4    4    0    0  0.31306883773E+02 -0.41885669036E+03 -0.17237748838E+03  0.46314586212E+03  0.91482474103E+02 0.  0.
         23    2    4    4    0    0 -0.11279344644E+03  0.47860621990E+03 -0.22315159315E+03  0.54743410760E+03  0.90006629506E+02 0.  0.
          2    1    3    3  502    0  0.58116656195E+02 -0.38852227154E+02 -0.80282817760E+02  0.10645361483E+03  0.00000000000E+00 0. -1.
         -1    1    3    3    0  502  0.23369906469E+02 -0.20897302381E+02 -0.19279706736E+03  0.19532936020E+03  0.00000000000E+00 0.  1.
         13    1    5    5    0    0  0.33652833904E+02 -0.29943411124E+03 -0.16484373863E+03  0.34346289227E+03  0.00000000000E+00 0. -1.
        -13    1    5    5    0    0 -0.23459501307E+01 -0.11942257913E+03 -0.75337497494E+01  0.11968296985E+03  0.00000000000E+00 0.  1.
          4    1    6    6  503    0 -0.53927458220E+02  0.34117572024E+03 -0.19028559333E+03  0.39435726170E+03  0.00000000000E+00 0.  1.
         -4    1    6    6    0  503 -0.58865988217E+02  0.13743049966E+03 -0.32865999822E+02  0.15307684590E+03  0.00000000000E+00 0. -1.
<mgrwt>
<rscale>  0 0.11292735E+04</rscale>
<asrwt>0</asrwt>
<pdfrwt beam="1">  1        2 0.15238245E+00 0.11292735E+04</pdfrwt>
<pdfrwt beam="2">  1       -1 0.49519537E-01 0.11292735E+04</pdfrwt>
<totfact> 0.11803289E+02</totfact>
</mgrwt>
</event>
<event>
12    7  0.1544987E-007  0.1878665E+04  0.7818608E-02  0.8665550E-01
         -1   -1    0    0    0  501 -0.00000000000E+00  0.00000000000E+00  0.63244070832E+03  0.63244070832E+03  0.00000000000E+00 0.  1.
          2   -1    0    0  501    0  0.00000000000E+00 -0.00000000000E+00 -0.13951428291E+04  0.13951428291E+04  0.00000000000E+00 0. -1.
         24    2    1    2    0    0  0.37937312071E+03  0.14318933884E+03  0.34918026224E+03  0.54006238427E+03  0.72892879544E+02 0.  0.
        254    2    1    2    0    0 -0.37937312071E+03 -0.14318933884E+03 -0.11118823830E+04  0.14875211531E+04  0.90111575055E+03 0.  0.
         23    2    4    4    0    0 -0.44855449866E+02 -0.48618168121E+03 -0.47940712681E+03  0.68890445918E+03  0.79834341690E+02 0.  0.
         23    2    4    4    0    0 -0.33451767084E+03  0.34299234237E+03 -0.63247525617E+03  0.79861669393E+03  0.90652386248E+02 0.  0.
          2    1    3    3  502    0  0.10138537448E+03  0.10566549938E+02  0.11104370005E+03  0.15073602574E+03  0.00000000000E+00 0. -1.
         -1    1    3    3    0  502  0.27798774623E+03  0.13262278890E+03  0.23813656219E+03  0.38932635853E+03  0.00000000000E+00 0.  1.
         13    1    5    5    0    0  0.51513203567E+01 -0.33948695791E+03 -0.33861592643E+03  0.47951921372E+03  0.00000000000E+00 0.  1.
        -13    1    5    5    0    0 -0.50006770223E+02 -0.14669472330E+03 -0.14079120038E+03  0.20938524546E+03  0.00000000000E+00 0. -1.
          1    1    6    6  503    0 -0.25074286652E+03  0.30146443797E+03 -0.53762776600E+03  0.66542949082E+03  0.00000000000E+00 0. -1.
         -1    1    6    6    0  503 -0.83774804321E+02  0.41527904393E+02 -0.94847490166E+02  0.13318720311E+03  0.00000000000E+00 0.  1.
<mgrwt>
<rscale>  0 0.18786645E+04</rscale>
<asrwt>0</asrwt>
<pdfrwt beam="1">  1        2 0.21463736E+00 0.18786645E+04</pdfrwt>
<pdfrwt beam="2">  1       -1 0.97298571E-01 0.18786645E+04</pdfrwt>
<totfact> 0.15797899E+01</totfact>
</mgrwt>
</event>
<event>
12    7  0.1544987E-007  0.2388197E+04  0.7818608E-02  0.8443936E-01
          2   -1    0    0  501    0  0.00000000000E+00  0.00000000000E+00  0.42954068561E+03  0.42954068561E+03  0.00000000000E+00 0. -1.
         -1   -1    0    0    0  501 -0.00000000000E+00 -0.00000000000E+00 -0.33195245185E+04  0.33195245185E+04  0.00000000000E+00 0.  1.
         24    2    1    2    0    0 -0.57852422732E+03 -0.43661852701E+02 -0.26016741097E+04  0.26668014043E+04  0.80776963359E+02 0.  0.
        254    2    1    2    0    0  0.57852422732E+03  0.43661852701E+02 -0.28830972316E+03  0.10822637998E+04  0.86693471319E+03 0.  0.
         23    2    4    4    0    0  0.60691600241E+03 -0.29325692684E+03 -0.26675298916E+03  0.73068422215E+03  0.91627594956E+02 0.  0.
         23    2    4    4    0    0 -0.28391775086E+02  0.33691877954E+03 -0.21556734000E+02  0.35157957766E+03  0.93931622714E+02 0.  0.
          2    1    3    3  502    0 -0.42494471472E+02  0.81472581771E+01 -0.29119900430E+03  0.29439602244E+03  0.00000000000E+00 0. -1.
         -1    1    3    3    0  502 -0.53602975585E+03 -0.51809110879E+02 -0.23104751054E+04  0.23724053819E+04  0.00000000000E+00 0.  1.
         13    1    5    5    0    0  0.14312802501E+03 -0.49826977734E+02 -0.97581695763E+02  0.18025134286E+03  0.00000000000E+00 0. -1.
        -13    1    5    5    0    0  0.46378797740E+03 -0.24342994910E+03 -0.16917129340E+03  0.55043287930E+03  0.00000000000E+00 0.  1.
          4    1    6    6  503    0 -0.76666790953E+01  0.99642628403E+00 -0.12740896005E+02  0.14903062259E+02  0.00000000000E+00 0. -1.
         -4    1    6    6    0  503 -0.20725095991E+02  0.33592235326E+03 -0.88158379944E+01  0.33667651540E+03  0.00000000000E+00 0.  1.
<mgrwt>
<rscale>  0 0.23881967E+04</rscale>
<asrwt>0</asrwt>
<pdfrwt beam="1">  1        2 0.66083181E-01 0.23881967E+04</pdfrwt>
<pdfrwt beam="2">  1       -1 0.51069609E+00 0.23881967E+04</pdfrwt>
<totfact> 0.95480149E-02</totfact>
</mgrwt>
</event>
<event>
12    7  0.1544987E-007  0.1447265E+04  0.7818608E-02  0.8920298E-01
          2   -1    0    0  501    0  0.00000000000E+00  0.00000000000E+00  0.48545595172E+03  0.48545595172E+03  0.00000000000E+00 0. -1.
         -1   -1    0    0    0  501 -0.00000000000E+00 -0.00000000000E+00 -0.10786650189E+04  0.10786650189E+04  0.00000000000E+00 0.  1.
         24    2    1    2    0    0 -0.34264473722E+03  0.23742562925E+03 -0.33544080863E+03  0.54158439009E+03  0.83766163331E+02 0.  0.
        254    2    1    2    0    0  0.34264473722E+03 -0.23742562925E+03 -0.25776825850E+03  0.10225365805E+04  0.89741865256E+03 0.  0.
         23    2    4    4    0    0 -0.88031924333E+02  0.22907303835E+03  0.10910861025E+03  0.28353603318E+03  0.90906087143E+02 0.  0.
         23    2    4    4    0    0  0.43067666156E+03 -0.46649866761E+03 -0.36687686875E+03  0.73900054730E+03  0.91759350472E+02 0.  0.
          2    1    3    3  502    0 -0.16851196519E+03  0.11981340889E+03 -0.11316828450E+03  0.23570871002E+03  0.00000000000E+00 0. -1.
         -1    1    3    3    0  502 -0.17413277203E+03  0.11761222037E+03 -0.22227252413E+03  0.30587568007E+03  0.00000000000E+00 0.  1.
         13    1    5    5    0    0  0.12687733586E+02  0.23584254433E+02  0.32711149203E+02  0.42275464786E+02  0.00000000000E+00 0. -1.
        -13    1    5    5    0    0 -0.10071965792E+03  0.20548878392E+03  0.76397461049E+02  0.24126056840E+03  0.00000000000E+00 0.  1.
          2    1    6    6  503    0  0.53319997551E+02 -0.23973710536E+02 -0.48650699069E+02  0.76056896174E+02  0.00000000000E+00 0. -1.
         -2    1    6    6    0  503  0.37735666400E+03 -0.44252495707E+03 -0.31822616969E+03  0.66294365113E+03  0.00000000000E+00 0.  1.
<mgrwt>
<rscale>  0 0.14472655E+04</rscale>
<asrwt>0</asrwt>
<pdfrwt beam="1">  1        2 0.74685532E-01 0.14472655E+04</pdfrwt>
<pdfrwt beam="2">  1       -1 0.16594846E+00 0.14472655E+04</pdfrwt>
<totfact> 0.18635151E+01</totfact>
</mgrwt>
</event>
<event>
12    7  0.1544987E-007  0.2852835E+04  0.7818608E-02  0.8287051E-01
          2   -1    0    0  501    0  0.00000000000E+00  0.00000000000E+00  0.11429879554E+04  0.11429879554E+04  0.00000000000E+00 0. -1.
         -1   -1    0    0    0  501 -0.00000000000E+00 -0.00000000000E+00 -0.17801292030E+04  0.17801292030E+04  0.00000000000E+00 0.  1.
         24    2    1    2    0    0  0.12086752312E+04  0.11649808383E+03 -0.71301643479E+03  0.14103905232E+04  0.79632742834E+02 0.  0.
        254    2    1    2    0    0 -0.12086752312E+04 -0.11649808383E+03  0.75875187217E+02  0.15127266352E+04  0.89895339751E+03 0.  0.
         23    2    4    4    0    0 -0.95444373356E+03  0.21433113389E+03 -0.20194521288E+03  0.10028674320E+04  0.89780519396E+02 0.  0.
         23    2    4    4    0    0 -0.25423149761E+03 -0.33082921772E+03  0.27782040010E+03  0.50985920322E+03  0.93223423726E+02 0.  0.
          2    1    3    3  502    0  0.30611199767E+03  0.58987499715E+02 -0.16139985722E+03  0.35104699706E+03  0.00000000000E+00 0. -1.
         -1    1    3    3    0  502  0.90256323350E+03  0.57510584111E+02 -0.55161657757E+03  0.10593435261E+04  0.00000000000E+00 0.  1.
         13    1    5    5    0    0 -0.17746567017E+03  0.66474613984E+02 -0.14651527809E+02  0.19007263259E+03  0.00000000000E+00 0. -1.
        -13    1    5    5    0    0 -0.77697806339E+03  0.14785651990E+03 -0.18729368507E+03  0.81279479940E+03  0.00000000000E+00 0.  1.
          4    1    6    6  503    0 -0.75650643297E+02 -0.10047645561E+03  0.35143663804E+02  0.13058949065E+03  0.00000000000E+00 0. -1.
         -4    1    6    6    0  503 -0.17858085431E+03 -0.23035276211E+03  0.24267673629E+03  0.37926971257E+03  0.00000000000E+00 0.  1.
<mgrwt>
<rscale>  0 0.28528345E+04</rscale>
<asrwt>0</asrwt>
<pdfrwt beam="1">  1        2 0.17584430E+00 0.28528345E+04</pdfrwt>
<pdfrwt beam="2">  1       -1 0.27386603E+00 0.28528345E+04</pdfrwt>
<totfact> 0.98713110E-01</totfact>
</mgrwt>
</event>
<event>
12    7  0.1544987E-007  0.1858968E+04  0.7818608E-02  0.8675554E-01
         -3   -1    0    0    0  501 -0.00000000000E+00  0.00000000000E+00  0.47836549952E+03  0.47836549952E+03  0.00000000000E+00 0.  1.
          4   -1    0    0  501    0  0.00000000000E+00 -0.00000000000E+00 -0.18060266518E+04  0.18060266518E+04  0.00000000000E+00 0. -1.
         24    2    1    2    0    0  0.28555504016E+03 -0.54367121469E+03 -0.82461342348E+02  0.62472424366E+03  0.79752347909E+02 0.  0.
        254    2    1    2    0    0 -0.28555504016E+03  0.54367121469E+03 -0.12451998099E+04  0.16596679076E+04  0.90931563629E+03 0.  0.
         23    2    4    4    0    0 -0.36915577536E+03  0.71987205625E+03 -0.11815916530E+04  0.14350737502E+04  0.93734040631E+02 0.  0.
         23    2    4    4    0    0  0.83600735204E+02 -0.17620084156E+03 -0.63608156957E+02  0.22459415742E+03  0.91436964217E+02 0.  0.
          2    1    3    3  502    0  0.82265328037E+02 -0.24078309638E+03 -0.31140319865E+02  0.25634703669E+03  0.00000000000E+00 0. -1.
         -1    1    3    3    0  502  0.20328971212E+03 -0.30288811831E+03 -0.51321022483E+02  0.36837720697E+03  0.00000000000E+00 0.  1.
         13    1    5    5    0    0 -0.12254507661E+03  0.31695422354E+03 -0.54690071633E+03  0.64387706059E+03  0.00000000000E+00 0.  1.
        -13    1    5    5    0    0 -0.24661069875E+03  0.40291783271E+03 -0.63469093663E+03  0.79119668964E+03  0.00000000000E+00 0. -1.
          3    1    6    6  503    0  0.13888916079E+02 -0.52110259669E+02 -0.62108700311E+02  0.82254919652E+02  0.00000000000E+00 0. -1.
         -3    1    6    6    0  503  0.69711819126E+02 -0.12409058189E+03 -0.14994566461E+01  0.14233923777E+03  0.00000000000E+00 0.  1.
<mgrwt>
<rscale>  0 0.18589684E+04</rscale>
<asrwt>0</asrwt>
<pdfrwt beam="1">  1        4 0.27785026E+00 0.18589684E+04</pdfrwt>
<pdfrwt beam="2">  1       -3 0.73594691E-01 0.18589684E+04</pdfrwt>
<totfact> 0.15939508E-01</totfact>
</mgrwt>
</event>
<event>
12    7  0.1544987E-007  0.1468012E+04  0.7818608E-02  0.8906008E-01
          2   -1    0    0  501    0  0.00000000000E+00  0.00000000000E+00  0.65136536477E+03  0.65136536477E+03  0.00000000000E+00 0. -1.
         -1   -1    0    0    0  501 -0.00000000000E+00 -0.00000000000E+00 -0.82713109353E+03  0.82713109353E+03  0.00000000000E+00 0.  1.
         24    2    1    2    0    0 -0.19734171874E+03  0.16985160858E+03  0.31937725767E+03  0.41938698344E+03  0.78040286187E+02 0.  0.
        254    2    1    2    0    0  0.19734171874E+03 -0.16985160858E+03 -0.49514298643E+03  0.10591094749E+04  0.89930694417E+03 0.  0.
         23    2    4    4    0    0  0.20264229600E+03 -0.16614738088E+03 -0.74443704912E+03  0.79412730114E+03  0.88220167782E+02 0.  0.
         23    2    4    4    0    0 -0.53005772518E+01 -0.37042276972E+01  0.24929406269E+03  0.26498217372E+03  0.89589091268E+02 0.  0.
          4    1    3    3  502    0 -0.12184828241E+03  0.54685865081E+02  0.14387705755E+03  0.19631137373E+03  0.00000000000E+00 0. -1.
         -3    1    3    3    0  502 -0.75493436329E+02  0.11516574350E+03  0.17550020013E+03  0.22307560971E+03  0.00000000000E+00 0.  1.
         13    1    5    5    0    0  0.75709867521E+01 -0.41450284837E+02 -0.16125896582E+03  0.16667303324E+03  0.00000000000E+00 0. -1.
        -13    1    5    5    0    0  0.19507130924E+03 -0.12469709605E+03 -0.58317808331E+03  0.62745426790E+03  0.00000000000E+00 0.  1.
          4    1    6    6  503    0 -0.78390451144E+01 -0.15215717633E+02  0.18035504982E+01  0.17211086130E+02  0.00000000000E+00 0. -1.
         -4    1    6    6    0  503  0.25384678626E+01  0.11511489936E+02  0.24749051220E+03  0.24777108759E+03  0.00000000000E+00 0.  1.
<mgrwt>
<rscale>  0 0.14680116E+04</rscale>
<asrwt>0</asrwt>
<pdfrwt beam="1">  1        2 0.10021006E+00 0.14680116E+04</pdfrwt>
<pdfrwt beam="2">  1       -1 0.12725094E+00 0.14680116E+04</pdfrwt>
<totfact> 0.26563335E+01</totfact>
</mgrwt>
</event>
<event>
12    7  0.1544987E-007  0.1641440E+04  0.7818608E-02  0.8795487E-01
          2   -1    0    0  501    0  0.00000000000E+00  0.00000000000E+00  0.10492421915E+04  0.10492421915E+04  0.00000000000E+00 0. -1.
         -1   -1    0    0    0  501 -0.00000000000E+00 -0.00000000000E+00 -0.64196908090E+03  0.64196908090E+03  0.00000000000E+00 0.  1.
         24    2    1    2    0    0  0.40397646110E+03 -0.41719811307E+03  0.10663835711E+03  0.59580397946E+03  0.79745821604E+02 0.  0.
        254    2    1    2    0    0 -0.40397646110E+03  0.41719811307E+03  0.30063475353E+03  0.10954072930E+04  0.87879726660E+03 0.  0.
         23    2    4    4    0    0 -0.51800668202E+03  0.17726758727E+03 -0.14012932416E+03  0.57232999829E+03  0.90391810141E+02 0.  0.
         23    2    4    4    0    0  0.11403022092E+03  0.23993052580E+03  0.44076407769E+03  0.52307729468E+03  0.93634051140E+02 0.  0.
          4    1    3    3  502    0  0.65180835109E+02 -0.49679354860E+02 -0.98870920558E+01  0.82548980334E+02  0.00000000000E+00 0. -1.
         -3    1    3    3    0  502  0.33879562599E+03 -0.36751875821E+03  0.11652544916E+03  0.51325499913E+03  0.00000000000E+00 0.  1.
         13    1    5    5    0    0 -0.43440232073E+03  0.14907932859E+03 -0.15094697499E+03  0.48344080478E+03  0.00000000000E+00 0. -1.
        -13    1    5    5    0    0 -0.83604361282E+02  0.28188258683E+02  0.10817650822E+02  0.88889193507E+02  0.00000000000E+00 0.  1.
          1    1    6    6  503    0  0.53027115329E+02  0.20241113045E+03  0.31047413532E+03  0.37440129459E+03  0.00000000000E+00 0. -1.
         -1    1    6    6    0  503  0.61003105587E+02  0.37519395352E+02  0.13028994237E+03  0.14867600009E+03  0.00000000000E+00 0.  1.
<mgrwt>
<rscale>  0 0.16414397E+04</rscale>
<asrwt>0</asrwt>
<pdfrwt beam="1">  1        2 0.16142188E+00 0.16414397E+04</pdfrwt>
<pdfrwt beam="2">  1       -1 0.98764474E-01 0.16414397E+04</pdfrwt>
<totfact> 0.25061888E+01</totfact>
</mgrwt>
</event>
<event>
12    7  0.1544987E-007  0.1813731E+04  0.7818608E-02  0.8699031E-01
          2   -1    0    0  501    0  0.00000000000E+00  0.00000000000E+00  0.97498736105E+03  0.97498736105E+03  0.00000000000E+00 0. -1.
         -1   -1    0    0    0  501 -0.00000000000E+00 -0.00000000000E+00 -0.84350358983E+03  0.84350358983E+03  0.00000000000E+00 0.  1.
         24    2    1    2    0    0 -0.55586467063E+03 -0.30210575728E+03  0.19879978721E+03  0.66809749057E+03  0.81113999204E+02 0.  0.
        254    2    1    2    0    0  0.55586467063E+03  0.30210575728E+03 -0.67316015991E+02  0.11503934603E+04  0.95844678877E+03 0.  0.
         23    2    4    4    0    0  0.21901743400E+03  0.13233716475E+03  0.43701032513E+03  0.51400244356E+03  0.87970029834E+02 0.  0.
         23    2    4    4    0    0  0.33684723663E+03  0.16976859253E+03 -0.50432634112E+03  0.63639101676E+03  0.91438679069E+02 0.  0.
          2    1    3    3  502    0  0.10665690416E+01 -0.11022271857E+01  0.61896585570E+01  0.63768603044E+01  0.00000000000E+00 0. -1.
         -3    1    3    3    0  502 -0.55693123967E+03 -0.30100353009E+03  0.19261012865E+03  0.66172063026E+03  0.00000000000E+00 0.  1.
         13    1    5    5    0    0  0.11813251929E+03  0.11829441901E+03  0.29765808321E+03  0.34139302304E+03  0.00000000000E+00 0.  1.
        -13    1    5    5    0    0  0.10088491471E+03  0.14042745741E+02  0.13935224192E+03  0.17260942052E+03  0.00000000000E+00 0. -1.
          4    1    6    6  503    0 -0.58286630008E+01  0.30379414407E+01 -0.13288633815E+02  0.14825322568E+02  0.00000000000E+00 0. -1.
         -4    1    6    6    0  503  0.34267589964E+03  0.16673065109E+03 -0.49103770730E+03  0.62156569419E+03  0.00000000000E+00 0.  1.
<mgrwt>
<rscale>  0 0.18137313E+04</rscale>
<asrwt>0</asrwt>
<pdfrwt beam="1">  1        2 0.14999806E+00 0.18137313E+04</pdfrwt>
<pdfrwt beam="2">  1       -1 0.12976978E+00 0.18137313E+04</pdfrwt>
<totfact> 0.14332152E+01</totfact>
</mgrwt>
</event>
<event>
12    7  0.1544987E-007  0.1089796E+04  0.7818608E-02  0.9215195E-01
         -1   -1    0    0    0  501 -0.00000000000E+00  0.00000000000E+00  0.38165123135E+03  0.38165123135E+03  0.00000000000E+00 0.  1.
          2   -1    0    0  501    0  0.00000000000E+00 -0.00000000000E+00 -0.77797167731E+03  0.77797167731E+03  0.00000000000E+00 0. -1.
         24    2    1    2    0    0  0.74281922891E+02 -0.47886051992E+02  0.61847328489E+02  0.13040289930E+03  0.73273092335E+02 0.  0.
        254    2    1    2    0    0 -0.74281922891E+02  0.47886051992E+02 -0.45816777446E+03  0.10292200094E+04  0.91736865004E+03 0.  0.
         23    2    4    4    0    0 -0.10323767065E+03  0.34610614428E+03  0.10272275059E+03  0.38628415967E+03  0.90642201934E+02 0.  0.
         23    2    4    4    0    0  0.28955747758E+02 -0.29822009229E+03 -0.56089052505E+03  0.64293584969E+03  0.94840218073E+02 0.  0.
          2    1    3    3  502    0  0.12754959193E+02 -0.15602113944E+02 -0.16237459763E+02  0.25879915825E+02  0.00000000000E+00 0. -1.
         -1    1    3    3    0  502  0.61526963697E+02 -0.32283938047E+02  0.78084788252E+02  0.10452298347E+03  0.00000000000E+00 0.  1.
         13    1    5    5    0    0 -0.39716477261E+02  0.16324687915E+03  0.18909413364E+01  0.16801939702E+03  0.00000000000E+00 0.  1.
        -13    1    5    5    0    0 -0.63521193388E+02  0.18285926513E+03  0.10083180925E+03  0.21826476264E+03  0.00000000000E+00 0. -1.
          4    1    6    6  503    0  0.47906002810E+01 -0.99847862117E+02 -0.28685648794E+03  0.30377490037E+03  0.00000000000E+00 0. -1.
         -4    1    6    6    0  503  0.24165147477E+02 -0.19837223017E+03 -0.27403403710E+03  0.33916094933E+03  0.00000000000E+00 0.  1.
<mgrwt>
<rscale>  0 0.10897960E+04</rscale>
<asrwt>0</asrwt>
<pdfrwt beam="1">  1        2 0.11968795E+00 0.10897960E+04</pdfrwt>
<pdfrwt beam="2">  1       -1 0.58715575E-01 0.10897960E+04</pdfrwt>
<totfact> 0.11917898E+02</totfact>
</mgrwt>
</event>
<event>
12    7  0.1544987E-007  0.1163860E+04  0.7818608E-02  0.9145092E-01
         -1   -1    0    0    0  501 -0.00000000000E+00  0.00000000000E+00  0.99739980125E+03  0.99739980125E+03  0.00000000000E+00 0.  1.
          2   -1    0    0  501    0  0.00000000000E+00 -0.00000000000E+00 -0.33952534012E+03  0.33952534012E+03  0.00000000000E+00 0. -1.
         24    2    1    2    0    0  0.21477766497E+02  0.13764581833E+03 -0.72183776169E+02  0.17593411646E+03  0.79590514723E+02 0.  0.
        254    2    1    2    0    0 -0.21477766497E+02 -0.13764581833E+03  0.73005823730E+03  0.11609910249E+04  0.89191225146E+03 0.  0.
         23    2    4    4    0    0  0.80885771498E+02  0.51638143777E+02 -0.17909458272E+03  0.22259093252E+03  0.90900207696E+02 0.  0.
         23    2    4    4    0    0 -0.10236353800E+03 -0.18928396211E+03  0.90915282001E+03  0.93840009238E+03  0.87915704056E+02 0.  0.
          2    1    3    3  502    0  0.18933774386E+02  0.11224744165E+03 -0.89741179216E+02  0.14495328632E+03  0.00000000000E+00 0. -1.
         -1    1    3    3    0  502  0.25439921115E+01  0.25398376687E+02  0.17557403047E+02  0.30980830136E+02  0.00000000000E+00 0.  1.
         13    1    5    5    0    0  0.54908553458E+02  0.71588009421E+02 -0.89016579484E+02  0.12674282528E+03  0.00000000000E+00 0.  1.
        -13    1    5    5    0    0  0.25977218040E+02 -0.19949865645E+02 -0.90078003234E+02  0.95848107247E+02  0.00000000000E+00 0. -1.
          1    1    6    6  503    0 -0.53121136611E+02 -0.60462343856E+02  0.50479031109E+03  0.51116612599E+03  0.00000000000E+00 0. -1.
         -1    1    6    6    0  503 -0.49242401385E+02 -0.12882161825E+03  0.40436250892E+03  0.42723396640E+03  0.00000000000E+00 0.  1.
<mgrwt>
<rscale>  0 0.11638600E+04</rscale>
<asrwt>0</asrwt>
<pdfrwt beam="1">  1        2 0.52234668E-01 0.11638600E+04</pdfrwt>
<pdfrwt beam="2">  1       -1 0.15344612E+00 0.11638600E+04</pdfrwt>
<totfact> 0.35529245E+01</totfact>
</mgrwt>
</event>
<event>
12    7  0.1544987E-007  0.2926805E+04  0.7818608E-02  0.8264946E-01
         -1   -1    0    0    0  501 -0.00000000000E+00  0.00000000000E+00  0.78462788875E+03  0.78462788875E+03  0.00000000000E+00 0.  1.
          2   -1    0    0  501    0  0.00000000000E+00 -0.00000000000E+00 -0.27293799246E+04  0.27293799246E+04  0.00000000000E+00 0. -1.
         24    2    1    2    0    0  0.65730980050E+03  0.20245038494E+03  0.47862198492E+03  0.84156804579E+03  0.78201272632E+02 0.  0.
        254    2    1    2    0    0 -0.65730980050E+03 -0.20245038494E+03 -0.24233740208E+04  0.26724397676E+04  0.89227256739E+03 0.  0.
         23    2    4    4    0    0 -0.24164679912E+03  0.22674244401E+03 -0.16784328958E+04  0.17131788032E+04  0.89662225220E+02 0.  0.
         23    2    4    4    0    0 -0.41566300138E+03 -0.42919282894E+03 -0.74494112498E+03  0.95926096435E+03  0.90896110598E+02 0.  0.
          4    1    3    3  502    0  0.18326307871E+03  0.70986381567E+02  0.17725664497E+03  0.26465891365E+03  0.00000000000E+00 0. -1.
         -3    1    3    3    0  502  0.47404672179E+03  0.13146400337E+03  0.30136533995E+03  0.57690913214E+03  0.00000000000E+00 0.  1.
         13    1    5    5    0    0 -0.23915502098E+03  0.22105060474E+03 -0.15140609032E+04  0.15486894177E+04  0.00000000000E+00 0.  1.
        -13    1    5    5    0    0 -0.24917781449E+01  0.56918392610E+01 -0.16437199264E+03  0.16448938554E+03  0.00000000000E+00 0. -1.
          2    1    6    6  503    0 -0.65049287772E+02 -0.27147676460E+02 -0.98777301806E+02  0.12134810064E+03  0.00000000000E+00 0. -1.
         -2    1    6    6    0  503 -0.35061371361E+03 -0.40204515248E+03 -0.64616382317E+03  0.83791286371E+03  0.00000000000E+00 0.  1.
<mgrwt>
<rscale>  0 0.29268055E+04</rscale>
<asrwt>0</asrwt>
<pdfrwt beam="1">  1        2 0.41990460E+00 0.29268055E+04</pdfrwt>
<pdfrwt beam="2">  1       -1 0.12071198E+00 0.29268055E+04</pdfrwt>
<totfact> 0.15223396E+00</totfact>
</mgrwt>
</event>
<event>
12    7  0.1544987E-007  0.2499890E+04  0.7818608E-02  0.8403025E-01
         -1   -1    0    0    0  501 -0.00000000000E+00  0.00000000000E+00  0.14943582586E+04  0.14943582586E+04  0.00000000000E+00 0.  1.
          2   -1    0    0  501    0  0.00000000000E+00 -0.00000000000E+00 -0.10455070395E+04  0.10455070395E+04  0.00000000000E+00 0. -1.
         24    2    1    2    0    0 -0.10980817409E+03 -0.93410409826E+03 -0.36524528273E+03  0.10121375339E+04  0.80062285387E+02 0.  0.
        254    2    1    2    0    0  0.10980817409E+03  0.93410409826E+03  0.81409650177E+03  0.15277277641E+04  0.88689949017E+03 0.  0.
         23    2    4    4    0    0 -0.26528940049E+03  0.23433815214E+03  0.59542053267E+03  0.69865193466E+03  0.91082816807E+02 0.  0.
         23    2    4    4    0    0  0.37509757458E+03  0.69976594612E+03  0.21867596910E+03  0.82907582948E+03  0.95796564478E+02 0.  0.
          4    1    3    3  502    0 -0.95901852730E+02 -0.76656505167E+03 -0.33153898132E+03  0.84067665599E+03  0.00000000000E+00 0. -1.
         -3    1    3    3    0  502 -0.13906321358E+02 -0.16753904659E+03 -0.33706301407E+02  0.17146087793E+03  0.00000000000E+00 0.  1.
         13    1    5    5    0    0 -0.20477946339E+03  0.14512055084E+03  0.47349772621E+03  0.53590549505E+03  0.00000000000E+00 0.  1.
        -13    1    5    5    0    0 -0.60509937106E+02  0.89217601298E+02  0.12192280646E+03  0.16274643961E+03  0.00000000000E+00 0. -1.
          1    1    6    6  503    0  0.14066989512E+03  0.17178912414E+03  0.60202381379E+02  0.23005184044E+03  0.00000000000E+00 0. -1.
         -1    1    6    6    0  503  0.23442767946E+03  0.52797682198E+03  0.15847358772E+03  0.59902398904E+03  0.00000000000E+00 0.  1.
<mgrwt>
<rscale>  0 0.24998897E+04</rscale>
<asrwt>0</asrwt>
<pdfrwt beam="1">  1        2 0.16084724E+00 0.24998897E+04</pdfrwt>
<pdfrwt beam="2">  1       -1 0.22990127E+00 0.24998897E+04</pdfrwt>
<totfact> 0.22646341E+00</totfact>
</mgrwt>
</event>
<event>
12    7  0.1544987E-007  0.1590016E+04  0.7818608E-02  0.8826705E-01
          2   -1    0    0  501    0  0.00000000000E+00  0.00000000000E+00  0.44943429873E+04  0.44943429873E+04  0.00000000000E+00 0. -1.
         -1   -1    0    0    0  501 -0.00000000000E+00 -0.00000000000E+00 -0.14062963864E+03  0.14062963864E+03  0.00000000000E+00 0.  1.
         24    2    1    2    0    0 -0.51705349961E+02  0.54713531610E+03  0.20918731836E+04  0.21643716453E+04  0.80874627365E+02 0.  0.
        254    2    1    2    0    0  0.51705349961E+02 -0.54713531610E+03  0.22618401650E+04  0.24706009806E+04  0.82820153098E+03 0.  0.
         23    2    4    4    0    0  0.12365129481E+03 -0.74421661398E+03  0.16267620888E+04  0.17954899572E+04  0.91001546680E+02 0.  0.
         23    2    4    4    0    0 -0.71945944847E+02  0.19708129788E+03  0.63507807618E+03  0.67511102340E+03  0.91833948604E+02 0.  0.
          4    1    3    3  502    0 -0.51268332926E+02  0.20842880356E+03  0.90581327169E+03  0.93089671354E+03  0.00000000000E+00 0. -1.
         -3    1    3    3    0  502 -0.43701703482E+00  0.33870651254E+03  0.11860599120E+04  0.12334749318E+04  0.00000000000E+00 0.  1.
         13    1    5    5    0    0  0.47498213781E+02 -0.52814807608E+03  0.11052917471E+04  0.12259144818E+04  0.00000000000E+00 0.  1.
        -13    1    5    5    0    0  0.76153081027E+02 -0.21606853790E+03  0.52147034171E+03  0.56957547533E+03  0.00000000000E+00 0. -1.
          1    1    6    6  503    0 -0.15123863417E+02 -0.58864307888E+01  0.73793297431E+02  0.75556813444E+02  0.00000000000E+00 0. -1.
         -1    1    6    6    0  503 -0.56822081429E+02  0.20296772867E+03  0.56128477875E+03  0.59955420996E+03  0.00000000000E+00 0.  1.
<mgrwt>
<rscale>  0 0.15900161E+04</rscale>
<asrwt>0</asrwt>
<pdfrwt beam="1">  1        2 0.69143727E+00 0.15900161E+04</pdfrwt>
<pdfrwt beam="2">  1       -1 0.21635332E-01 0.15900161E+04</pdfrwt>
<totfact> 0.25177376E+00</totfact>
</mgrwt>
</event>
<event>
12    7  0.1544987E-007  0.2574226E+04  0.7818608E-02  0.8377009E-01
          2   -1    0    0  501    0  0.00000000000E+00  0.00000000000E+00  0.12232391277E+04  0.12232391277E+04  0.00000000000E+00 0. -1.
         -1   -1    0    0    0  501 -0.00000000000E+00 -0.00000000000E+00 -0.13543221696E+04  0.13543221696E+04  0.00000000000E+00 0.  1.
         24    2    1    2    0    0  0.98514328347E+03  0.54456478169E+02 -0.60631313955E+03  0.11608180770E+04  0.80063648312E+02 0.  0.
        254    2    1    2    0    0 -0.98514328347E+03 -0.54456478169E+02  0.47523009759E+03  0.14167432203E+04  0.89880193009E+03 0.  0.
         23    2    4    4    0    0  0.12046971962E+03 -0.15917694245E+03  0.10131724314E+03  0.24128238271E+03  0.90009733341E+02 0.  0.
         23    2    4    4    0    0 -0.11056130031E+04  0.10472046428E+03  0.37391285445E+03  0.11754608376E+04  0.92470912470E+02 0.  0.
          2    1    3    3  502    0  0.31712772058E+03  0.15908448146E+02 -0.15198808842E+03  0.35202762520E+03  0.00000000000E+00 0. -1.
         -1    1    3    3    0  502  0.66801556289E+03  0.38548030023E+02 -0.45432505113E+03  0.80879045182E+03  0.00000000000E+00 0.  1.
         13    1    5    5    0    0  0.27272828904E+02  0.56540353450E+01  0.23945433599E+02  0.36730901192E+02  0.00000000000E+00 0.  1.
        -13    1    5    5    0    0  0.93196890718E+02 -0.16483097780E+03  0.77371809542E+02  0.20455148152E+03  0.00000000000E+00 0. -1.
          3    1    6    6  503    0 -0.93758908256E+03  0.90816295284E+02  0.28120639314E+03  0.98305540168E+03  0.00000000000E+00 0. -1.
         -3    1    6    6    0  503 -0.16802392053E+03  0.13904168998E+02  0.92706461301E+02  0.19240543587E+03  0.00000000000E+00 0.  1.
<mgrwt>
<rscale>  0 0.25742260E+04</rscale>
<asrwt>0</asrwt>
<pdfrwt beam="1">  1        2 0.18819064E+00 0.25742260E+04</pdfrwt>
<pdfrwt beam="2">  1       -1 0.20835726E+00 0.25742260E+04</pdfrwt>
<totfact> 0.24445288E+00</totfact>
</mgrwt>
</event>
<event>
12    7  0.1544987E-007  0.1843465E+04  0.7818608E-02  0.8683521E-01
         -1   -1    0    0    0  501 -0.00000000000E+00  0.00000000000E+00  0.10953085373E+04  0.10953085373E+04  0.00000000000E+00 0.  1.
          2   -1    0    0  501    0  0.00000000000E+00 -0.00000000000E+00 -0.77566374283E+03  0.77566374283E+03  0.00000000000E+00 0. -1.
         24    2    1    2    0    0 -0.64808357971E+03  0.24296585684E+03  0.28509846160E+03  0.75419865933E+03  0.92139845145E+02 0.  0.
        254    2    1    2    0    0  0.64808357971E+03 -0.24296585684E+03  0.34546332902E+02  0.11167736208E+04  0.87575403920E+03 0.  0.
         23    2    4    4    0    0  0.28374537604E+03  0.27000214575E+03 -0.18697967419E+03  0.44341553917E+03  0.90792866888E+02 0.  0.
         23    2    4    4    0    0  0.36433820366E+03 -0.51296800259E+03  0.22152600709E+03  0.67335808166E+03  0.91971930427E+02 0.  0.
          4    1    3    3  502    0 -0.30370932448E+02  0.31598846744E+02  0.30701458432E+02  0.53511309114E+02  0.00000000000E+00 0. -1.
         -3    1    3    3    0  502 -0.61771264726E+03  0.21136701009E+03  0.25439700316E+03  0.70068735022E+03  0.00000000000E+00 0.  1.
         13    1    5    5    0    0  0.60256476590E+02  0.56413149648E+02 -0.81084785724E+00  0.82546616518E+02  0.00000000000E+00 0. -1.
        -13    1    5    5    0    0  0.22348889945E+03  0.21358899610E+03 -0.18616882634E+03  0.36086892265E+03  0.00000000000E+00 0.  1.
          3    1    6    6  503    0  0.90745287928E+02 -0.14878316737E+03  0.20525635629E+02  0.17547774757E+03  0.00000000000E+00 0. -1.
         -3    1    6    6    0  503  0.27359291574E+03 -0.36418483522E+03  0.20100037147E+03  0.49788033409E+03  0.00000000000E+00 0.  1.
<mgrwt>
<rscale>  0 0.18434653E+04</rscale>
<asrwt>0</asrwt>
<pdfrwt beam="1">  1        2 0.11933288E+00 0.18434653E+04</pdfrwt>
<pdfrwt beam="2">  1       -1 0.16850901E+00 0.18434653E+04</pdfrwt>
<totfact> 0.97258840E+00</totfact>
</mgrwt>
</event>
<event>
12    7  0.1544987E-007  0.1426274E+04  0.7818608E-02  0.8935016E-01
         -1   -1    0    0    0  501 -0.00000000000E+00  0.00000000000E+00  0.63716403680E+03  0.63716403680E+03  0.00000000000E+00 0.  1.
          2   -1    0    0  501    0  0.00000000000E+00 -0.00000000000E+00 -0.79816915185E+03  0.79816915185E+03  0.00000000000E+00 0. -1.
         24    2    1    2    0    0  0.29430169699E+03  0.15095981103E+03 -0.30550419941E+03  0.45732824826E+03  0.80087186285E+02 0.  0.
        254    2    1    2    0    0 -0.29430169699E+03 -0.15095981103E+03  0.14449908436E+03  0.97800494039E+03  0.90896167391E+03 0.  0.
         23    2    4    4    0    0  0.30479619286E+03  0.13063638092E+02 -0.46040260796E+02  0.32185415573E+03  0.91646135322E+02 0.  0.
         23    2    4    4    0    0 -0.59909788985E+03 -0.16402344912E+03  0.19053934515E+03  0.65615078466E+03  0.91687712788E+02 0.  0.
          2    1    3    3  502    0  0.17198559294E+03  0.13070464571E+03 -0.18447108755E+03  0.28406395535E+03  0.00000000000E+00 0. -1.
         -1    1    3    3    0  502  0.12231610405E+03  0.20255165322E+02 -0.12103311186E+03  0.17326429291E+03  0.00000000000E+00 0.  1.
         13    1    5    5    0    0  0.78624654230E+01  0.16385510388E+02  0.82849026337E+01  0.19973555639E+02  0.00000000000E+00 0. -1.
        -13    1    5    5    0    0  0.29693372744E+03 -0.33218722959E+01 -0.54325163429E+02  0.30188060009E+03  0.00000000000E+00 0.  1.
          2    1    6    6  503    0 -0.76082933881E+02  0.79626725319E+01  0.12501217672E+02  0.77513208068E+02  0.00000000000E+00 0. -1.
         -2    1    6    6    0  503 -0.52301495597E+03 -0.17198612165E+03  0.17803812748E+03  0.57863757659E+03  0.00000000000E+00 0.  1.
<mgrwt>
<rscale>  0 0.14262744E+04</rscale>
<asrwt>0</asrwt>
<pdfrwt beam="1">  1        2 0.12279525E+00 0.14262744E+04</pdfrwt>
<pdfrwt beam="2">  1       -1 0.98025237E-01 0.14262744E+04</pdfrwt>
<totfact> 0.38241720E+01</totfact>
</mgrwt>
</event>
<event>
12    7  0.1544987E-007  0.1443086E+04  0.7818608E-02  0.8923208E-01
          2   -1    0    0  501    0  0.00000000000E+00  0.00000000000E+00  0.85875175729E+03  0.85875175729E+03  0.00000000000E+00 0. -1.
         -1   -1    0    0    0  501 -0.00000000000E+00 -0.00000000000E+00 -0.60625684226E+03  0.60625684226E+03  0.00000000000E+00 0.  1.
         24    2    1    2    0    0 -0.18628467586E+03 -0.39523357175E+03  0.17775784774E+03  0.47823703590E+03  0.78748037246E+02 0.  0.
        254    2    1    2    0    0  0.18628467586E+03  0.39523357175E+03  0.74737067290E+02  0.98677156365E+03  0.88160134579E+03 0.  0.
         23    2    4    4    0    0 -0.16954689460E+03 -0.16772565369E+03 -0.12635563190E+03  0.28537932181E+03  0.92723067415E+02 0.  0.
         23    2    4    4    0    0  0.35583157046E+03  0.56295922544E+03  0.20109269919E+03  0.70139224183E+03  0.89295056943E+02 0.  0.
          2    1    3    3  502    0 -0.27372791749E+02 -0.14756372596E+02  0.18736219240E+02  0.36305181059E+02  0.00000000000E+00 0. -1.
         -1    1    3    3    0  502 -0.15891188411E+03 -0.38047719916E+03  0.15902162850E+03  0.44193185484E+03  0.00000000000E+00 0.  1.
         13    1    5    5    0    0 -0.15479177895E+03 -0.13905543337E+03 -0.68355986214E+02  0.21901928963E+03  0.00000000000E+00 0. -1.
        -13    1    5    5    0    0 -0.14755115650E+02 -0.28670220320E+02 -0.57999645687E+02  0.66360032179E+02  0.00000000000E+00 0.  1.
          3    1    6    6  503    0  0.35506377844E+03  0.56610091764E+03  0.20187560517E+03  0.69806467872E+03  0.00000000000E+00 0. -1.
         -3    1    6    6    0  503  0.76779201357E+00 -0.31416922026E+01 -0.78290598139E+00  0.33275631095E+01  0.00000000000E+00 0.  1.
<mgrwt>
<rscale>  0 0.14430858E+04</rscale>
<asrwt>0</asrwt>
<pdfrwt beam="1">  1        2 0.13211566E+00 0.14430858E+04</pdfrwt>
<pdfrwt beam="2">  1       -1 0.93270283E-01 0.14430858E+04</pdfrwt>
<totfact> 0.38689218E+01</totfact>
</mgrwt>
</event>
<event>
12    7  0.1544987E-007  0.2855910E+04  0.7818608E-02  0.8286118E-01
         -1   -1    0    0    0  501 -0.00000000000E+00  0.00000000000E+00  0.85828708707E+03  0.85828708707E+03  0.00000000000E+00 0.  1.
          2   -1    0    0  501    0  0.00000000000E+00 -0.00000000000E+00 -0.23757274259E+04  0.23757274259E+04  0.00000000000E+00 0. -1.
         24    2    1    2    0    0  0.10078224702E+04 -0.47580880739E+03  0.36381226482E+02  0.11177328738E+04  0.76831184752E+02 0.  0.
        254    2    1    2    0    0 -0.10078224702E+04  0.47580880739E+03 -0.15538215653E+04  0.21162816392E+04  0.90674492919E+03 0.  0.
         23    2    4    4    0    0 -0.66548143912E+03  0.44120805653E+03 -0.15657671801E+04  0.17600324653E+04  0.92505793808E+02 0.  0.
         23    2    4    4    0    0 -0.34234103111E+03  0.34600750860E+02  0.11945614725E+02  0.35624917382E+03  0.91521487071E+02 0.  0.
          2    1    3    3  502    0  0.15685271575E+03 -0.69664971627E+02 -0.21858260334E+02  0.17301377476E+03  0.00000000000E+00 0. -1.
         -1    1    3    3    0  502  0.85096975447E+03 -0.40614383577E+03  0.58239486816E+02  0.94471909909E+03  0.00000000000E+00 0.  1.
         13    1    5    5    0    0 -0.36217950354E+03  0.23343700691E+03 -0.94430708432E+03  0.10379704709E+04  0.00000000000E+00 0. -1.
        -13    1    5    5    0    0 -0.30330193557E+03  0.20777104962E+03 -0.62146009575E+03  0.72206199443E+03  0.00000000000E+00 0.  1.
          4    1    6    6  503    0 -0.30116219649E+03  0.44098522163E+02 -0.17286444907E+02  0.30486418194E+03  0.00000000000E+00 0. -1.
         -4    1    6    6    0  503 -0.41178834616E+02 -0.94977713022E+01  0.29232059632E+02  0.51384991878E+02  0.00000000000E+00 0.  1.
<mgrwt>
<rscale>  0 0.28559105E+04</rscale>
<asrwt>0</asrwt>
<pdfrwt beam="1">  1        2 0.36549653E+00 0.28559105E+04</pdfrwt>
<pdfrwt beam="2">  1       -1 0.13204417E+00 0.28559105E+04</pdfrwt>
<totfact> 0.19701635E+00</totfact>
</mgrwt>
</event>
<event>
12    7  0.1544987E-007  0.2559725E+04  0.7818608E-02  0.8382012E-01
         -1   -1    0    0    0  501 -0.00000000000E+00  0.00000000000E+00  0.10177413469E+04  0.10177413469E+04  0.00000000000E+00 0.  1.
          2   -1    0    0  501    0  0.00000000000E+00 -0.00000000000E+00 -0.16094933410E+04  0.16094933410E+04  0.00000000000E+00 0. -1.
         24    2    1    2    0    0 -0.44745761586E+03 -0.52253357512E+03 -0.11739409212E+04  0.13630378284E+04  0.80468504243E+02 0.  0.
        254    2    1    2    0    0  0.44745761586E+03  0.52253357512E+03  0.58218892712E+03  0.12641968595E+04  0.88656082569E+03 0.  0.
         23    2    4    4    0    0  0.22808304263E+03  0.60038100229E+03  0.72816127427E+03  0.97503670496E+03  0.89434402906E+02 0.  0.
         23    2    4    4    0    0  0.21937457323E+03 -0.77847427170E+02 -0.14597234714E+03  0.28916015457E+03  0.90112394049E+02 0.  0.
          2    1    3    3  502    0 -0.30039905706E+03 -0.29091534968E+03 -0.71976053899E+03  0.83242210906E+03  0.00000000000E+00 0. -1.
         -1    1    3    3    0  502 -0.14705855880E+03 -0.23161822544E+03 -0.45418038221E+03  0.53061571939E+03  0.00000000000E+00 0.  1.
         13    1    5    5    0    0  0.83868759313E+02  0.13423524776E+03  0.21430061965E+03  0.26641664008E+03  0.00000000000E+00 0. -1.
        -13    1    5    5    0    0  0.14421428332E+03  0.46614575453E+03  0.51386065462E+03  0.70862006488E+03  0.00000000000E+00 0.  1.
          3    1    6    6  503    0  0.12709265935E+03 -0.53889531964E+02 -0.13517954336E+03  0.19321007908E+03  0.00000000000E+00 0. -1.
         -3    1    6    6    0  503  0.92281913878E+02 -0.23957895207E+02 -0.10792803784E+02  0.95950075483E+02  0.00000000000E+00 0.  1.
<mgrwt>
<rscale>  0 0.25597249E+04</rscale>
<asrwt>0</asrwt>
<pdfrwt beam="1">  1        2 0.24761436E+00 0.25597249E+04</pdfrwt>
<pdfrwt beam="2">  1       -1 0.15657559E+00 0.25597249E+04</pdfrwt>
<totfact> 0.34552486E+00</totfact>
</mgrwt>
</event>
<event>
12    7  0.1544987E-007  0.2372246E+04  0.7818608E-02  0.8449968E-01
         -1   -1    0    0    0  501 -0.00000000000E+00  0.00000000000E+00  0.14137279680E+04  0.14137279680E+04  0.00000000000E+00 0.  1.
          2   -1    0    0  501    0  0.00000000000E+00 -0.00000000000E+00 -0.99516193385E+03  0.99516193385E+03  0.00000000000E+00 0. -1.
         24    2    1    2    0    0  0.70634260081E+03 -0.68104940034E+03 -0.94628123275E+00  0.98450431917E+03  0.80620739266E+02 0.  0.
        254    2    1    2    0    0 -0.70634260081E+03  0.68104940034E+03  0.41951231535E+03  0.14243855827E+04  0.94346995178E+03 0.  0.
         23    2    4    4    0    0 -0.78520654414E+03  0.13679351079E+03  0.27201304835E+03  0.84714404363E+03  0.91652335679E+02 0.  0.
         23    2    4    4    0    0  0.78863943326E+02  0.54425588955E+03  0.14749926700E+03  0.57724153902E+03  0.94961917331E+02 0.  0.
          4    1    3    3  502    0  0.65728888806E+03 -0.64946125237E+03 -0.16304500040E+02  0.92417229856E+03  0.00000000000E+00 0. -1.
         -3    1    3    3    0  502  0.49053712748E+02 -0.31588147966E+02  0.15358218807E+02  0.60332020613E+02  0.00000000000E+00 0.  1.
         13    1    5    5    0    0 -0.19643703513E+03 -0.56886742052E+01  0.65927536364E+02  0.20728316341E+03  0.00000000000E+00 0.  1.
        -13    1    5    5    0    0 -0.58876950901E+03  0.14248218500E+03  0.20608551198E+03  0.63986088021E+03  0.00000000000E+00 0. -1.
          2    1    6    6  503    0  0.86967356806E+02  0.27289552567E+03  0.68410476797E+02  0.29447458704E+03  0.00000000000E+00 0. -1.
         -2    1    6    6    0  503 -0.81034134803E+01  0.27136036388E+03  0.79088790207E+02  0.28276695198E+03  0.00000000000E+00 0.  1.
<mgrwt>
<rscale>  0 0.23722464E+04</rscale>
<asrwt>0</asrwt>
<pdfrwt beam="1">  1        2 0.15310184E+00 0.23722464E+04</pdfrwt>
<pdfrwt beam="2">  1       -1 0.21749661E+00 0.23722464E+04</pdfrwt>
<totfact> 0.29824188E+00</totfact>
</mgrwt>
</event>
<event>
12    7  0.1544987E-007  0.2478118E+04  0.7818608E-02  0.8410823E-01
          2   -1    0    0  501    0  0.00000000000E+00  0.00000000000E+00  0.18543155757E+04  0.18543155757E+04  0.00000000000E+00 0. -1.
         -1   -1    0    0    0  501 -0.00000000000E+00 -0.00000000000E+00 -0.82794252843E+03  0.82794252843E+03  0.00000000000E+00 0.  1.
         24    2    1    2    0    0  0.19033592645E+03  0.97873690971E+03  0.34064028295E+02  0.10008738911E+04  0.80215238908E+02 0.  0.
        254    2    1    2    0    0 -0.19033592645E+03 -0.97873690971E+03  0.99230901902E+03  0.16813842131E+04  0.92098967387E+03 0.  0.
         23    2    4    4    0    0 -0.53135267293E+03 -0.61473025500E+03  0.78319906491E+03  0.11321920188E+04  0.90714071413E+02 0.  0.
         23    2    4    4    0    0  0.34101674647E+03 -0.36400665471E+03  0.20910995411E+03  0.54919219424E+03  0.95351073731E+02 0.  0.
          4    1    3    3  502    0  0.18146690570E+03  0.85829419186E+03  0.79008355187E+01  0.87730358534E+03  0.00000000000E+00 0. -1.
         -3    1    3    3    0  502  0.88690207547E+01  0.12044271785E+03  0.26163192776E+02  0.12357030577E+03  0.00000000000E+00 0.  1.
         13    1    5    5    0    0 -0.52747426254E+03 -0.61678807536E+03  0.78312068587E+03  0.11278007963E+04  0.00000000000E+00 0.  1.
        -13    1    5    5    0    0 -0.38784103873E+01  0.20578203554E+01  0.78379044275E-01  0.43912224975E+01  0.00000000000E+00 0. -1.
          4    1    6    6  503    0  0.48724640145E+02 -0.97895295976E+02  0.71444363018E+02  0.13062111827E+03  0.00000000000E+00 0. -1.
         -4    1    6    6    0  503  0.29229210633E+03 -0.26611135873E+03  0.13766559109E+03  0.41857107597E+03  0.00000000000E+00 0.  1.
<mgrwt>
<rscale>  0 0.24781176E+04</rscale>
<asrwt>0</asrwt>
<pdfrwt beam="1">  1        2 0.28527932E+00 0.24781176E+04</pdfrwt>
<pdfrwt beam="2">  1       -1 0.12737577E+00 0.24781176E+04</pdfrwt>
<totfact> 0.43706011E+00</totfact>
</mgrwt>
</event>
<event>
12    7  0.1544987E-007  0.3303614E+04  0.7818608E-02  0.8161976E-01
         -1   -1    0    0    0  501 -0.00000000000E+00  0.00000000000E+00  0.82683029827E+03  0.82683029827E+03  0.00000000000E+00 0.  1.
          2   -1    0    0  501    0  0.00000000000E+00 -0.00000000000E+00 -0.32999116435E+04  0.32999116435E+04  0.00000000000E+00 0. -1.
         24    2    1    2    0    0 -0.12225690187E+04 -0.44139725183E+03 -0.14528082099E+03  0.13104059316E+04  0.80936080310E+02 0.  0.
        254    2    1    2    0    0  0.12225690187E+04  0.44139725183E+03 -0.23278005242E+04  0.28163360102E+04  0.90751677805E+03 0.  0.
         23    2    4    4    0    0  0.11795256527E+04  0.16561208308E+03 -0.21841533501E+04  0.24894651356E+04  0.90568632912E+02 0.  0.
         23    2    4    4    0    0  0.43043365986E+02  0.27578516875E+03 -0.14364717414E+03  0.32687087460E+03  0.91103607878E+02 0.  0.
          4    1    3    3  502    0 -0.47964689769E+02 -0.34295188287E+02 -0.16891833580E+01  0.58988344143E+02  0.00000000000E+00 0. -1.
         -3    1    3    3    0  502 -0.11746043289E+04 -0.40710206354E+03 -0.14359163763E+03  0.12514175874E+04  0.00000000000E+00 0.  1.
         13    1    5    5    0    0  0.42701242193E+03  0.87287044467E+02 -0.87065164310E+03  0.97364927990E+03  0.00000000000E+00 0. -1.
        -13    1    5    5    0    0  0.75251323079E+03  0.78325038611E+02 -0.13135017070E+04  0.15158158557E+04  0.00000000000E+00 0.  1.
          4    1    6    6  503    0  0.37833202395E+02  0.11519337000E+03 -0.17314639019E+02  0.12247718326E+03  0.00000000000E+00 0. -1.
         -4    1    6    6    0  503  0.52101635905E+01  0.16059179875E+03 -0.12633253512E+03  0.20439369134E+03  0.00000000000E+00 0.  1.
<mgrwt>
<rscale>  0 0.33036143E+04</rscale>
<asrwt>0</asrwt>
<pdfrwt beam="1">  1        2 0.50767870E+00 0.33036143E+04</pdfrwt>
<pdfrwt beam="2">  1       -1 0.12720467E+00 0.33036143E+04</pdfrwt>
<totfact> 0.56515641E-01</totfact>
</mgrwt>
</event>
<event>
12    7  0.1544987E-007  0.1209368E+04  0.7818608E-02  0.9104696E-01
         -1   -1    0    0    0  501 -0.00000000000E+00  0.00000000000E+00  0.63858299250E+03  0.63858299250E+03  0.00000000000E+00 0.  1.
          2   -1    0    0  501    0  0.00000000000E+00 -0.00000000000E+00 -0.57258433523E+03  0.57258433523E+03  0.00000000000E+00 0. -1.
         24    2    1    2    0    0 -0.15352122072E+02  0.22578655416E+03 -0.17541854985E+03  0.29755893673E+03  0.80959233594E+02 0.  0.
        254    2    1    2    0    0  0.15352122072E+02 -0.22578655416E+03  0.24141720712E+03  0.91360839101E+03  0.85157663691E+03 0.  0.
         23    2    4    4    0    0 -0.29833133825E+03 -0.32432330795E+03  0.33394221975E+03  0.56012890413E+03  0.89664862929E+02 0.  0.
         23    2    4    4    0    0  0.31368346032E+03  0.98536753794E+02 -0.92525012635E+02  0.35347948688E+03  0.90994860021E+02 0.  0.
          2    1    3    3  502    0  0.15074866893E+02  0.12629168540E+03 -0.13624432667E+03  0.18638497247E+03  0.00000000000E+00 0. -1.
         -1    1    3    3    0  502 -0.30426988964E+02  0.99494868765E+02 -0.39174223180E+02  0.11117396426E+03  0.00000000000E+00 0.  1.
         13    1    5    5    0    0 -0.17340538783E+02 -0.19906807140E+02  0.54082652091E+02  0.60182294015E+02  0.00000000000E+00 0.  1.
        -13    1    5    5    0    0 -0.28099079947E+03 -0.30441650081E+03  0.27985956766E+03  0.49994661012E+03  0.00000000000E+00 0. -1.
          4    1    6    6  503    0  0.15795654260E+03  0.76577413249E+02 -0.87481600789E+02  0.19613107874E+03  0.00000000000E+00 0. -1.
         -4    1    6    6    0  503  0.15572691772E+03  0.21959340545E+02 -0.50434118462E+01  0.15734840814E+03  0.00000000000E+00 0.  1.
<mgrwt>
<rscale>  0 0.12093678E+04</rscale>
<asrwt>0</asrwt>
<pdfrwt beam="1">  1        2 0.88089898E-01 0.12093678E+04</pdfrwt>
<pdfrwt beam="2">  1       -1 0.98243537E-01 0.12093678E+04</pdfrwt>
<totfact> 0.58732540E+01</totfact>
</mgrwt>
</event>
<event>
12    7  0.1544987E-007  0.2296782E+04  0.7818608E-02  0.8479191E-01
          2   -1    0    0  501    0  0.00000000000E+00  0.00000000000E+00  0.11411837773E+04  0.11411837773E+04  0.00000000000E+00 0. -1.
         -1   -1    0    0    0  501 -0.00000000000E+00 -0.00000000000E+00 -0.11556437761E+04  0.11556437761E+04  0.00000000000E+00 0.  1.
         24    2    1    2    0    0 -0.63613029093E+03  0.40868259147E+03  0.59348708587E+03  0.96538361277E+03  0.89751830605E+02 0.  0.
        254    2    1    2    0    0  0.63613029093E+03 -0.40868259147E+03 -0.60794708463E+03  0.13314439406E+04  0.91184434069E+03 0.  0.
         23    2    4    4    0    0  0.52855904176E+03 -0.61802283312E+03 -0.18516226045E+03  0.83888111289E+03  0.90053184152E+02 0.  0.
         23    2    4    4    0    0  0.10757124918E+03  0.20934024166E+03 -0.42278482418E+03  0.49256282772E+03  0.92066395955E+02 0.  0.
          2    1    3    3  502    0 -0.17383131717E+03  0.97357325861E+02  0.20587853980E+03  0.28649912544E+03  0.00000000000E+00 0. -1.
         -1    1    3    3    0  502 -0.46229897377E+03  0.31132526561E+03  0.38760854606E+03  0.67888448732E+03  0.00000000000E+00 0.  1.
         13    1    5    5    0    0  0.15102646965E+03 -0.14140279546E+03 -0.14707722869E+02  0.20741278217E+03  0.00000000000E+00 0.  1.
        -13    1    5    5    0    0  0.37753257211E+03 -0.47662003767E+03 -0.17045453758E+03  0.63146833071E+03  0.00000000000E+00 0. -1.
          1    1    6    6  503    0  0.62975533320E+02  0.40097930172E+02 -0.93446080094E+02  0.11960740648E+03  0.00000000000E+00 0. -1.
         -1    1    6    6    0  503  0.44595715855E+02  0.16924231148E+03 -0.32933874409E+03  0.37295542123E+03  0.00000000000E+00 0.  1.
<mgrwt>
<rscale>  0 0.22967820E+04</rscale>
<asrwt>0</asrwt>
<pdfrwt beam="1">  1        2 0.17556674E+00 0.22967820E+04</pdfrwt>
<pdfrwt beam="2">  1       -1 0.17779135E+00 0.22967820E+04</pdfrwt>
<totfact> 0.45876639E+00</totfact>
</mgrwt>
</event>
<event>
12    7  0.3324506E-007  0.1439088E+04  0.7818608E-02  0.8926001E-01
         -1   -1    0    0    0  501 -0.00000000000E+00  0.00000000000E+00  0.19000397382E+03  0.19000397382E+03  0.00000000000E+00 0.  1.
          2   -1    0    0  501    0  0.00000000000E+00 -0.00000000000E+00 -0.27249097279E+04  0.27249097279E+04  0.00000000000E+00 0. -1.
         24    2    1    2    0    0 -0.56232536851E+01  0.29069950890E+00  0.10027181606E+03  0.12973148602E+03  0.82122566218E+02 0.  0.
        254    2    1    2    0    0  0.56232536851E+01 -0.29069950890E+00 -0.26351775702E+04  0.27851822157E+04  0.90169143447E+03 0.  0.
         23    2    4    4    0    0 -0.64922410571E+02  0.99315624460E+02 -0.26282696099E+04  0.26325374003E+04  0.91506879631E+02 0.  0.
         23    2    4    4    0    0  0.70545664256E+02 -0.99606323969E+02 -0.69079603023E+01  0.15264481546E+03  0.91403551629E+02 0.  0.
          2    1    3    3  502    0 -0.50123853826E+01 -0.20930989696E+02 -0.52017198138E+01  0.22142453023E+02  0.00000000000E+00 0. -1.
         -1    1    3    3    0  502 -0.61086830255E+00  0.21221689204E+02  0.10547353587E+03  0.10758903300E+03  0.00000000000E+00 0.  1.
         13    1    5    5    0    0 -0.79881766630E+02  0.10179606450E+03 -0.25048118457E+04  0.25081518928E+04  0.00000000000E+00 0. -1.
        -13    1    5    5    0    0  0.14959356060E+02 -0.24804400354E+01 -0.12345776421E+03  0.12438550744E+03  0.00000000000E+00 0.  1.
          4    1    6    6  503    0  0.40933407771E+02 -0.10561239179E+03  0.16447402833E+02  0.11445539844E+03  0.00000000000E+00 0. -1.
         -4    1    6    6    0  503  0.29612256485E+02  0.60060678253E+01 -0.23355363135E+02  0.38189417016E+02  0.00000000000E+00 0.  1.
<mgrwt>
<rscale>  0 0.14390882E+04</rscale>
<asrwt>0</asrwt>
<pdfrwt beam="1">  1        2 0.41921688E+00 0.14390882E+04</pdfrwt>
<pdfrwt beam="2">  1       -1 0.29231380E-01 0.14390882E+04</pdfrwt>
<totfact> 0.30451270E+01</totfact>
</mgrwt>
</event>
<event>
12    7  0.1544987E-007  0.2843914E+04  0.7818608E-02  0.8289763E-01
          2   -1    0    0  501    0  0.00000000000E+00  0.00000000000E+00  0.27893133816E+04  0.27893133816E+04  0.00000000000E+00 0. -1.
         -1   -1    0    0    0  501 -0.00000000000E+00 -0.00000000000E+00 -0.72489593342E+03  0.72489593342E+03  0.00000000000E+00 0.  1.
         24    2    1    2    0    0 -0.67920719251E+03  0.21175310557E+03  0.22436795549E+04  0.23551596482E+04  0.80729395972E+02 0.  0.
        254    2    1    2    0    0  0.67920719251E+03 -0.21175310557E+03 -0.17926210677E+03  0.11590496668E+04  0.89727333575E+03 0.  0.
         23    2    4    4    0    0 -0.27142466810E+02  0.23917778190E+03 -0.18339403006E+03  0.31611484123E+03  0.91392000320E+02 0.  0.
         23    2    4    4    0    0  0.70634965932E+03 -0.45093088747E+03  0.41319232998E+01  0.84293482554E+03  0.90849000193E+02 0.  0.
          2    1    3    3  502    0 -0.41757846710E+03  0.12774235502E+03  0.12447777099E+04  0.13191517853E+04  0.00000000000E+00 0. -1.
         -1    1    3    3    0  502 -0.26162872541E+03  0.84010750543E+02  0.99890184498E+03  0.10360078629E+04  0.00000000000E+00 0.  1.
         13    1    5    5    0    0 -0.77392164389E-02  0.20074585919E+03 -0.10992018876E+03  0.22886971826E+03  0.00000000000E+00 0. -1.
        -13    1    5    5    0    0 -0.27134727593E+02  0.38431922712E+02 -0.73473841308E+02  0.87245122967E+02  0.00000000000E+00 0.  1.
          4    1    6    6  503    0  0.65418858829E+03 -0.44184317415E+03  0.11310107844E+02  0.78950365301E+03  0.00000000000E+00 0. -1.
         -4    1    6    6    0  503  0.52161071032E+02 -0.90877133193E+01 -0.71781845444E+01  0.53431172530E+02  0.00000000000E+00 0.  1.
<mgrwt>
<rscale>  0 0.28439142E+04</rscale>
<asrwt>0</asrwt>
<pdfrwt beam="1">  1        2 0.42912513E+00 0.28439142E+04</pdfrwt>
<pdfrwt beam="2">  1       -1 0.11152245E+00 0.28439142E+04</pdfrwt>
<totfact> 0.17078472E+00</totfact>
</mgrwt>
</event>
<event>
12    7  0.1544987E-007  0.2545740E+04  0.7818608E-02  0.8386869E-01
          2   -1    0    0  501    0  0.00000000000E+00  0.00000000000E+00  0.11414590242E+04  0.11414590242E+04  0.00000000000E+00 0. -1.
         -1   -1    0    0    0  501 -0.00000000000E+00 -0.00000000000E+00 -0.14194099302E+04  0.14194099302E+04  0.00000000000E+00 0.  1.
         24    2    1    2    0    0  0.13726742223E+03  0.10988429929E+04 -0.10455174369E+02  0.11101373066E+04  0.77441982880E+02 0.  0.
        254    2    1    2    0    0 -0.13726742223E+03 -0.10988429929E+04 -0.26749573170E+03  0.14507316478E+04  0.89820380714E+03 0.  0.
         23    2    4    4    0    0 -0.32985943546E+03 -0.95494591083E+03  0.80038092891E+02  0.10175864506E+04  0.91362729114E+02 0.  0.
         23    2    4    4    0    0  0.19259201324E+03 -0.14389708204E+03 -0.34753382459E+03  0.43314519721E+03  0.95062867875E+02 0.  0.
          2    1    3    3  502    0  0.95480899540E+02  0.96653360188E+03 -0.14041774031E+02  0.97133978461E+03  0.00000000000E+00 0. -1.
         -1    1    3    3    0  502  0.41786522685E+02  0.13230939098E+03  0.35865996618E+01  0.13879752201E+03  0.00000000000E+00 0.  1.
         13    1    5    5    0    0 -0.15839506670E+03 -0.44908259636E+03  0.83386002263E+02  0.48344327577E+03  0.00000000000E+00 0. -1.
        -13    1    5    5    0    0 -0.17146436876E+03 -0.50586331446E+03 -0.33479093721E+01  0.53414317479E+03  0.00000000000E+00 0.  1.
          3    1    6    6  503    0  0.12820800514E+02 -0.64087382058E+01 -0.86419504325E+02  0.87600088921E+02  0.00000000000E+00 0. -1.
         -3    1    6    6    0  503  0.17977121272E+03 -0.13748834383E+03 -0.26111432026E+03  0.34554510828E+03  0.00000000000E+00 0.  1.
<mgrwt>
<rscale>  0 0.25457402E+04</rscale>
<asrwt>0</asrwt>
<pdfrwt beam="1">  1        2 0.17560908E+00 0.25457402E+04</pdfrwt>
<pdfrwt beam="2">  1       -1 0.21837076E+00 0.25457402E+04</pdfrwt>
<totfact> 0.23482798E+00</totfact>
</mgrwt>
</event>
<event>
12    7  0.1544987E-007  0.1673461E+04  0.7818608E-02  0.8776647E-01
          2   -1    0    0  501    0  0.00000000000E+00  0.00000000000E+00  0.11332495734E+04  0.11332495734E+04  0.00000000000E+00 0. -1.
         -1   -1    0    0    0  501 -0.00000000000E+00 -0.00000000000E+00 -0.61779667661E+03  0.61779667661E+03  0.00000000000E+00 0.  1.
         24    2    1    2    0    0  0.25206677834E+03  0.16687763223E+03 -0.34637640434E+03  0.46648517290E+03  0.79031627672E+02 0.  0.
        254    2    1    2    0    0 -0.25206677834E+03 -0.16687763223E+03  0.86182930110E+03  0.12845610771E+04  0.90330593468E+03 0.  0.
         23    2    4    4    0    0 -0.48475253053E+03  0.17723882969E+03  0.41956288350E+03  0.67100915230E+03  0.88440096391E+02 0.  0.
         23    2    4    4    0    0  0.23268575220E+03 -0.34411646192E+03  0.44226641760E+03  0.61355192478E+03  0.91036155574E+02 0.  0.
          2    1    3    3  502    0  0.10161421384E+03  0.11426843710E+03 -0.17709717550E+03  0.23397891730E+03  0.00000000000E+00 0. -1.
         -1    1    3    3    0  502  0.15045256450E+03  0.52609195132E+02 -0.16927922884E+03  0.23250625560E+03  0.00000000000E+00 0.  1.
         13    1    5    5    0    0 -0.30557303717E+03  0.14166704896E+03  0.31141801600E+03  0.45872171792E+03  0.00000000000E+00 0.  1.
        -13    1    5    5    0    0 -0.17917949337E+03  0.35571780735E+02  0.10814486749E+03  0.21228743437E+03  0.00000000000E+00 0. -1.
          2    1    6    6  503    0  0.10730035163E+03 -0.15755597147E+03  0.26923673514E+03  0.32988735828E+03  0.00000000000E+00 0. -1.
         -2    1    6    6    0  503  0.12538540057E+03 -0.18656049046E+03  0.17302968246E+03  0.28366456650E+03  0.00000000000E+00 0.  1.
<mgrwt>
<rscale>  0 0.16734609E+04</rscale>
<asrwt>0</asrwt>
<pdfrwt beam="1">  1        2 0.17434609E+00 0.16734609E+04</pdfrwt>
<pdfrwt beam="2">  1       -1 0.95045643E-01 0.16734609E+04</pdfrwt>
<totfact> 0.24180148E+01</totfact>
</mgrwt>
</event>
<event>
12    7  0.1544987E-007  0.1480870E+04  0.7818608E-02  0.8897275E-01
         -1   -1    0    0    0  501 -0.00000000000E+00  0.00000000000E+00  0.37920974790E+03  0.37920974790E+03  0.00000000000E+00 0.  1.
          2   -1    0    0  501    0  0.00000000000E+00 -0.00000000000E+00 -0.14457538571E+04  0.14457538571E+04  0.00000000000E+00 0. -1.
         24    2    1    2    0    0  0.25062639866E+03 -0.29601433896E+03 -0.64961958872E+03  0.76087853364E+03  0.80575755277E+02 0.  0.
        254    2    1    2    0    0 -0.25062639866E+03  0.29601433896E+03 -0.41692452050E+03  0.10640850714E+04  0.89889537921E+03 0.  0.
         23    2    4    4    0    0  0.79679113411E+02  0.34119825528E+02 -0.58688588374E+03  0.60036641253E+03  0.92151316631E+02 0.  0.
         23    2    4    4    0    0 -0.33030551207E+03  0.26189451343E+03  0.16996136324E+03  0.46371865885E+03  0.91965548472E+02 0.  0.
          4    1    3    3  502    0  0.24145812367E+03 -0.27476220595E+03 -0.56434627457E+03  0.67251989779E+03  0.00000000000E+00 0. -1.
         -3    1    3    3    0  502  0.91682749882E+01 -0.21252133012E+02 -0.85273314151E+02  0.88358635855E+02  0.00000000000E+00 0.  1.
         13    1    5    5    0    0  0.33877559102E+02  0.63535208710E+02 -0.34428883173E+03  0.35173741827E+03  0.00000000000E+00 0.  1.
        -13    1    5    5    0    0  0.45801554309E+02 -0.29415383182E+02 -0.24259705201E+03  0.24862899426E+03  0.00000000000E+00 0. -1.
          1    1    6    6  503    0 -0.19461890518E+02  0.34709239554E+02 -0.62749952935E+01  0.40284886233E+02  0.00000000000E+00 0. -1.
         -1    1    6    6    0  503 -0.31084362155E+03  0.22718527388E+03  0.17623635853E+03  0.42343377262E+03  0.00000000000E+00 0.  1.
<mgrwt>
<rscale>  0 0.14808700E+04</rscale>
<asrwt>0</asrwt>
<pdfrwt beam="1">  1        2 0.22242366E+00 0.14808700E+04</pdfrwt>
<pdfrwt beam="2">  1       -1 0.58339963E-01 0.14808700E+04</pdfrwt>
<totfact> 0.44726658E+01</totfact>
</mgrwt>
</event>
<event>
12    7  0.1544987E-007  0.1461791E+04  0.7818608E-02  0.8910267E-01
         -1   -1    0    0    0  501 -0.00000000000E+00  0.00000000000E+00  0.88475521010E+03  0.88475521010E+03  0.00000000000E+00 0.  1.
          2   -1    0    0  501    0  0.00000000000E+00 -0.00000000000E+00 -0.60379204717E+03  0.60379204717E+03  0.00000000000E+00 0. -1.
         24    2    1    2    0    0 -0.27266449362E+02 -0.18562751995E+03 -0.33477022918E+03  0.39215983210E+03  0.80729128232E+02 0.  0.
        254    2    1    2    0    0  0.27266449362E+02  0.18562751995E+03  0.61573339211E+03  0.10963874252E+04  0.88754534559E+03 0.  0.
         23    2    4    4    0    0  0.10615427054E+02  0.36728522979E+03  0.75823639071E+03  0.84754411619E+03  0.91637750843E+02 0.  0.
         23    2    4    4    0    0  0.16651022308E+02 -0.18165770983E+03 -0.14250299860E+03  0.24884330898E+03  0.91318715114E+02 0.  0.
          4    1    3    3  502    0 -0.29238074146E+02 -0.18953998841E+03 -0.29315314620E+03  0.35031277355E+03  0.00000000000E+00 0. -1.
         -3    1    3    3    0  502  0.19716247841E+01  0.39124684576E+01 -0.41617082975E+02  0.41847058548E+02  0.00000000000E+00 0.  1.
         13    1    5    5    0    0  0.26784526573E+02  0.35961792531E+03  0.71642999253E+03  0.80206882327E+03  0.00000000000E+00 0.  1.
        -13    1    5    5    0    0 -0.16169099519E+02  0.76673044764E+01  0.41806398172E+02  0.45475292911E+02  0.00000000000E+00 0. -1.
          4    1    6    6  503    0 -0.29745580161E+02 -0.10123064324E+03 -0.46554825730E+02  0.11532473485E+03  0.00000000000E+00 0.  1.
         -4    1    6    6    0  503  0.46396602469E+02 -0.80427066598E+02 -0.95948172866E+02  0.13351857413E+03  0.00000000000E+00 0. -1.
<mgrwt>
<rscale>  0 0.14617909E+04</rscale>
<asrwt>0</asrwt>
<pdfrwt beam="1">  1        2 0.92891085E-01 0.14617909E+04</pdfrwt>
<pdfrwt beam="2">  1       -1 0.13611619E+00 0.14617909E+04</pdfrwt>
<totfact> 0.24581445E+01</totfact>
</mgrwt>
</event>
<event>
12    7  0.1544987E-007  0.4424684E+04  0.7818608E-02  0.7923957E-01
          2   -1    0    0  501    0  0.00000000000E+00  0.00000000000E+00  0.21807305832E+04  0.21807305832E+04  0.00000000000E+00 0. -1.
         -1   -1    0    0    0  501 -0.00000000000E+00 -0.00000000000E+00 -0.22444113501E+04  0.22444113501E+04  0.00000000000E+00 0.  1.
         24    2    1    2    0    0  0.17951862137E+04 -0.96404391843E+03 -0.61388181402E+03  0.21297262703E+04  0.82515974033E+02 0.  0.
        254    2    1    2    0    0 -0.17951862137E+04  0.96404391843E+03  0.55020104719E+03  0.22954156630E+04  0.90229576920E+03 0.  0.
         23    2    4    4    0    0 -0.34238860749E+02 -0.10189375285E+03 -0.49303790243E+02  0.14946191828E+03  0.91396744079E+02 0.  0.
         23    2    4    4    0    0 -0.17609473530E+04  0.10659376713E+04  0.59950483744E+03  0.21459537448E+04  0.92480946413E+02 0.  0.
          4    1    3    3  502    0  0.75016811479E+03 -0.41603833785E+03 -0.29926558941E+03  0.90851526790E+03  0.00000000000E+00 0. -1.
         -3    1    3    3    0  502  0.10450180989E+04 -0.54800558058E+03 -0.31461622461E+03  0.12212110024E+04  0.00000000000E+00 0.  1.
         13    1    5    5    0    0 -0.91174382473E+01  0.15663560686E+02  0.29896084510E+01  0.18368793435E+02  0.00000000000E+00 0. -1.
        -13    1    5    5    0    0 -0.25121422502E+02 -0.11755731354E+03 -0.52293398694E+02  0.13109312485E+03  0.00000000000E+00 0.  1.
          1    1    6    6  503    0 -0.20766402296E+03  0.99718485582E+02  0.47625030598E+02  0.23523661777E+03  0.00000000000E+00 0. -1.
         -1    1    6    6    0  503 -0.15532833300E+04  0.96621918570E+03  0.55187980684E+03  0.19107171270E+04  0.00000000000E+00 0.  1.
<mgrwt>
<rscale>  0 0.44246837E+04</rscale>
<asrwt>0</asrwt>
<pdfrwt beam="1">  1        2 0.33549701E+00 0.44246837E+04</pdfrwt>
<pdfrwt beam="2">  1       -1 0.34529405E+00 0.44246837E+04</pdfrwt>
<totfact> 0.76650836E-02</totfact>
</mgrwt>
</event>
<event>
12    7  0.1544987E-007  0.1769320E+04  0.7818608E-02  0.8722787E-01
         -1   -1    0    0    0  501 -0.00000000000E+00  0.00000000000E+00  0.21140663331E+03  0.21140663331E+03  0.00000000000E+00 0.  1.
          2   -1    0    0  501    0  0.00000000000E+00 -0.00000000000E+00 -0.37019813161E+04  0.37019813161E+04  0.00000000000E+00 0. -1.
         24    2    1    2    0    0 -0.20280576989E+03  0.59707367071E+03 -0.16606766135E+04  0.17780090036E+04  0.76433328587E+02 0.  0.
        254    2    1    2    0    0  0.20280576989E+03 -0.59707367071E+03 -0.18298980693E+04  0.21353789458E+04  0.90204719921E+03 0.  0.
         23    2    4    4    0    0 -0.69965655421E+01  0.22743399326E+03 -0.39564465340E+03  0.46541611571E+03  0.91116934625E+02 0.  0.
         23    2    4    4    0    0  0.20980233544E+03 -0.82450766397E+03 -0.14342534159E+04  0.16699628301E+04  0.88674037951E+02 0.  0.
          4    1    3    3  502    0 -0.10653787643E+03  0.34433529524E+03 -0.84494768276E+03  0.91861509963E+03  0.00000000000E+00 0. -1.
         -3    1    3    3    0  502 -0.96267893464E+02  0.25273837547E+03 -0.81572893076E+03  0.85939390399E+03  0.00000000000E+00 0.  1.
         13    1    5    5    0    0 -0.17103702820E+02  0.50458765505E+02 -0.17186895722E+03  0.17993766176E+03  0.00000000000E+00 0. -1.
        -13    1    5    5    0    0  0.10107137278E+02  0.17697522775E+03 -0.22377569618E+03  0.28547845394E+03  0.00000000000E+00 0.  1.
          1    1    6    6  503    0  0.12611587942E+03 -0.45539326766E+03 -0.87939718411E+03  0.99831240135E+03  0.00000000000E+00 0. -1.
         -1    1    6    6    0  503  0.83686456021E+02 -0.36911439631E+03 -0.55485623174E+03  0.67165042871E+03  0.00000000000E+00 0.  1.
<mgrwt>
<rscale>  0 0.17693201E+04</rscale>
<asrwt>0</asrwt>
<pdfrwt beam="1">  1        2 0.56953558E+00 0.17693201E+04</pdfrwt>
<pdfrwt beam="2">  1       -1 0.32524098E-01 0.17693201E+04</pdfrwt>
<totfact> 0.56068743E+00</totfact>
</mgrwt>
</event>
<event>
12    7  0.1544987E-007  0.1309842E+04  0.7818608E-02  0.9021797E-01
         -1   -1    0    0    0  501 -0.00000000000E+00  0.00000000000E+00  0.85522227932E+03  0.85522227932E+03  0.00000000000E+00 0.  1.
          2   -1    0    0  501    0  0.00000000000E+00 -0.00000000000E+00 -0.50153220681E+03  0.50153220681E+03  0.00000000000E+00 0. -1.
         24    2    1    2    0    0  0.27270600486E+03 -0.36336189425E+02  0.21835282469E+03  0.36013927314E+03  0.79583014863E+02 0.  0.
        254    2    1    2    0    0 -0.27270600486E+03  0.36336189425E+02  0.13533724782E+03  0.99661521299E+03  0.94828098597E+03 0.  0.
         23    2    4    4    0    0  0.19479404568E+03  0.16347489905E+03 -0.25238410974E+03  0.37000672478E+03  0.92403867242E+02 0.  0.
         23    2    4    4    0    0 -0.46750005054E+03 -0.12713870963E+03  0.38772135756E+03  0.62660848821E+03  0.87119444686E+02 0.  0.
          2    1    3    3  502    0  0.59934679425E+02 -0.52134365295E+01  0.10502806894E+02  0.61070898723E+02  0.00000000000E+00 0. -1.
         -1    1    3    3    0  502  0.21277132544E+03 -0.31122752895E+02  0.20785001779E+03  0.29906837441E+03  0.00000000000E+00 0.  1.
         13    1    5    5    0    0  0.20318260312E+03  0.16238997222E+03 -0.25095084932E+03  0.36142772731E+03  0.00000000000E+00 0. -1.
        -13    1    5    5    0    0 -0.83885574456E+01  0.10849268337E+01 -0.14332604179E+01  0.85789974751E+01  0.00000000000E+00 0.  1.
          1    1    6    6  503    0 -0.44118848594E+03 -0.13435763877E+03  0.34515243885E+03  0.57604640548E+03  0.00000000000E+00 0. -1.
         -1    1    6    6    0  503 -0.26311564609E+02  0.72189291454E+01  0.42568918704E+02  0.50562082728E+02  0.00000000000E+00 0.  1.
<mgrwt>
<rscale>  0 0.13098420E+04</rscale>
<asrwt>0</asrwt>
<pdfrwt beam="1">  1        2 0.77158801E-01 0.13098420E+04</pdfrwt>
<pdfrwt beam="2">  1       -1 0.13157266E+00 0.13098420E+04</pdfrwt>
<totfact> 0.33817945E+01</totfact>
</mgrwt>
</event>
<event>
12    7  0.1544987E-007  0.3575131E+04  0.7818608E-02  0.8096212E-01
         -1   -1    0    0    0  501 -0.00000000000E+00  0.00000000000E+00  0.17292883309E+04  0.17292883309E+04  0.00000000000E+00 0.  1.
          2   -1    0    0  501    0  0.00000000000E+00 -0.00000000000E+00 -0.18478068843E+04  0.18478068843E+04  0.00000000000E+00 0. -1.
         24    2    1    2    0    0  0.13107197039E+03 -0.10549951598E+04 -0.13485819504E+04  0.17191634895E+04  0.81579274037E+02 0.  0.
        254    2    1    2    0    0 -0.13107197039E+03  0.10549951598E+04  0.12300633971E+04  0.18579317257E+04  0.89925507400E+03 0.  0.
         23    2    4    4    0    0  0.31137930673E+03  0.23441131056E+03  0.14657792863E+03  0.42551758508E+03  0.87603600834E+02 0.  0.
         23    2    4    4    0    0 -0.44245127712E+03  0.82058384923E+03  0.10834854684E+04  0.14324141407E+04  0.93533543688E+02 0.  0.
          4    1    3    3  502    0  0.77663430080E+02 -0.57123802345E+03 -0.79557042718E+03  0.98248500874E+03  0.00000000000E+00 0. -1.
         -3    1    3    3    0  502  0.53408540313E+02 -0.48375713634E+03 -0.55301152326E+03  0.73667848075E+03  0.00000000000E+00 0.  1.
         13    1    5    5    0    0  0.30029369329E+03  0.21200159565E+03  0.15528669681E+03  0.39904252530E+03  0.00000000000E+00 0.  1.
        -13    1    5    5    0    0  0.11085613436E+02  0.22409714908E+02 -0.87087681815E+01  0.26475059788E+02  0.00000000000E+00 0. -1.
          2    1    6    6  503    0 -0.28944602518E+03  0.44729723315E+03  0.64466915136E+03  0.83633254809E+03  0.00000000000E+00 0. -1.
         -2    1    6    6    0  503 -0.15300525194E+03  0.37328661607E+03  0.43881631709E+03  0.59608159257E+03  0.00000000000E+00 0.  1.
<mgrwt>
<rscale>  0 0.35751313E+04</rscale>
<asrwt>0</asrwt>
<pdfrwt beam="1">  1        2 0.28427798E+00 0.35751313E+04</pdfrwt>
<pdfrwt beam="2">  1       -1 0.26604436E+00 0.35751313E+04</pdfrwt>
<totfact> 0.41347475E-01</totfact>
</mgrwt>
</event>
<event>
12    7  0.1544987E-007  0.2775610E+04  0.7818608E-02  0.8310881E-01
         -1   -1    0    0    0  501 -0.00000000000E+00  0.00000000000E+00  0.23403742689E+04  0.23403742689E+04  0.00000000000E+00 0.  1.
          2   -1    0    0  501    0  0.00000000000E+00 -0.00000000000E+00 -0.82294667510E+03  0.82294667510E+03  0.00000000000E+00 0. -1.
         24    2    1    2    0    0 -0.60467376844E+03  0.92129733561E+03  0.13375666980E+04  0.17348878584E+04  0.79574260324E+02 0.  0.
        254    2    1    2    0    0  0.60467376844E+03 -0.92129733561E+03  0.17986089579E+03  0.14284330856E+04  0.89087147853E+03 0.  0.
         23    2    4    4    0    0  0.45994171534E+03 -0.69233560580E+03  0.51976978020E+03  0.98415772354E+03  0.86780342360E+02 0.  0.
         23    2    4    4    0    0  0.14473205311E+03 -0.22896172980E+03 -0.33990888441E+03  0.44427536202E+03  0.92041874639E+02 0.  0.
          2    1    3    3  502    0 -0.27790021332E+02  0.18448291776E+02  0.44590234785E+02  0.55685849130E+02  0.00000000000E+00 0. -1.
         -1    1    3    3    0  502 -0.57688374711E+03  0.90284904383E+03  0.12929764632E+04  0.16792020093E+04  0.00000000000E+00 0.  1.
         13    1    5    5    0    0  0.77200519092E+02 -0.10549016913E+03  0.46873607141E+02  0.13887127484E+03  0.00000000000E+00 0. -1.
        -13    1    5    5    0    0  0.38274119624E+03 -0.58684543668E+03  0.47289617306E+03  0.84528644869E+03  0.00000000000E+00 0.  1.
          1    1    6    6  503    0  0.25007120869E+02 -0.82789603450E+01 -0.74085913678E+02  0.78629637441E+02  0.00000000000E+00 0. -1.
         -1    1    6    6    0  503  0.11972493224E+03 -0.22068276946E+03 -0.26582297073E+03  0.36564572458E+03  0.00000000000E+00 0.  1.
<mgrwt>
<rscale>  0 0.27756104E+04</rscale>
<asrwt>0</asrwt>
<pdfrwt beam="1">  1        2 0.12660718E+00 0.27756104E+04</pdfrwt>
<pdfrwt beam="2">  1       -1 0.36005758E+00 0.27756104E+04</pdfrwt>
<totfact> 0.43905578E-01</totfact>
</mgrwt>
</event>
<event>
12    7  0.1544987E-007  0.4548960E+04  0.7818608E-02  0.7902121E-01
         -1   -1    0    0    0  501 -0.00000000000E+00  0.00000000000E+00  0.15212714393E+04  0.15212714393E+04  0.00000000000E+00 0.  1.
          2   -1    0    0  501    0  0.00000000000E+00 -0.00000000000E+00 -0.34006153700E+04  0.34006153700E+04  0.00000000000E+00 0. -1.
         24    2    1    2    0    0  0.18573618905E+04 -0.40628727178E+03  0.25859374249E+03  0.19206620572E+04  0.84908625858E+02 0.  0.
        254    2    1    2    0    0 -0.18573618905E+04  0.40628727178E+03 -0.21379376732E+04  0.30012247522E+04  0.90648220007E+03 0.  0.
         23    2    4    4    0    0 -0.89842955481E+03  0.62695400871E+03 -0.93092232470E+03  0.14411907618E+04  0.10083374053E+03 0.  0.
         23    2    4    4    0    0 -0.95893233568E+03 -0.22066673693E+03 -0.12070153485E+04  0.15600339904E+04  0.92601114598E+02 0.  0.
          2    1    3    3  502    0  0.50535334696E+03 -0.10189391296E+03  0.33089869218E+02  0.51658427602E+03  0.00000000000E+00 0. -1.
         -1    1    3    3    0  502  0.13520085435E+04 -0.30439335882E+03  0.22550387327E+03  0.14040777811E+04  0.00000000000E+00 0.  1.
         13    1    5    5    0    0 -0.61209762627E+03  0.38005193140E+03 -0.57298999901E+03  0.92055445988E+03  0.00000000000E+00 0. -1.
        -13    1    5    5    0    0 -0.28633192854E+03  0.24690207731E+03 -0.35793232569E+03  0.52063630190E+03  0.00000000000E+00 0.  1.
          4    1    6    6  503    0 -0.59179448188E+03 -0.18181776115E+03 -0.74780600535E+03  0.97082038951E+03  0.00000000000E+00 0. -1.
         -4    1    6    6    0  503 -0.36713785380E+03 -0.38848975780E+02 -0.45920934317E+03  0.58921360088E+03  0.00000000000E+00 0.  1.
<mgrwt>
<rscale>  0 0.45489599E+04</rscale>
<asrwt>0</asrwt>
<pdfrwt beam="1">  1        2 0.52317160E+00 0.45489599E+04</pdfrwt>
<pdfrwt beam="2">  1       -1 0.23404176E+00 0.45489599E+04</pdfrwt>
<totfact> 0.72319993E-02</totfact>
</mgrwt>
</event>
<event>
12    7  0.1544987E-007  0.1906767E+04  0.7818608E-02  0.8651495E-01
          2   -1    0    0  501    0  0.00000000000E+00  0.00000000000E+00  0.10558229998E+04  0.10558229998E+04  0.00000000000E+00 0. -1.
         -1   -1    0    0    0  501 -0.00000000000E+00 -0.00000000000E+00 -0.86088325926E+03  0.86088325926E+03  0.00000000000E+00 0.  1.
         24    2    1    2    0    0  0.52891668084E+03  0.45286358711E+03  0.34926568836E+03  0.78307092041E+03  0.79845234843E+02 0.  0.
        254    2    1    2    0    0 -0.52891668084E+03 -0.45286358711E+03 -0.15432594780E+03  0.11336353387E+04  0.88117779088E+03 0.  0.
         23    2    4    4    0    0 -0.26772660553E+03 -0.61937405000E+03  0.14166064465E+03  0.69549875145E+03  0.91373004284E+02 0.  0.
         23    2    4    4    0    0 -0.26119007531E+03  0.16651046289E+03 -0.29598659245E+03  0.43813658722E+03  0.91703960987E+02 0.  0.
          2    1    3    3  502    0  0.21886981563E+03  0.15233718448E+03  0.16514242948E+03  0.31366006437E+03  0.00000000000E+00 0. -1.
         -3    1    3    3    0  502  0.31004686521E+03  0.30052640263E+03  0.18412325889E+03  0.46941085604E+03  0.00000000000E+00 0.  1.
         13    1    5    5    0    0 -0.60157108071E+02 -0.63549533498E+02  0.22102813369E+02  0.90254945671E+02  0.00000000000E+00 0. -1.
        -13    1    5    5    0    0 -0.20756949746E+03 -0.55582451650E+03  0.11955783129E+03  0.60524380578E+03  0.00000000000E+00 0.  1.
          3    1    6    6  503    0 -0.19145067350E+02  0.51379170125E+02 -0.55856510972E+02  0.78270700422E+02  0.00000000000E+00 0. -1.
         -3    1    6    6    0  503 -0.24204500796E+03  0.11513129276E+03 -0.24013008148E+03  0.35986588680E+03  0.00000000000E+00 0.  1.
<mgrwt>
<rscale>  0 0.19067673E+04</rscale>
<asrwt>0</asrwt>
<pdfrwt beam="1">  1        2 0.16243431E+00 0.19067673E+04</pdfrwt>
<pdfrwt beam="2">  1       -1 0.13244358E+00 0.19067673E+04</pdfrwt>
<totfact> 0.11989315E+01</totfact>
</mgrwt>
</event>
<event>
12    7  0.1544987E-007  0.2139368E+04  0.7818608E-02  0.8544097E-01
         -3   -1    0    0    0  501 -0.00000000000E+00  0.00000000000E+00  0.82175902497E+03  0.82175902497E+03  0.00000000000E+00 0.  1.
          4   -1    0    0  501    0  0.00000000000E+00 -0.00000000000E+00 -0.13924081367E+04  0.13924081367E+04  0.00000000000E+00 0. -1.
         24    2    1    2    0    0 -0.78917740431E+03 -0.30295170314E+03 -0.47829294491E+03  0.97475846031E+03  0.82517906477E+02 0.  0.
        254    2    1    2    0    0  0.78917740431E+03  0.30295170314E+03 -0.92356166789E+02  0.12394087013E+04  0.90167818952E+03 0.  0.
         23    2    4    4    0    0 -0.86380087341E+02  0.30450745160E+03  0.84997096693E+02  0.34118350648E+03  0.94843930135E+02 0.  0.
         23    2    4    4    0    0  0.87555749166E+03 -0.15557484551E+01 -0.17735326348E+03  0.89822519484E+03  0.93546667629E+02 0.  0.
          4    1    3    3  502    0 -0.50661937978E+03 -0.17681770324E+03 -0.34436766726E+03  0.63758668932E+03  0.00000000000E+00 0. -1.
         -3    1    3    3    0  502 -0.28255802454E+03 -0.12613399990E+03 -0.13392527764E+03  0.33717177099E+03  0.00000000000E+00 0.  1.
         13    1    5    5    0    0 -0.97572700140E+02  0.21690168039E+03  0.37100546180E+02  0.24071398235E+03  0.00000000000E+00 0.  1.
        -13    1    5    5    0    0  0.11192612799E+02  0.87605771202E+02  0.47896550513E+02  0.10046952414E+03  0.00000000000E+00 0. -1.
          3    1    6    6  503    0  0.14787888517E+03 -0.19986661124E+02 -0.60371556065E+02  0.16097315330E+03  0.00000000000E+00 0. -1.
         -3    1    6    6    0  503  0.72767860648E+03  0.18430912669E+02 -0.11698170742E+03  0.73725204153E+03  0.00000000000E+00 0.  1.
<mgrwt>
<rscale>  0 0.21393681E+04</rscale>
<asrwt>0</asrwt>
<pdfrwt beam="1">  1        4 0.21421664E+00 0.21393681E+04</pdfrwt>
<pdfrwt beam="2">  1       -3 0.12642447E+00 0.21393681E+04</pdfrwt>
<totfact> 0.11073019E-01</totfact>
</mgrwt>
</event>
<event>
12    7  0.1544987E-007  0.2085238E+04  0.7818608E-02  0.8567774E-01
          2   -1    0    0  501    0  0.00000000000E+00  0.00000000000E+00  0.12000520051E+04  0.12000520051E+04  0.00000000000E+00 0. -1.
         -1   -1    0    0    0  501 -0.00000000000E+00 -0.00000000000E+00 -0.90583966498E+03  0.90583966498E+03  0.00000000000E+00 0.  1.
         24    2    1    2    0    0 -0.35959313399E+03 -0.40135543306E+03 -0.53904748422E+03  0.76747914427E+03  0.89769933611E+02 0.  0.
        254    2    1    2    0    0  0.35959313399E+03  0.40135543306E+03  0.83325982433E+03  0.13384125258E+04  0.89812735664E+03 0.  0.
         23    2    4    4    0    0  0.51566797783E+03  0.53663443185E+03  0.40166426155E+03  0.85057019669E+03  0.90804755898E+02 0.  0.
         23    2    4    4    0    0 -0.15607484383E+03 -0.13527899878E+03  0.43159556279E+03  0.48784232912E+03  0.95161146893E+02 0.  0.
          2    1    3    3  502    0 -0.23297022485E+03 -0.26773419062E+03 -0.41212462792E+03  0.54387814024E+03  0.00000000000E+00 0. -1.
         -1    1    3    3    0  502 -0.12662290914E+03 -0.13362124244E+03 -0.12692285630E+03  0.22360100403E+03  0.00000000000E+00 0.  1.
         13    1    5    5    0    0  0.30010347447E+03  0.24702238186E+03  0.20423406681E+03  0.43908280150E+03  0.00000000000E+00 0. -1.
        -13    1    5    5    0    0  0.21556450335E+03  0.28961204999E+03  0.19743019474E+03  0.41148739519E+03  0.00000000000E+00 0.  1.
          2    1    6    6  503    0 -0.10221778558E+03 -0.13998486591E+03  0.33137315793E+03  0.37396845879E+03  0.00000000000E+00 0.  1.
         -2    1    6    6    0  503 -0.53857058257E+02  0.47058671301E+01  0.10022240486E+03  0.11387387033E+03  0.00000000000E+00 0. -1.
<mgrwt>
<rscale>  0 0.20852383E+04</rscale>
<asrwt>0</asrwt>
<pdfrwt beam="1">  1        2 0.18462339E+00 0.20852383E+04</pdfrwt>
<pdfrwt beam="2">  1       -1 0.13935995E+00 0.20852383E+04</pdfrwt>
<totfact> 0.84521773E+00</totfact>
</mgrwt>
</event>
<event>
12    7  0.1544987E-007  0.1429388E+04  0.7818608E-02  0.8932816E-01
         -1   -1    0    0    0  501 -0.00000000000E+00  0.00000000000E+00  0.34660577478E+03  0.34660577478E+03  0.00000000000E+00 0.  1.
          2   -1    0    0  501    0  0.00000000000E+00 -0.00000000000E+00 -0.14736853915E+04  0.14736853915E+04  0.00000000000E+00 0. -1.
         24    2    1    2    0    0  0.18546503644E+03  0.23959390336E+03 -0.31878580100E+03  0.44696037190E+03  0.79665983115E+02 0.  0.
        254    2    1    2    0    0 -0.18546503644E+03 -0.23959390336E+03 -0.80829381568E+03  0.13733307943E+04  0.10681273613E+04 0.  0.
         23    2    4    4    0    0 -0.44895823859E+03  0.34091206813E+01 -0.88490384522E+03  0.99646393603E+03  0.91161606052E+02 0.  0.
         23    2    4    4    0    0  0.26349320214E+03 -0.24300302404E+03  0.76610029537E+02  0.37686685832E+03  0.87637862852E+02 0.  0.
          4    1    3    3  502    0  0.11023848139E+02  0.66973149508E+02 -0.69229140203E+02  0.96951543753E+02  0.00000000000E+00 0. -1.
         -3    1    3    3    0  502  0.17444118830E+03  0.17262075385E+03 -0.24955666079E+03  0.35000882815E+03  0.00000000000E+00 0.  1.
         13    1    5    5    0    0 -0.28680301453E+03  0.44998479432E+02 -0.54056122200E+03  0.61358558248E+03  0.00000000000E+00 0. -1.
        -13    1    5    5    0    0 -0.16215522406E+03 -0.41589358751E+02 -0.34434262322E+03  0.38287835355E+03  0.00000000000E+00 0.  1.
          3    1    6    6  503    0  0.98358635525E+02 -0.14830057456E+03  0.25577306431E+02  0.17978231337E+03  0.00000000000E+00 0. -1.
         -3    1    6    6    0  503  0.16513456662E+03 -0.94702449482E+02  0.51032723107E+02  0.19708454495E+03  0.00000000000E+00 0.  1.
<mgrwt>
<rscale>  0 0.14293885E+04</rscale>
<asrwt>0</asrwt>
<pdfrwt beam="1">  1        2 0.22672083E+00 0.14293885E+04</pdfrwt>
<pdfrwt beam="2">  1       -1 0.53323966E-01 0.14293885E+04</pdfrwt>
<totfact> 0.51573709E+01</totfact>
</mgrwt>
</event>
<event>
12    7  0.1544987E-007  0.2430433E+04  0.7818608E-02  0.8428197E-01
          2   -1    0    0  501    0  0.00000000000E+00  0.00000000000E+00  0.14032736997E+04  0.14032736997E+04  0.00000000000E+00 0. -1.
         -1   -1    0    0    0  501 -0.00000000000E+00 -0.00000000000E+00 -0.10523618495E+04  0.10523618495E+04  0.00000000000E+00 0.  1.
         24    2    1    2    0    0  0.20882759998E+03 -0.42178720220E+03  0.10987074785E+04  0.11991555647E+04  0.96449648876E+02 0.  0.
        254    2    1    2    0    0 -0.20882759998E+03  0.42178720220E+03 -0.74779562831E+03  0.12564799844E+04  0.89332538255E+03 0.  0.
         23    2    4    4    0    0 -0.72982757082E+02  0.81009463868E+02  0.19434825262E+03  0.24135802939E+03  0.92700803582E+02 0.  0.
         23    2    4    4    0    0 -0.13584484290E+03  0.34077773833E+03 -0.94214388093E+03  0.10151219550E+04  0.90852644158E+02 0.  0.
          2    1    3    3  502    0  0.16781613909E+03 -0.34747140183E+03  0.97992107703E+03  0.10531590330E+04  0.00000000000E+00 0. -1.
         -1    1    3    3    0  502  0.41011460898E+02 -0.74315800363E+02  0.11878640144E+03  0.14599653172E+03  0.00000000000E+00 0.  1.
         13    1    5    5    0    0 -0.94694749364E+02  0.73121442592E+02  0.15609750977E+03  0.19667301157E+03  0.00000000000E+00 0.  1.
        -13    1    5    5    0    0  0.21711992282E+02  0.78880212756E+01  0.38250742850E+02  0.44685017815E+02  0.00000000000E+00 0. -1.
          2    1    6    6  503    0 -0.52337875270E+01 -0.49420783607E+01 -0.32142737456E+02  0.32938916825E+02  0.00000000000E+00 0. -1.
         -2    1    6    6    0  503 -0.13061105537E+03  0.34571981669E+03 -0.91000114347E+03  0.98218303822E+03  0.00000000000E+00 0.  1.
<mgrwt>
<rscale>  0 0.24304335E+04</rscale>
<asrwt>0</asrwt>
<pdfrwt beam="1">  1        2 0.21588826E+00 0.24304335E+04</pdfrwt>
<pdfrwt beam="2">  1       -1 0.16190182E+00 0.24304335E+04</pdfrwt>
<totfact> 0.41630483E+00</totfact>
</mgrwt>
</event>
<event>
12    7  0.1544987E-007  0.1390483E+04  0.7818608E-02  0.8960737E-01
          2   -1    0    0  501    0  0.00000000000E+00  0.00000000000E+00  0.21631143327E+04  0.21631143327E+04  0.00000000000E+00 0. -1.
         -1   -1    0    0    0  501 -0.00000000000E+00 -0.00000000000E+00 -0.22345580772E+03  0.22345580772E+03  0.00000000000E+00 0.  1.
         24    2    1    2    0    0 -0.34231721783E+03  0.74478157539E+02  0.88044502799E+03  0.95081304769E+03  0.78319415041E+02 0.  0.
        254    2    1    2    0    0  0.34231721783E+03 -0.74478157539E+02  0.10592134970E+04  0.14357570927E+04  0.90373509587E+03 0.  0.
         23    2    4    4    0    0  0.22804077319E+03 -0.22722879353E+03  0.11557353169E+04  0.12033928378E+04  0.93779956901E+02 0.  0.
         23    2    4    4    0    0  0.11427644463E+03  0.15275063600E+03 -0.96521819961E+02  0.23236425495E+03  0.91021001163E+02 0.  0.
          2    1    3    3  502    0 -0.24273823585E+03  0.62712862360E+02  0.53001775089E+03  0.58632207063E+03  0.00000000000E+00 0. -1.
         -1    1    3    3    0  502 -0.99578981978E+02  0.11765295178E+02  0.35042727710E+03  0.36449097706E+03  0.00000000000E+00 0.  1.
         13    1    5    5    0    0  0.43934996157E+02 -0.42737524026E+02  0.11273245234E+03  0.12831751890E+03  0.00000000000E+00 0. -1.
        -13    1    5    5    0    0  0.18410577703E+03 -0.18449126951E+03  0.10430028646E+04  0.10750753189E+04  0.00000000000E+00 0.  1.
          3    1    6    6  503    0  0.49718134489E+02  0.23590321931E+02  0.58793259922E+01  0.55344039065E+02  0.00000000000E+00 0. -1.
         -3    1    6    6    0  503  0.64558310145E+02  0.12916031406E+03 -0.10240114595E+03  0.17702021588E+03  0.00000000000E+00 0.  1.
<mgrwt>
<rscale>  0 0.13904826E+04</rscale>
<asrwt>0</asrwt>
<pdfrwt beam="1">  1        2 0.33278681E+00 0.13904826E+04</pdfrwt>
<pdfrwt beam="2">  1       -1 0.34377818E-01 0.13904826E+04</pdfrwt>
<totfact> 0.48218289E+01</totfact>
</mgrwt>
</event>
<event>
12    7  0.1544987E-007  0.1222772E+04  0.7818608E-02  0.9093154E-01
          2   -1    0    0  501    0  0.00000000000E+00  0.00000000000E+00  0.11047298699E+04  0.11047298699E+04  0.00000000000E+00 0. -1.
         -1   -1    0    0    0  501 -0.00000000000E+00 -0.00000000000E+00 -0.33835701783E+03  0.33835701783E+03  0.00000000000E+00 0.  1.
         24    2    1    2    0    0 -0.25225113753E+03 -0.76303345034E+02  0.21381615077E+03  0.34862568459E+03  0.79810304933E+02 0.  0.
        254    2    1    2    0    0  0.25225113753E+03  0.76303345034E+02  0.55255670126E+03  0.10944612031E+04  0.90723402721E+03 0.  0.
         23    2    4    4    0    0  0.49707564931E+03 -0.19771598416E+03  0.20116760475E+03  0.57824662455E+03  0.87891649682E+02 0.  0.
         23    2    4    4    0    0 -0.24482451177E+03  0.27401932919E+03  0.35138909651E+03  0.51621457854E+03  0.89317185442E+02 0.  0.
          4    1    3    3  502    0 -0.86911903516E+02  0.12185511105E+02  0.64589822735E+02  0.10896793498E+03  0.00000000000E+00 0. -1.
         -3    1    3    3    0  502 -0.16533923402E+03 -0.88488856138E+02  0.14922632804E+03  0.23965774961E+03  0.00000000000E+00 0.  1.
         13    1    5    5    0    0  0.34157318030E+03 -0.17818096892E+03  0.14908534844E+03  0.41309458518E+03  0.00000000000E+00 0. -1.
        -13    1    5    5    0    0  0.15550246901E+03 -0.19535015239E+02  0.52082256307E+02  0.16515203938E+03  0.00000000000E+00 0.  1.
          3    1    6    6  503    0 -0.12849838199E+03  0.20217264918E+03  0.19849700206E+03  0.31110556741E+03  0.00000000000E+00 0. -1.
         -3    1    6    6    0  503 -0.11632612978E+03  0.71846680014E+02  0.15289209446E+03  0.20510901113E+03  0.00000000000E+00 0.  1.
<mgrwt>
<rscale>  0 0.12227724E+04</rscale>
<asrwt>0</asrwt>
<pdfrwt beam="1">  1        2 0.16995844E+00 0.12227724E+04</pdfrwt>
<pdfrwt beam="2">  1       -1 0.52054926E-01 0.12227724E+04</pdfrwt>
<totfact> 0.90329668E+01</totfact>
</mgrwt>
</event>
<event>
12    7  0.1544987E-007  0.2060679E+04  0.7818608E-02  0.8578765E-01
         -1   -1    0    0    0  501 -0.00000000000E+00  0.00000000000E+00  0.55011069088E+03  0.55011069088E+03  0.00000000000E+00 0.  1.
          2   -1    0    0  501    0  0.00000000000E+00 -0.00000000000E+00 -0.19297925420E+04  0.19297925420E+04  0.00000000000E+00 0. -1.
         24    2    1    2    0    0 -0.18993876090E+03  0.64211931186E+02 -0.15313510012E+04  0.15465177254E+04  0.80506405306E+02 0.  0.
        254    2    1    2    0    0  0.18993876090E+03 -0.64211931186E+02  0.15166915007E+03  0.93338550742E+03  0.89889102197E+03 0.  0.
         23    2    4    4    0    0 -0.25326670181E+02 -0.45417480397E+03  0.11324483874E+03  0.47701265664E+03  0.88320373107E+02 0.  0.
         23    2    4    4    0    0  0.21526543108E+03  0.38996287278E+03  0.38424311336E+02  0.45637285078E+03  0.91594231572E+02 0.  0.
          2    1    3    3  502    0 -0.19037553481E+03  0.75468615755E+02 -0.14537138273E+04  0.14680675216E+04  0.00000000000E+00 0. -1.
         -1    1    3    3    0  502  0.43677390994E+00 -0.11256684570E+02 -0.77637173892E+02  0.78450203881E+02  0.00000000000E+00 0.  1.
         13    1    5    5    0    0 -0.29331572452E+02 -0.42687954925E+03  0.82611421849E+02  0.43578795042E+03  0.00000000000E+00 0. -1.
        -13    1    5    5    0    0  0.40049022709E+01 -0.27295254722E+02  0.30633416888E+02  0.41224706218E+02  0.00000000000E+00 0.  1.
          1    1    6    6  503    0  0.16492342167E+02  0.26596263745E+02  0.28106101908E+02  0.42063185326E+02  0.00000000000E+00 0. -1.
         -1    1    6    6    0  503  0.19877308892E+03  0.36336660904E+03  0.10318209428E+02  0.41430966545E+03  0.00000000000E+00 0.  1.
<mgrwt>
<rscale>  0 0.20606790E+04</rscale>
<asrwt>0</asrwt>
<pdfrwt beam="1">  1        2 0.29689115E+00 0.20606790E+04</pdfrwt>
<pdfrwt beam="2">  1       -1 0.84632416E-01 0.20606790E+04</pdfrwt>
<totfact> 0.10632648E+01</totfact>
</mgrwt>
</event>
<event>
12    7  0.1544987E-007  0.1661805E+04  0.7818608E-02  0.8783453E-01
         -1   -1    0    0    0  501 -0.00000000000E+00  0.00000000000E+00  0.60873948103E+03  0.60873948103E+03  0.00000000000E+00 0.  1.
          2   -1    0    0  501    0  0.00000000000E+00 -0.00000000000E+00 -0.11341447381E+04  0.11341447381E+04  0.00000000000E+00 0. -1.
         24    2    1    2    0    0 -0.20564784839E+03  0.77318776280E+01  0.39739694948E+03  0.45480481207E+03  0.81069489601E+02 0.  0.
        254    2    1    2    0    0  0.20564784839E+03 -0.77318776280E+01 -0.92280220659E+03  0.12880794071E+04  0.87477644404E+03 0.  0.
         23    2    4    4    0    0  0.21575954687E+03  0.19408445741E+03  0.34357003911E+02  0.30536115906E+03  0.88566783116E+02 0.  0.
         23    2    4    4    0    0 -0.10111698476E+02 -0.20181633504E+03 -0.95715921050E+03  0.98271824805E+03  0.93537806587E+02 0.  0.
          4    1    3    3  502    0 -0.27877467922E+02  0.29690293503E+02  0.55647382876E+02  0.68958668542E+02  0.00000000000E+00 0. -1.
         -3    1    3    3    0  502 -0.17777038047E+03 -0.21958415875E+02  0.34174956661E+03  0.38584614353E+03  0.00000000000E+00 0.  1.
         13    1    5    5    0    0  0.19649962085E+03  0.12987271264E+03  0.36157743101E+02  0.23829898210E+03  0.00000000000E+00 0. -1.
        -13    1    5    5    0    0  0.19259926012E+02  0.64211744774E+02 -0.18007391907E+01  0.67062176959E+02  0.00000000000E+00 0.  1.
          4    1    6    6  503    0 -0.93044739110E+01 -0.13157732735E+02 -0.25951507268E+03  0.26001494595E+03  0.00000000000E+00 0. -1.
         -4    1    6    6    0  503 -0.80722456519E+00 -0.18865860230E+03 -0.69764413782E+03  0.72270330210E+03  0.00000000000E+00 0.  1.
<mgrwt>
<rscale>  0 0.16618047E+04</rscale>
<asrwt>0</asrwt>
<pdfrwt beam="1">  1        2 0.17448380E+00 0.16618047E+04</pdfrwt>
<pdfrwt beam="2">  1       -1 0.93652229E-01 0.16618047E+04</pdfrwt>
<totfact> 0.24986149E+01</totfact>
</mgrwt>
</event>
<event>
12    7  0.1544987E-007  0.1769278E+04  0.7818608E-02  0.8722810E-01
         -1   -1    0    0    0  501 -0.00000000000E+00  0.00000000000E+00  0.11553242525E+04  0.11553242525E+04  0.00000000000E+00 0.  1.
          2   -1    0    0  501    0  0.00000000000E+00 -0.00000000000E+00 -0.67737340940E+03  0.67737340940E+03  0.00000000000E+00 0. -1.
         24    2    1    2    0    0 -0.12226087897E+03  0.17572893274E+02 -0.48641670235E+03  0.50821418761E+03  0.80149379627E+02 0.  0.
        254    2    1    2    0    0  0.12226087897E+03 -0.17572893274E+02  0.96436754550E+03  0.13244834743E+04  0.89944159448E+03 0.  0.
         23    2    4    4    0    0  0.64215971223E+02  0.10086186925E+02  0.11246142879E+04  0.11301735100E+04  0.91156151470E+02 0.  0.
         23    2    4    4    0    0  0.58044907742E+02 -0.27659080199E+02 -0.16024674243E+03  0.19430996435E+03  0.89124114338E+02 0.  0.
          2    1    3    3  502    0 -0.81606122445E+02  0.29288380782E+02 -0.42423085859E+03  0.43300021923E+03  0.00000000000E+00 0. -1.
         -1    1    3    3    0  502 -0.40654756520E+02 -0.11715487508E+02 -0.62185843761E+02  0.75213968380E+02  0.00000000000E+00 0.  1.
         13    1    5    5    0    0  0.54322108751E+02 -0.18806227012E+02  0.10076370343E+04  0.10092754622E+04  0.00000000000E+00 0. -1.
        -13    1    5    5    0    0  0.98938624723E+01  0.28892413937E+02  0.11697725363E+03  0.12089804781E+03  0.00000000000E+00 0.  1.
          4    1    6    6  503    0  0.72191139384E+01 -0.46658083882E+02 -0.38153544051E+02  0.60702432581E+02  0.00000000000E+00 0. -1.
         -4    1    6    6    0  503  0.50825793804E+02  0.18999003684E+02 -0.12209319837E+03  0.13360753177E+03  0.00000000000E+00 0.  1.
<mgrwt>
<rscale>  0 0.17692777E+04</rscale>
<asrwt>0</asrwt>
<pdfrwt beam="1">  1        2 0.10421129E+00 0.17692777E+04</pdfrwt>
<pdfrwt beam="2">  1       -1 0.17774219E+00 0.17692777E+04</pdfrwt>
<totfact> 0.99714818E+00</totfact>
</mgrwt>
</event>
<event>
12    7  0.1544987E-007  0.1612472E+04  0.7818608E-02  0.8812922E-01
          2   -1    0    0  501    0  0.00000000000E+00  0.00000000000E+00  0.23077599024E+04  0.23077599024E+04  0.00000000000E+00 0. -1.
         -1   -1    0    0    0  501 -0.00000000000E+00 -0.00000000000E+00 -0.28166562639E+03  0.28166562639E+03  0.00000000000E+00 0.  1.
         24    2    1    2    0    0 -0.39039927717E+03  0.11831059118E+03  0.13078281779E+04  0.13724204084E+04  0.81940484941E+02 0.  0.
        254    2    1    2    0    0  0.39039927717E+03 -0.11831059118E+03  0.71826609816E+03  0.12170051204E+04  0.89374844538E+03 0.  0.
         23    2    4    4    0    0 -0.22577930510E+03  0.13244370347E+03  0.36245085698E+03  0.45683638140E+03  0.93868133288E+02 0.  0.
         23    2    4    4    0    0  0.61617858227E+03 -0.25075429465E+03  0.35581524118E+03  0.76016873896E+03  0.93264485770E+02 0.  0.
          2    1    3    3  502    0 -0.29214376019E+03  0.61476658941E+02  0.10272324017E+04  0.10697353707E+04  0.00000000000E+00 0. -1.
         -3    1    3    3    0  502 -0.98255516977E+02  0.56833932234E+02  0.28059577615E+03  0.30268503773E+03  0.00000000000E+00 0.  1.
         13    1    5    5    0    0 -0.99551221366E+01 -0.10896983348E+02  0.43378738187E+02  0.45820995510E+02  0.00000000000E+00 0. -1.
        -13    1    5    5    0    0 -0.21582418296E+03  0.14334068682E+03  0.31907211880E+03  0.41101538589E+03  0.00000000000E+00 0.  1.
          1    1    6    6  503    0  0.23290023506E+03 -0.91485691271E+02  0.83635121156E+02  0.26383135653E+03  0.00000000000E+00 0. -1.
         -1    1    6    6    0  503  0.38327834720E+03 -0.15926860338E+03  0.27218012002E+03  0.49633738242E+03  0.00000000000E+00 0.  1.
<mgrwt>
<rscale>  0 0.16124722E+04</rscale>
<asrwt>0</asrwt>
<pdfrwt beam="1">  1        2 0.35503997E+00 0.16124722E+04</pdfrwt>
<pdfrwt beam="2">  1       -1 0.43333175E-01 0.16124722E+04</pdfrwt>
<totfact> 0.25757365E+01</totfact>
</mgrwt>
</event>
<event>
12    7  0.1544987E-007  0.4000619E+04  0.7818608E-02  0.8004422E-01
         -1   -1    0    0    0  501 -0.00000000000E+00  0.00000000000E+00  0.12725272202E+04  0.12725272202E+04  0.00000000000E+00 0.  1.
          2   -1    0    0  501    0  0.00000000000E+00 -0.00000000000E+00 -0.31443242113E+04  0.31443242113E+04  0.00000000000E+00 0. -1.
         24    2    1    2    0    0  0.46556769359E+03 -0.39384579278E+03  0.10946018837E+04  0.12554805452E+04  0.78805646766E+02 0.  0.
        254    2    1    2    0    0 -0.46556769359E+03  0.39384579278E+03 -0.29663988748E+04  0.31613708862E+04  0.90712502463E+03 0.  0.
         23    2    4    4    0    0 -0.34624815154E+03 -0.23579875794E+03 -0.14658553871E+04  0.15272472573E+04  0.90902871937E+02 0.  0.
         23    2    4    4    0    0 -0.11931954205E+03  0.62964455071E+03 -0.15005434876E+04  0.16341236290E+04  0.89665283914E+02 0.  0.
          4    1    3    3  502    0  0.11575060204E+03 -0.73932128156E+02  0.19342098859E+03  0.23722529434E+03  0.00000000000E+00 0. -1.
         -3    1    3    3    0  502  0.34981709155E+03 -0.31991366462E+03  0.90118089507E+03  0.10182552509E+04  0.00000000000E+00 0.  1.
         13    1    5    5    0    0 -0.29909048559E+03 -0.18805796330E+03 -0.11017813212E+04  0.11570406198E+04  0.00000000000E+00 0.  1.
        -13    1    5    5    0    0 -0.47157665956E+02 -0.47740794632E+02 -0.36407406594E+03  0.37020663746E+03  0.00000000000E+00 0. -1.
          2    1    6    6  503    0 -0.22264349783E+02  0.39491941190E+02 -0.15826065844E+03  0.16462609362E+03  0.00000000000E+00 0.  1.
         -2    1    6    6    0  503 -0.97055192264E+02  0.59015260952E+03 -0.13422828292E+04  0.14694975354E+04  0.00000000000E+00 0. -1.
<mgrwt>
<rscale>  0 0.40006190E+04</rscale>
<asrwt>0</asrwt>
<pdfrwt beam="1">  1        2 0.48374218E+00 0.40006190E+04</pdfrwt>
<pdfrwt beam="2">  1       -1 0.19577342E+00 0.40006190E+04</pdfrwt>
<totfact> 0.20305579E-01</totfact>
</mgrwt>
</event>
<event>
12    7  0.1544987E-007  0.2121943E+04  0.7818608E-02  0.8551638E-01
         -1   -1    0    0    0  501 -0.00000000000E+00  0.00000000000E+00  0.51029620496E+03  0.51029620496E+03  0.00000000000E+00 0.  1.
          2   -1    0    0  501    0  0.00000000000E+00 -0.00000000000E+00 -0.22058968788E+04  0.22058968788E+04  0.00000000000E+00 0. -1.
         24    2    1    2    0    0 -0.99253489724E+02  0.60374583252E+03 -0.13558074580E+04  0.14894814008E+04  0.77334951300E+02 0.  0.
        254    2    1    2    0    0  0.99253489724E+02 -0.60374583252E+03 -0.33979321586E+03  0.12267116830E+04  0.10074729962E+04 0.  0.
         23    2    4    4    0    0  0.49348372188E+03 -0.50704571977E+03 -0.41082023982E+02  0.71469044513E+03  0.92049736418E+02 0.  0.
         23    2    4    4    0    0 -0.39423023215E+03 -0.96700112753E+02 -0.29871119187E+03  0.51202123783E+03  0.90382432414E+02 0.  0.
          4    1    3    3  502    0 -0.87172187515E+02  0.57908166112E+03 -0.12533878019E+04  0.13834433644E+04  0.00000000000E+00 0. -1.
         -3    1    3    3    0  502 -0.12081302209E+02  0.24664171409E+02 -0.10241965605E+03  0.10603803638E+03  0.00000000000E+00 0.  1.
         13    1    5    5    0    0  0.32553307405E+03 -0.27179997718E+03 -0.35851473227E+02  0.42559644974E+03  0.00000000000E+00 0. -1.
        -13    1    5    5    0    0  0.16795064783E+03 -0.23524574260E+03 -0.52305507550E+01  0.28909399540E+03  0.00000000000E+00 0.  1.
          1    1    6    6  503    0 -0.38353263946E+03 -0.74138298230E+02 -0.28487587848E+03  0.48347496205E+03  0.00000000000E+00 0. -1.
         -1    1    6    6    0  503 -0.10697592696E+02 -0.22561814523E+02 -0.13835313398E+02  0.28546275779E+02  0.00000000000E+00 0.  1.
<mgrwt>
<rscale>  0 0.21219433E+04</rscale>
<asrwt>0</asrwt>
<pdfrwt beam="1">  1        2 0.33936875E+00 0.21219433E+04</pdfrwt>
<pdfrwt beam="2">  1       -1 0.78507109E-01 0.21219433E+04</pdfrwt>
<totfact> 0.87116386E+00</totfact>
</mgrwt>
</event>
<event>
12    7  0.1544987E-007  0.1122981E+04  0.7818608E-02  0.9183078E-01
         -1   -1    0    0    0  501 -0.00000000000E+00  0.00000000000E+00  0.40974463121E+03  0.40974463121E+03  0.00000000000E+00 0.  1.
          2   -1    0    0  501    0  0.00000000000E+00 -0.00000000000E+00 -0.76943470038E+03  0.76943470038E+03  0.00000000000E+00 0. -1.
         24    2    1    2    0    0  0.72753101313E+02 -0.45041263537E+02 -0.21592994042E+03  0.24663653842E+03  0.82958506150E+02 0.  0.
        254    2    1    2    0    0 -0.72753101313E+02  0.45041263537E+02 -0.14376012875E+03  0.93254279317E+03  0.91741340588E+03 0.  0.
         23    2    4    4    0    0 -0.19196439372E+03 -0.37999043543E+03  0.55917385279E+02  0.43920951115E+03  0.92386044588E+02 0.  0.
         23    2    4    4    0    0  0.11921129241E+03  0.42503169896E+03 -0.19967751403E+03  0.49333328202E+03  0.92969565856E+02 0.  0.
          4    1    3    3  502    0  0.41334621886E+02  0.47591348679E+01 -0.16036813100E+03  0.16567781315E+03  0.00000000000E+00 0. -1.
         -3    1    3    3    0  502  0.31418479427E+02 -0.49800398404E+02 -0.55561809420E+02  0.80958725267E+02  0.00000000000E+00 0.  1.
         13    1    5    5    0    0 -0.83339814798E+02 -0.77906814407E+02  0.24243160313E+02  0.11663073044E+03  0.00000000000E+00 0.  1.
        -13    1    5    5    0    0 -0.10862457892E+03 -0.30208362102E+03  0.31674224966E+02  0.32257878071E+03  0.00000000000E+00 0. -1.
          1    1    6    6  503    0  0.82243390149E+02  0.39487125450E+03 -0.17602723611E+03  0.44008279983E+03  0.00000000000E+00 0. -1.
         -1    1    6    6    0  503  0.36967902256E+02  0.30160444464E+02 -0.23650277918E+02  0.53250482187E+02  0.00000000000E+00 0.  1.
<mgrwt>
<rscale>  0 0.11229813E+04</rscale>
<asrwt>0</asrwt>
<pdfrwt beam="1">  1        2 0.11837457E+00 0.11229813E+04</pdfrwt>
<pdfrwt beam="2">  1       -1 0.63037635E-01 0.11229813E+04</pdfrwt>
<totfact> 0.10480848E+02</totfact>
</mgrwt>
</event>
<event>
12    7  0.1544987E-007  0.1098980E+04  0.7818608E-02  0.9206186E-01
         -1   -1    0    0    0  501 -0.00000000000E+00  0.00000000000E+00  0.25856911901E+03  0.25856911901E+03  0.00000000000E+00 0.  1.
          2   -1    0    0  501    0  0.00000000000E+00 -0.00000000000E+00 -0.11677318138E+04  0.11677318138E+04  0.00000000000E+00 0. -1.
         24    2    1    2    0    0  0.12975162816E+03 -0.74531363648E+02 -0.24707736988E+03  0.29971415727E+03  0.79943356100E+02 0.  0.
        254    2    1    2    0    0 -0.12975162816E+03  0.74531363648E+02 -0.66208532494E+03  0.11265867756E+04  0.89913868575E+03 0.  0.
         23    2    4    4    0    0  0.24667237476E+03  0.32185905858E+03 -0.47365949937E+03  0.62996188454E+03  0.89767146390E+02 0.  0.
         23    2    4    4    0    0 -0.37642400292E+03 -0.24732769493E+03 -0.18842582556E+03  0.49662489103E+03  0.90917391050E+02 0.  0.
          2    1    3    3  502    0  0.13522554516E+03 -0.49924763072E+02 -0.20369637528E+03  0.24954086506E+03  0.00000000000E+00 0. -1.
         -1    1    3    3    0  502 -0.54739169969E+01 -0.24606600575E+02 -0.43380994598E+02  0.50173292213E+02  0.00000000000E+00 0.  1.
         13    1    5    5    0    0  0.17920472907E+03  0.16682977115E+03 -0.25433461627E+03  0.35303343255E+03  0.00000000000E+00 0.  1.
        -13    1    5    5    0    0  0.67467645687E+02  0.15502928743E+03 -0.21932488310E+03  0.27692845199E+03  0.00000000000E+00 0. -1.
          1    1    6    6  503    0 -0.33043773464E+03 -0.24713812096E+03 -0.16003622251E+03  0.44258099803E+03  0.00000000000E+00 0. -1.
         -1    1    6    6    0  503 -0.45986268280E+02 -0.18957397416E+00 -0.28389603055E+02  0.54043892996E+02  0.00000000000E+00 0.  1.
<mgrwt>
<rscale>  0 0.10989802E+04</rscale>
<asrwt>0</asrwt>
<pdfrwt beam="1">  1        2 0.17965105E+00 0.10989802E+04</pdfrwt>
<pdfrwt beam="2">  1       -1 0.39779865E-01 0.10989802E+04</pdfrwt>
<totfact> 0.13782300E+02</totfact>
</mgrwt>
</event>
<event>
12    7  0.1544987E-007  0.1079215E+04  0.7818608E-02  0.9225691E-01
          2   -1    0    0  501    0  0.00000000000E+00  0.00000000000E+00  0.96980146361E+03  0.96980146361E+03  0.00000000000E+00 0. -1.
         -1   -1    0    0    0  501 -0.00000000000E+00 -0.00000000000E+00 -0.30024310629E+03  0.30024310629E+03  0.00000000000E+00 0.  1.
         24    2    1    2    0    0  0.14326612991E+03  0.40677502041E+01  0.13991107195E+03  0.21668845856E+03  0.82686452617E+02 0.  0.
        254    2    1    2    0    0 -0.14326612991E+03 -0.40677502041E+01  0.52964728537E+03  0.10533561113E+04  0.89916134250E+03 0.  0.
         23    2    4    4    0    0 -0.45482715844E+03 -0.22842179632E+03  0.30947085680E+03  0.60247243689E+03  0.90313702761E+02 0.  0.
         23    2    4    4    0    0  0.31156102853E+03  0.22435404612E+03  0.22017642856E+03  0.45088367446E+03  0.86101194465E+02 0.  0.
          4    1    3    3  502    0  0.47764629564E+02 -0.34462417497E+02  0.73342609974E+02  0.94065171530E+02  0.00000000000E+00 0. -1.
         -3    1    3    3    0  502  0.95501500348E+02  0.38530167701E+02  0.66568461976E+02  0.12262328703E+03  0.00000000000E+00 0.  1.
         13    1    5    5    0    0 -0.43835759089E+03 -0.23699935377E+03  0.29937785664E+03  0.58133739964E+03  0.00000000000E+00 0. -1.
        -13    1    5    5    0    0 -0.16469567555E+02  0.85775574432E+01  0.10093000161E+02  0.21135037246E+02  0.00000000000E+00 0.  1.
          4    1    6    6  503    0  0.25747353993E+03  0.21993405157E+03  0.18105855728E+03  0.38398673411E+03  0.00000000000E+00 0. -1.
         -4    1    6    6    0  503  0.54087488599E+02  0.44199945499E+01  0.39117871280E+02  0.66896940350E+02  0.00000000000E+00 0.  1.
<mgrwt>
<rscale>  0 0.10792149E+04</rscale>
<asrwt>0</asrwt>
<pdfrwt beam="1">  1        2 0.14920022E+00 0.10792149E+04</pdfrwt>
<pdfrwt beam="2">  1       -1 0.46191248E-01 0.10792149E+04</pdfrwt>
<totfact> 0.13924467E+02</totfact>
</mgrwt>
</event>
<event>
12    7  0.1544987E-007  0.1859778E+04  0.7818608E-02  0.8675140E-01
         -1   -1    0    0    0  501 -0.00000000000E+00  0.00000000000E+00  0.91396825436E+03  0.91396825436E+03  0.00000000000E+00 0.  1.
          2   -1    0    0  501    0  0.00000000000E+00 -0.00000000000E+00 -0.94608725736E+03  0.94608725736E+03  0.00000000000E+00 0. -1.
         24    2    1    2    0    0  0.14767361973E+03  0.23792095399E+03 -0.67110422768E+03  0.73161525492E+03  0.80412178881E+02 0.  0.
        254    2    1    2    0    0 -0.14767361973E+03 -0.23792095399E+03  0.63898522468E+03  0.11284402568E+04  0.88693935390E+03 0.  0.
         23    2    4    4    0    0  0.25405901821E+03 -0.35548269563E+03  0.13511504595E+03  0.46653496247E+03  0.92113321175E+02 0.  0.
         23    2    4    4    0    0 -0.40173263794E+03  0.11756174164E+03  0.50387017874E+03  0.66190529433E+03  0.94992558443E+02 0.  0.
          4    1    3    3  502    0  0.10380221377E+03  0.14010371234E+03 -0.50171757871E+03  0.53115391233E+03  0.00000000000E+00 0. -1.
         -3    1    3    3    0  502  0.43871405966E+02  0.97817241649E+02 -0.16938664897E+03  0.20046134259E+03  0.00000000000E+00 0.  1.
         13    1    5    5    0    0  0.21047232873E+03 -0.25409361449E+03  0.13414432788E+03  0.35616971627E+03  0.00000000000E+00 0.  1.
        -13    1    5    5    0    0  0.43586689477E+02 -0.10138908115E+03  0.97071806434E+00  0.11036524620E+03  0.00000000000E+00 0. -1.
          4    1    6    6  503    0 -0.17622897477E+03  0.50703941313E+01  0.18630204716E+03  0.25649719925E+03  0.00000000000E+00 0. -1.
         -4    1    6    6    0  503 -0.22550366317E+03  0.11249134751E+03  0.31756813157E+03  0.40540809509E+03  0.00000000000E+00 0.  1.
<mgrwt>
<rscale>  0 0.18597782E+04</rscale>
<asrwt>0</asrwt>
<pdfrwt beam="1">  1        2 0.14555189E+00 0.18597782E+04</pdfrwt>
<pdfrwt beam="2">  1       -1 0.14061050E+00 0.18597782E+04</pdfrwt>
<totfact> 0.12134582E+01</totfact>
</mgrwt>
</event>
<event>
12    7  0.1544987E-007  0.1492161E+04  0.7818608E-02  0.8889683E-01
          2   -1    0    0  501    0  0.00000000000E+00  0.00000000000E+00  0.66609537201E+03  0.66609537201E+03  0.00000000000E+00 0. -1.
         -1   -1    0    0    0  501 -0.00000000000E+00 -0.00000000000E+00 -0.83567025737E+03  0.83567025737E+03  0.00000000000E+00 0.  1.
         24    2    1    2    0    0 -0.43019908725E+02  0.46036480306E+03  0.25357646266E+02  0.47224062216E+03  0.92637630293E+02 0.  0.
        254    2    1    2    0    0  0.43019908725E+02 -0.46036480306E+03 -0.19493253162E+03  0.10295250072E+04  0.89896417291E+03 0.  0.
         23    2    4    4    0    0  0.31795950041E+02 -0.55198474934E+03  0.21437643647E+03  0.60003797700E+03  0.91597878692E+02 0.  0.
         23    2    4    4    0    0  0.11223958684E+02  0.91619946281E+02 -0.40930896809E+03  0.42948703022E+03  0.91679255925E+02 0.  0.
          2    1    3    3  502    0 -0.29169772457E+02  0.31821832110E+03  0.60339105723E+02  0.32519929765E+03  0.00000000000E+00 0. -1.
         -1    1    3    3    0  502 -0.13850136268E+02  0.14214648196E+03 -0.34981459456E+02  0.14704132451E+03  0.00000000000E+00 0.  1.
         13    1    5    5    0    0  0.58683740606E+02 -0.31950713540E+03  0.10245917139E+03  0.34062658849E+03  0.00000000000E+00 0. -1.
        -13    1    5    5    0    0 -0.26887790565E+02 -0.23247761394E+03  0.11191726508E+03  0.25941138851E+03  0.00000000000E+00 0.  1.
          3    1    6    6  503    0  0.47974205564E+02  0.30901301329E+02 -0.22094731976E+03  0.22819757433E+03  0.00000000000E+00 0. -1.
         -3    1    6    6    0  503 -0.36750246880E+02  0.60718644952E+02 -0.18836164833E+03  0.20128945589E+03  0.00000000000E+00 0.  1.
<mgrwt>
<rscale>  0 0.14921610E+04</rscale>
<asrwt>0</asrwt>
<pdfrwt beam="1">  1        2 0.10247621E+00 0.14921610E+04</pdfrwt>
<pdfrwt beam="2">  1       -1 0.12856465E+00 0.14921610E+04</pdfrwt>
<totfact> 0.25128080E+01</totfact>
</mgrwt>
</event>
<event>
12    7  0.1544987E-007  0.3245006E+04  0.7818608E-02  0.8177031E-01
         -1   -1    0    0    0  501 -0.00000000000E+00  0.00000000000E+00  0.20000870647E+04  0.20000870647E+04  0.00000000000E+00 0.  1.
          2   -1    0    0  501    0  0.00000000000E+00 -0.00000000000E+00 -0.13162006174E+04  0.13162006174E+04  0.00000000000E+00 0. -1.
         24    2    1    2    0    0 -0.10092243120E+04 -0.25123075677E+03 -0.78535173200E+03  0.13056238162E+04  0.78902479131E+02 0.  0.
        254    2    1    2    0    0  0.10092243120E+04  0.25123075677E+03  0.14692381792E+04  0.20106638659E+04  0.89580006095E+03 0.  0.
         23    2    4    4    0    0  0.10451374018E+04  0.28044340384E+03  0.83949246051E+03  0.13725552781E+04  0.90552243894E+02 0.  0.
         23    2    4    4    0    0 -0.35913089763E+02 -0.29212647070E+02  0.62974571873E+03  0.63810858778E+03  0.91977012223E+02 0.  0.
          4    1    3    3  502    0 -0.53971720781E+03 -0.16067257104E+03 -0.46203470122E+03  0.72841362193E+03  0.00000000000E+00 0. -1.
         -3    1    3    3    0  502 -0.46950710423E+03 -0.90558185725E+02 -0.32331703078E+03  0.57721019423E+03  0.00000000000E+00 0.  1.
         13    1    5    5    0    0  0.88274600753E+03  0.24061939749E+03  0.66654728868E+03  0.11319997775E+04  0.00000000000E+00 0. -1.
        -13    1    5    5    0    0  0.16239139427E+03  0.39824006344E+02  0.17294517183E+03  0.24055550061E+03  0.00000000000E+00 0.  1.
          1    1    6    6  503    0 -0.52555674519E+02 -0.46090690209E+02  0.32449400303E+03  0.33193795904E+03  0.00000000000E+00 0. -1.
         -1    1    6    6    0  503  0.16642584756E+02  0.16878043139E+02  0.30525171570E+03  0.30617062874E+03  0.00000000000E+00 0.  1.
<mgrwt>
<rscale>  0 0.32450059E+04</rscale>
<asrwt>0</asrwt>
<pdfrwt beam="1">  1        2 0.20249240E+00 0.32450059E+04</pdfrwt>
<pdfrwt beam="2">  1       -1 0.30770570E+00 0.32450059E+04</pdfrwt>
<totfact> 0.45480107E-01</totfact>
</mgrwt>
</event>
<event>
12    7  0.1544987E-007  0.1118533E+04  0.7818608E-02  0.9187314E-01
         -1   -1    0    0    0  501 -0.00000000000E+00  0.00000000000E+00  0.19671534023E+03  0.19671534023E+03  0.00000000000E+00 0.  1.
          2   -1    0    0  501    0  0.00000000000E+00 -0.00000000000E+00 -0.15900082012E+04  0.15900082012E+04  0.00000000000E+00 0. -1.
         24    2    1    2    0    0 -0.17755822921E+02 -0.16258506394E+03 -0.35160059132E+03  0.39540740006E+03  0.77297244064E+02 0.  0.
        254    2    1    2    0    0  0.17755822921E+02  0.16258506394E+03 -0.10416922696E+04  0.13913161413E+04  0.90768312108E+03 0.  0.
         23    2    4    4    0    0  0.30214924544E+03 -0.25654551946E+03 -0.41956633363E+03  0.58392697425E+03  0.88459215829E+02 0.  0.
         23    2    4    4    0    0 -0.28439342252E+03  0.41913058341E+03 -0.62212593601E+03  0.80738916710E+03  0.91030336559E+02 0.  0.
          4    1    3    3  502    0 -0.13878062522E+02 -0.10595807234E+03 -0.30085758985E+03  0.31927261562E+03  0.00000000000E+00 0. -1.
         -3    1    3    3    0  502 -0.38777603990E+01 -0.56626991601E+02 -0.50743001469E+02  0.76134784439E+02  0.00000000000E+00 0.  1.
         13    1    5    5    0    0  0.99638865093E+02 -0.42109411773E+02 -0.82544589979E+02  0.13606878897E+03  0.00000000000E+00 0.  1.
        -13    1    5    5    0    0  0.20251038035E+03 -0.21443610769E+03 -0.33702174365E+03  0.44785818528E+03  0.00000000000E+00 0. -1.
          2    1    6    6  503    0 -0.68482479811E+02  0.17923051512E+03 -0.23285535661E+03  0.30172014300E+03  0.00000000000E+00 0. -1.
         -2    1    6    6    0  503 -0.21591094271E+03  0.23990006829E+03 -0.38927057939E+03  0.50566902409E+03  0.00000000000E+00 0.  1.
<mgrwt>
<rscale>  0 0.11185330E+04</rscale>
<asrwt>0</asrwt>
<pdfrwt beam="1">  1        2 0.24461665E+00 0.11185330E+04</pdfrwt>
<pdfrwt beam="2">  1       -1 0.30263898E-01 0.11185330E+04</pdfrwt>
<totfact> 0.12819861E+02</totfact>
</mgrwt>
</event>
<event>
12    7  0.1544987E-007  0.2183294E+04  0.7818608E-02  0.8525414E-01
         -1   -1    0    0    0  501 -0.00000000000E+00  0.00000000000E+00  0.42630038965E+03  0.42630038965E+03  0.00000000000E+00 0.  1.
          2   -1    0    0  501    0  0.00000000000E+00 -0.00000000000E+00 -0.27954310073E+04  0.27954310073E+04  0.00000000000E+00 0. -1.
         24    2    1    2    0    0 -0.88115178806E+02  0.15254169621E+03 -0.22869821945E+04  0.22951205248E+04  0.79103801429E+02 0.  0.
        254    2    1    2    0    0  0.88115178806E+02 -0.15254169621E+03 -0.82148423188E+02  0.92661087223E+03  0.90599453159E+03 0.  0.
         23    2    4    4    0    0  0.23027068174E+03  0.32768848417E+03 -0.74872863640E+02  0.41735836540E+03  0.90430801914E+02 0.  0.
         23    2    4    4    0    0 -0.14215550293E+03 -0.48023018038E+03 -0.72755595484E+01  0.50925250683E+03  0.91956341684E+02 0.  0.
          4    1    3    3  502    0 -0.82301032592E+02  0.63708055925E+02 -0.12232695850E+04  0.12276891520E+04  0.00000000000E+00 0. -1.
         -3    1    3    3    0  502 -0.58141462147E+01  0.88833640288E+02 -0.10637126095E+04  0.10674313727E+04  0.00000000000E+00 0.  1.
         13    1    5    5    0    0  0.10999406773E+03  0.23243915243E+03 -0.45318070322E+02  0.26111373387E+03  0.00000000000E+00 0.  1.
        -13    1    5    5    0    0  0.12027661401E+03  0.95249331739E+02 -0.29554793318E+02  0.15624463153E+03  0.00000000000E+00 0. -1.
          1    1    6    6  503    0 -0.43276276697E+02 -0.59179359154E+02 -0.21850947222E+02  0.76501611546E+02  0.00000000000E+00 0. -1.
         -1    1    6    6    0  503 -0.98879226236E+02 -0.42105082123E+03  0.14575387674E+02  0.43275089528E+03  0.00000000000E+00 0.  1.
<mgrwt>
<rscale>  0 0.21832941E+04</rscale>
<asrwt>0</asrwt>
<pdfrwt beam="1">  1        2 0.43006630E+00 0.21832941E+04</pdfrwt>
<pdfrwt beam="2">  1       -1 0.65584676E-01 0.21832941E+04</pdfrwt>
<totfact> 0.57161546E+00</totfact>
</mgrwt>
</event>
<event>
12    7  0.1544987E-007  0.3257656E+04  0.7818608E-02  0.8173754E-01
         -1   -1    0    0    0  501 -0.00000000000E+00  0.00000000000E+00  0.15993464575E+04  0.15993464575E+04  0.00000000000E+00 0.  1.
          2   -1    0    0  501    0  0.00000000000E+00 -0.00000000000E+00 -0.16588526707E+04  0.16588526707E+04  0.00000000000E+00 0. -1.
         24    2    1    2    0    0  0.46897736694E+03  0.83130426278E+03 -0.11954970219E+04  0.15319030939E+04  0.80668529655E+02 0.  0.
        254    2    1    2    0    0 -0.46897736694E+03 -0.83130426278E+03  0.11359908088E+04  0.17262960343E+04  0.88239239149E+03 0.  0.
         23    2    4    4    0    0 -0.46261364208E+03 -0.95230298206E+03  0.72109319203E+03  0.12842466708E+04  0.91770193573E+02 0.  0.
         23    2    4    4    0    0 -0.63637248666E+01  0.12099871928E+03  0.41489761673E+03  0.44204936352E+03  0.92662939512E+02 0.  0.
          4    1    3    3  502    0  0.37564678998E+03  0.65659088336E+03 -0.89308151638E+03  0.11703916839E+04  0.00000000000E+00 0. -1.
         -3    1    3    3    0  502  0.93330576964E+02  0.17471337942E+03 -0.30241550555E+03  0.36151140997E+03  0.00000000000E+00 0.  1.
         13    1    5    5    0    0 -0.12451960898E+03 -0.17767236876E+03  0.16388366978E+03  0.27190156465E+03  0.00000000000E+00 0.  1.
        -13    1    5    5    0    0 -0.33809403309E+03 -0.77463061330E+03  0.55720952226E+03  0.10123451062E+04  0.00000000000E+00 0. -1.
          4    1    6    6  503    0 -0.15567498853E+02  0.61048123119E+02  0.33943890842E+03  0.34523614079E+03  0.00000000000E+00 0. -1.
         -4    1    6    6    0  503  0.92037739863E+01  0.59950596165E+02  0.75458708307E+02  0.96813222730E+02  0.00000000000E+00 0.  1.
<mgrwt>
<rscale>  0 0.32576557E+04</rscale>
<asrwt>0</asrwt>
<pdfrwt beam="1">  1        2 0.25520810E+00 0.32576557E+04</pdfrwt>
<pdfrwt beam="2">  1       -1 0.24605330E+00 0.32576557E+04</pdfrwt>
<totfact> 0.72970430E-01</totfact>
</mgrwt>
</event>
<event>
12    7  0.1544987E-007  0.1287866E+04  0.7818608E-02  0.9039243E-01
          2   -1    0    0  501    0  0.00000000000E+00  0.00000000000E+00  0.12134343588E+04  0.12134343588E+04  0.00000000000E+00 0. -1.
         -1   -1    0    0    0  501 -0.00000000000E+00 -0.00000000000E+00 -0.34171593915E+03  0.34171593915E+03  0.00000000000E+00 0.  1.
         24    2    1    2    0    0  0.17150825354E+03  0.14549829572E+03 -0.60995292020E+02  0.24612686468E+03  0.79203363408E+02 0.  0.
        254    2    1    2    0    0 -0.17150825354E+03 -0.14549829572E+03  0.93271371167E+03  0.13090234333E+04  0.89050696001E+03 0.  0.
         23    2    4    4    0    0 -0.30692067832E+03 -0.31921929932E+03  0.96874896763E+03  0.10688110721E+04  0.88211573892E+02 0.  0.
         23    2    4    4    0    0  0.13541242477E+03  0.17372100360E+03 -0.36035255956E+02  0.24021236116E+03  0.88814001737E+02 0.  0.
          4    1    3    3  502    0  0.11129221784E+02  0.50118970095E+02 -0.19872396493E+02  0.55051638334E+02  0.00000000000E+00 0. -1.
         -3    1    3    3    0  502  0.16037903176E+03  0.95379325628E+02 -0.41122895528E+02  0.19107522634E+03  0.00000000000E+00 0.  1.
         13    1    5    5    0    0 -0.27732785647E+02 -0.59428433957E+02  0.20339855001E+03  0.21370965422E+03  0.00000000000E+00 0. -1.
        -13    1    5    5    0    0 -0.27918789267E+03 -0.25979086537E+03  0.76535041762E+03  0.85510141790E+03  0.00000000000E+00 0.  1.
          2    1    6    6  503    0 -0.55915666688E+01  0.32175351678E+02 -0.23098668161E+02  0.40000841794E+02  0.00000000000E+00 0. -1.
         -2    1    6    6    0  503  0.14100399144E+03  0.14154565192E+03 -0.12936587795E+02  0.20021151936E+03  0.00000000000E+00 0.  1.
<mgrwt>
<rscale>  0 0.12878662E+04</rscale>
<asrwt>0</asrwt>
<pdfrwt beam="1">  1        2 0.18668221E+00 0.12878662E+04</pdfrwt>
<pdfrwt beam="2">  1       -1 0.52571684E-01 0.12878662E+04</pdfrwt>
<totfact> 0.75807082E+01</totfact>
</mgrwt>
</event>
<event>
12    7  0.1544987E-007  0.1682991E+04  0.7818608E-02  0.8771125E-01
          2   -1    0    0  501    0  0.00000000000E+00  0.00000000000E+00  0.12359678721E+04  0.12359678721E+04  0.00000000000E+00 0. -1.
         -3   -1    0    0    0  501 -0.00000000000E+00 -0.00000000000E+00 -0.57292316990E+03  0.57292316990E+03  0.00000000000E+00 0.  1.
         24    2    1    2    0    0  0.56263049224E+02 -0.11415329546E+03  0.89507929116E+03  0.90767366228E+03  0.80672387824E+02 0.  0.
        254    2    1    2    0    0 -0.56263049224E+02  0.11415329546E+03 -0.23203458895E+03  0.90121737973E+03  0.86148488640E+03 0.  0.
         23    2    4    4    0    0 -0.31780472674E+03 -0.18078259870E+03  0.85896774668E+02  0.38727550712E+03  0.94455651952E+02 0.  0.
         23    2    4    4    0    0  0.26154167752E+03  0.29493589415E+03 -0.31793136362E+03  0.51394187261E+03  0.87548076603E+02 0.  0.
          4    1    3    3  502    0  0.66252094286E+02 -0.97593383297E+02  0.85580706058E+03  0.86389787208E+03  0.00000000000E+00 0. -1.
         -3    1    3    3    0  502 -0.99890450617E+01 -0.16559912159E+02  0.39272230583E+02  0.43775790192E+02  0.00000000000E+00 0.  1.
         13    1    5    5    0    0 -0.63581823770E+02 -0.48595543570E+02  0.59111849524E+02  0.99490632338E+02  0.00000000000E+00 0. -1.
        -13    1    5    5    0    0 -0.25422290297E+03 -0.13218705513E+03  0.26784925144E+02  0.28778487478E+03  0.00000000000E+00 0.  1.
          1    1    6    6  503    0  0.24830834188E+03  0.29156907990E+03 -0.28227771089E+03  0.47576282649E+03  0.00000000000E+00 0. -1.
         -1    1    6    6    0  503  0.13233335631E+02  0.33668142505E+01 -0.35653652728E+02  0.38179046124E+02  0.00000000000E+00 0.  1.
<mgrwt>
<rscale>  0 0.16829909E+04</rscale>
<asrwt>0</asrwt>
<pdfrwt beam="1">  1        2 0.19014890E+00 0.16829909E+04</pdfrwt>
<pdfrwt beam="2">  1       -3 0.88142027E-01 0.16829909E+04</pdfrwt>
<totfact> 0.12769465E+01</totfact>
</mgrwt>
</event>
<event>
12    7  0.1544987E-007  0.1424986E+04  0.7818608E-02  0.8935929E-01
         -1   -1    0    0    0  501 -0.00000000000E+00  0.00000000000E+00  0.36341993056E+03  0.36341993056E+03  0.00000000000E+00 0.  1.
          2   -1    0    0  501    0  0.00000000000E+00 -0.00000000000E+00 -0.13968582958E+04  0.13968582958E+04  0.00000000000E+00 0. -1.
         24    2    1    2    0    0  0.37596245364E+03 -0.55323192282E+02 -0.81912542954E+02  0.39626069375E+03  0.76840422757E+02 0.  0.
        254    2    1    2    0    0 -0.37596245364E+03  0.55323192282E+02 -0.95152582227E+03  0.13640175326E+04  0.90040769466E+03 0.  0.
         23    2    4    4    0    0  0.77454834758E+02  0.22493335377E+03  0.38430582842E+02  0.25884874723E+03  0.94506609181E+02 0.  0.
         23    2    4    4    0    0 -0.45341728840E+03 -0.16961016149E+03 -0.98995640512E+03  0.11051687854E+04  0.83842207738E+02 0.  0.
          4    1    3    3  502    0  0.38104065750E+02  0.14799528742E+02 -0.20681954111E+02  0.45811451663E+02  0.00000000000E+00 0. -1.
         -3    1    3    3    0  502  0.33785838789E+03 -0.70122721024E+02 -0.61230588843E+02  0.35044924209E+03  0.00000000000E+00 0.  1.
         13    1    5    5    0    0  0.68719734383E+02  0.22493989559E+03  0.53702018606E+02  0.24125560164E+03  0.00000000000E+00 0. -1.
        -13    1    5    5    0    0  0.87351003749E+01 -0.65418190018E-02 -0.15271435764E+02  0.17593145587E+02  0.00000000000E+00 0.  1.
          2    1    6    6  503    0 -0.33213339922E+03 -0.83379341306E+02 -0.69767552285E+03  0.77718456277E+03  0.00000000000E+00 0. -1.
         -2    1    6    6    0  503 -0.12128388918E+03 -0.86230820183E+02 -0.29228088227E+03  0.32798422258E+03  0.00000000000E+00 0.  1.
<mgrwt>
<rscale>  0 0.14249858E+04</rscale>
<asrwt>0</asrwt>
<pdfrwt beam="1">  1        2 0.21490128E+00 0.14249858E+04</pdfrwt>
<pdfrwt beam="2">  1       -1 0.55910758E-01 0.14249858E+04</pdfrwt>
<totfact> 0.52060130E+01</totfact>
</mgrwt>
</event>
<event>
12    7  0.1544987E-007  0.2063829E+04  0.7818608E-02  0.8577347E-01
         -1   -1    0    0    0  501 -0.00000000000E+00  0.00000000000E+00  0.83799945914E+03  0.83799945914E+03  0.00000000000E+00 0.  1.
          2   -1    0    0  501    0  0.00000000000E+00 -0.00000000000E+00 -0.12707016309E+04  0.12707016309E+04  0.00000000000E+00 0. -1.
         24    2    1    2    0    0 -0.52822627368E+03 -0.58088163245E+03 -0.46364659041E+03  0.91528383887E+03  0.79560529056E+02 0.  0.
        254    2    1    2    0    0  0.52822627368E+03  0.58088163245E+03  0.30944418617E+02  0.11934172512E+04  0.89824312483E+03 0.  0.
         23    2    4    4    0    0 -0.46327103128E+02  0.44224487211E+03 -0.26456348146E+03  0.52561308001E+03  0.92458351480E+02 0.  0.
         23    2    4    4    0    0  0.57455337681E+03  0.13863676034E+03  0.29550790008E+03  0.66780417120E+03  0.96466356498E+02 0.  0.
          2    1    3    3  502    0 -0.36438075637E+03 -0.40213051711E+03 -0.36221020481E+03  0.65244043473E+03  0.00000000000E+00 0. -1.
         -1    1    3    3    0  502 -0.16384551732E+03 -0.17875111534E+03 -0.10143638560E+03  0.26284340414E+03  0.00000000000E+00 0.  1.
         13    1    5    5    0    0 -0.56114457192E+02  0.19926482409E+03 -0.15646058936E+03  0.25949030512E+03  0.00000000000E+00 0.  1.
        -13    1    5    5    0    0  0.97873540635E+01  0.24298004802E+03 -0.10810289210E+03  0.26612277489E+03  0.00000000000E+00 0. -1.
          2    1    6    6  503    0  0.71281969388E+01  0.94853802616E+01  0.21561359891E+02  0.24610482942E+02  0.00000000000E+00 0. -1.
         -2    1    6    6    0  503  0.56742517987E+03  0.12915138007E+03  0.27394654019E+03  0.64319368825E+03  0.00000000000E+00 0.  1.
<mgrwt>
<rscale>  0 0.20638288E+04</rscale>
<asrwt>0</asrwt>
<pdfrwt beam="1">  1        2 0.19549256E+00 0.20638288E+04</pdfrwt>
<pdfrwt beam="2">  1       -1 0.12892299E+00 0.20638288E+04</pdfrwt>
<totfact> 0.93849956E+00</totfact>
</mgrwt>
</event>
<event>
12    7  0.1544987E-007  0.1646595E+04  0.7818608E-02  0.8792423E-01
         -1   -1    0    0    0  501 -0.00000000000E+00  0.00000000000E+00  0.82321182947E+03  0.82321182947E+03  0.00000000000E+00 0.  1.
          2   -1    0    0  501    0  0.00000000000E+00 -0.00000000000E+00 -0.82338344587E+03  0.82338344587E+03  0.00000000000E+00 0. -1.
         24    2    1    2    0    0  0.53225367008E+03  0.16647024626E+03  0.84659788765E+02  0.56974292508E+03  0.80208532272E+02 0.  0.
        254    2    1    2    0    0 -0.53225367008E+03 -0.16647024626E+03 -0.84831405166E+02  0.10768523503E+04  0.91728311046E+03 0.  0.
         23    2    4    4    0    0 -0.69794590813E+03 -0.30447831513E+03 -0.23064358958E+03  0.80083603896E+03  0.91139238607E+02 0.  0.
         23    2    4    4    0    0  0.16569223806E+03  0.13800806888E+03  0.14581218441E+03  0.27601631129E+03  0.91780532516E+02 0.  0.
          4    1    3    3  502    0  0.81712750866E+00 -0.19882031583E+01  0.64349855544E+01  0.67845182769E+01  0.00000000000E+00 0. -1.
         -3    1    3    3    0  502  0.53143654257E+03  0.16845844941E+03  0.78224803211E+02  0.56295840681E+03  0.00000000000E+00 0.  1.
         13    1    5    5    0    0 -0.46617569643E+03 -0.20095942445E+03 -0.10837306605E+03  0.51908495612E+03  0.00000000000E+00 0. -1.
        -13    1    5    5    0    0 -0.23177021170E+03 -0.10351889068E+03 -0.12227052352E+03  0.28175108284E+03  0.00000000000E+00 0.  1.
          1    1    6    6  503    0  0.16315738983E+03  0.10621866850E+03  0.96498182859E+02  0.21728929723E+03  0.00000000000E+00 0. -1.
         -1    1    6    6    0  503  0.25348482255E+01  0.31789400379E+02  0.49314001551E+02  0.58727014065E+02  0.00000000000E+00 0.  1.
<mgrwt>
<rscale>  0 0.16465953E+04</rscale>
<asrwt>0</asrwt>
<pdfrwt beam="1">  1        2 0.12667438E+00 0.16465953E+04</pdfrwt>
<pdfrwt beam="2">  1       -1 0.12664797E+00 0.16465953E+04</pdfrwt>
<totfact> 0.19582272E+01</totfact>
</mgrwt>
</event>
<event>
12    7  0.1544987E-007  0.1851101E+04  0.7818608E-02  0.8679587E-01
         -1   -1    0    0    0  501 -0.00000000000E+00  0.00000000000E+00  0.87500888664E+03  0.87500888664E+03  0.00000000000E+00 0.  1.
          2   -1    0    0  501    0  0.00000000000E+00 -0.00000000000E+00 -0.97901174338E+03  0.97901174338E+03  0.00000000000E+00 0. -1.
         24    2    1    2    0    0 -0.67859487016E+03 -0.18723510717E+03  0.12155973974E+02  0.70863440920E+03  0.80417504530E+02 0.  0.
        254    2    1    2    0    0  0.67859487016E+03  0.18723510717E+03 -0.11615883072E+03  0.11453862208E+04  0.89602942904E+03 0.  0.
         23    2    4    4    0    0  0.31061246614E+03  0.35568190066E+03  0.29302146553E+03  0.56319411563E+03  0.91303417434E+02 0.  0.
         23    2    4    4    0    0  0.36798240402E+03 -0.16844679349E+03 -0.40918029625E+03  0.58219210519E+03  0.87941802318E+02 0.  0.
          4    1    3    3  502    0 -0.54617492788E+03 -0.15602312260E+03 -0.21696503810E+02  0.56843733595E+03  0.00000000000E+00 0. -1.
         -3    1    3    3    0  502 -0.13241994229E+03 -0.31211984572E+02  0.33852477785E+02  0.14019707325E+03  0.00000000000E+00 0.  1.
         13    1    5    5    0    0  0.17522135578E+03  0.25975038293E+03  0.16869516823E+03  0.35585227937E+03  0.00000000000E+00 0.  1.
        -13    1    5    5    0    0  0.13539111036E+03  0.95931517733E+02  0.12432629731E+03  0.20734183626E+03  0.00000000000E+00 0. -1.
          1    1    6    6  503    0  0.14629758980E+03 -0.60119659592E+02 -0.22155691132E+03  0.27222201088E+03  0.00000000000E+00 0. -1.
         -1    1    6    6    0  503  0.22168481422E+03 -0.10832713390E+03 -0.18762338493E+03  0.30997009431E+03  0.00000000000E+00 0.  1.
<mgrwt>
<rscale>  0 0.18511013E+04</rscale>
<asrwt>0</asrwt>
<pdfrwt beam="1">  1        2 0.15061719E+00 0.18511013E+04</pdfrwt>
<pdfrwt beam="2">  1       -1 0.13461675E+00 0.18511013E+04</pdfrwt>
<totfact> 0.12936791E+01</totfact>
</mgrwt>
</event>
<event>
12    7  0.1544987E-007  0.1103992E+04  0.7818608E-02  0.9201310E-01
         -1   -1    0    0    0  501 -0.00000000000E+00  0.00000000000E+00  0.11391621213E+03  0.11391621213E+03  0.00000000000E+00 0.  1.
          2   -1    0    0  501    0  0.00000000000E+00 -0.00000000000E+00 -0.26747669036E+04  0.26747669036E+04  0.00000000000E+00 0. -1.
         24    2    1    2    0    0  0.10510449427E+03 -0.22272309472E+02 -0.75367242992E+03  0.76550788595E+03  0.80232046813E+02 0.  0.
        254    2    1    2    0    0 -0.10510449427E+03  0.22272309472E+02 -0.18071782616E+04  0.20231752298E+04  0.90321743279E+03 0.  0.
         23    2    4    4    0    0  0.27661855420E+03  0.30513495419E+03 -0.92285074381E+03  0.10150454284E+04  0.95071349400E+02 0.  0.
         23    2    4    4    0    0 -0.38172304847E+03 -0.28286264472E+03 -0.88432751776E+03  0.10081298014E+04  0.92556881888E+02 0.  0.
          2    1    3    3  502    0  0.10018053551E+03 -0.19845990009E+02 -0.75309510032E+03  0.75998831118E+03  0.00000000000E+00 0. -1.
         -1    1    3    3    0  502  0.49239587681E+01 -0.24263194629E+01 -0.57732960429E+00  0.55195747625E+01  0.00000000000E+00 0.  1.
         13    1    5    5    0    0  0.16012175477E+03  0.12993431370E+03 -0.54269546629E+03  0.58055169568E+03  0.00000000000E+00 0. -1.
        -13    1    5    5    0    0  0.11649679943E+03  0.17520064049E+03 -0.38015527752E+03  0.43449373267E+03  0.00000000000E+00 0.  1.
          4    1    6    6  503    0 -0.34336407855E+03 -0.26907304067E+03 -0.74877792721E+03  0.86658385395E+03  0.00000000000E+00 0. -1.
         -4    1    6    6    0  503 -0.38358969924E+02 -0.13789604042E+02 -0.13554959056E+03  0.14154594750E+03  0.00000000000E+00 0.  1.
<mgrwt>
<rscale>  0 0.11039915E+04</rscale>
<asrwt>0</asrwt>
<pdfrwt beam="1">  1        2 0.41150261E+00 0.11039915E+04</pdfrwt>
<pdfrwt beam="2">  1       -1 0.17525571E-01 0.11039915E+04</pdfrwt>
<totfact> 0.80149801E+01</totfact>
</mgrwt>
</event>
<event>
12    7  0.1544987E-007  0.1749729E+04  0.7818608E-02  0.8733500E-01
          2   -1    0    0  501    0  0.00000000000E+00  0.00000000000E+00  0.88931158550E+03  0.88931158550E+03  0.00000000000E+00 0. -1.
         -1   -1    0    0    0  501 -0.00000000000E+00 -0.00000000000E+00 -0.86065166975E+03  0.86065166975E+03  0.00000000000E+00 0.  1.
         24    2    1    2    0    0 -0.22250664649E+03  0.22129255030E+03  0.57720882689E+03  0.66189560795E+03  0.80350267148E+02 0.  0.
        254    2    1    2    0    0  0.22250664649E+03 -0.22129255030E+03 -0.54854891115E+03  0.10880676473E+04  0.88572326188E+03 0.  0.
         23    2    4    4    0    0 -0.25149448900E+03 -0.30005541771E+03 -0.42210638382E+03  0.58301843467E+03  0.91945441459E+02 0.  0.
         23    2    4    4    0    0  0.47400113549E+03  0.78762867418E+02 -0.12644252733E+03  0.50504921263E+03  0.90588789206E+02 0.  0.
          4    1    3    3  502    0 -0.21018099537E+03  0.21622544737E+03  0.50270816236E+03  0.58621241151E+03  0.00000000000E+00 0. -1.
         -1    1    3    3    0  502 -0.12325651120E+02  0.50671029307E+01  0.74500664534E+02  0.75683196442E+02  0.00000000000E+00 0.  1.
         13    1    5    5    0    0 -0.21397953957E+02 -0.82402017571E+02 -0.98820638257E+02  0.13043574464E+03  0.00000000000E+00 0.  1.
        -13    1    5    5    0    0 -0.23009653504E+03 -0.21765340014E+03 -0.32328574556E+03  0.45258269003E+03  0.00000000000E+00 0. -1.
          1    1    6    6  503    0  0.44682632655E+03  0.50770464229E+02 -0.11190916956E+03  0.46341673293E+03  0.00000000000E+00 0. -1.
         -1    1    6    6    0  503  0.27174808946E+02  0.27992403189E+02 -0.14533357768E+02  0.41632479695E+02  0.00000000000E+00 0.  1.
<mgrwt>
<rscale>  0 0.17497286E+04</rscale>
<asrwt>0</asrwt>
<pdfrwt beam="1">  1        2 0.13681717E+00 0.17497286E+04</pdfrwt>
<pdfrwt beam="2">  1       -1 0.13240795E+00 0.17497286E+04</pdfrwt>
<totfact> 0.15614383E+01</totfact>
</mgrwt>
</event>
<event>
12    7  0.1544987E-007  0.2188800E+04  0.7818608E-02  0.8523104E-01
          2   -1    0    0  501    0  0.00000000000E+00  0.00000000000E+00  0.23020461068E+04  0.23020461068E+04  0.00000000000E+00 0. -1.
         -1   -1    0    0    0  501 -0.00000000000E+00 -0.00000000000E+00 -0.52028118387E+03  0.52028118387E+03  0.00000000000E+00 0.  1.
         24    2    1    2    0    0  0.90505590927E+03 -0.86220303051E+01  0.80744976461E+03  0.12155776308E+04  0.80332533058E+02 0.  0.
        254    2    1    2    0    0 -0.90505590927E+03  0.86220303051E+01  0.97431515830E+03  0.16067496598E+04  0.90175046622E+03 0.  0.
         23    2    4    4    0    0 -0.66822474949E+03 -0.39809353390E+03  0.48238167486E+03  0.91988309013E+03  0.92141422225E+02 0.  0.
         23    2    4    4    0    0 -0.23683115978E+03  0.40671556420E+03  0.49193348344E+03  0.68686656970E+03  0.90997714427E+02 0.  0.
          2    1    3    3  502    0  0.12183121678E+03  0.26249973482E+02  0.10752676321E+03  0.16460228217E+03  0.00000000000E+00 0. -1.
         -1    1    3    3    0  502  0.78322469249E+03 -0.34872003787E+02  0.69992300141E+03  0.10509753486E+04  0.00000000000E+00 0.  1.
         13    1    5    5    0    0 -0.47640213473E+00  0.38230382718E+01  0.29614737063E+01  0.48593113849E+01  0.00000000000E+00 0. -1.
        -13    1    5    5    0    0 -0.66774834736E+03 -0.40191657217E+03  0.47942020116E+03  0.91502377874E+03  0.00000000000E+00 0.  1.
          3    1    6    6  503    0 -0.10201494582E+03  0.18549944559E+03  0.28655023153E+03  0.35626974145E+03  0.00000000000E+00 0. -1.
         -3    1    6    6    0  503 -0.13481621396E+03  0.22121611861E+03  0.20538325191E+03  0.33059682825E+03  0.00000000000E+00 0.  1.
<mgrwt>
<rscale>  0 0.21887999E+04</rscale>
<asrwt>0</asrwt>
<pdfrwt beam="1">  1        2 0.35416093E+00 0.21887999E+04</pdfrwt>
<pdfrwt beam="2">  1       -1 0.80043260E-01 0.21887999E+04</pdfrwt>
<totfact> 0.73347013E+00</totfact>
</mgrwt>
</event>
<event>
12    7  0.1544987E-007  0.1691924E+04  0.7818608E-02  0.8765984E-01
          2   -1    0    0  501    0  0.00000000000E+00  0.00000000000E+00  0.93889979905E+03  0.93889979905E+03  0.00000000000E+00 0. -1.
         -1   -1    0    0    0  501 -0.00000000000E+00 -0.00000000000E+00 -0.76222389005E+03  0.76222389005E+03  0.00000000000E+00 0.  1.
         24    2    1    2    0    0 -0.13688118580E+02  0.58121767755E+03  0.22283643791E+03  0.62737334809E+03  0.77070659475E+02 0.  0.
        254    2    1    2    0    0  0.13688118580E+02 -0.58121767755E+03 -0.46160528911E+02  0.10737503410E+04  0.90155845461E+03 0.  0.
         23    2    4    4    0    0  0.43779131784E+01 -0.48074950685E+03  0.38507321356E+03  0.62135005411E+03  0.81579749203E+02 0.  0.
         23    2    4    4    0    0  0.93102054014E+01 -0.10046817070E+03 -0.43123374247E+03  0.45240028689E+03  0.92319801142E+02 0.  0.
          4    1    3    3  502    0  0.99722542240E+01  0.46189705898E+03  0.15076462395E+03  0.48598180088E+03  0.00000000000E+00 0. -1.
         -3    1    3    3    0  502 -0.23660372804E+02  0.11932061857E+03  0.72071813957E+02  0.14139154721E+03  0.00000000000E+00 0.  1.
         13    1    5    5    0    0 -0.31139898714E+02 -0.35985024109E+03  0.29684709573E+03  0.46752549401E+03  0.00000000000E+00 0.  1.
        -13    1    5    5    0    0  0.35517811892E+02 -0.12089926575E+03  0.88226117830E+02  0.15382456010E+03  0.00000000000E+00 0. -1.
          4    1    6    6  503    0 -0.17184689966E+02  0.11975479696E+02 -0.56154777062E+02  0.59934002620E+02  0.00000000000E+00 0. -1.
         -4    1    6    6    0  503  0.26494895367E+02 -0.11244365040E+03 -0.37507896541E+03  0.39246628427E+03  0.00000000000E+00 0.  1.
<mgrwt>
<rscale>  0 0.16919242E+04</rscale>
<asrwt>0</asrwt>
<pdfrwt beam="1">  1        2 0.14444612E+00 0.16919242E+04</pdfrwt>
<pdfrwt beam="2">  1       -1 0.11726521E+00 0.16919242E+04</pdfrwt>
<totfact> 0.19650898E+01</totfact>
</mgrwt>
</event>
<event>
12    7  0.1544987E-007  0.1206259E+04  0.7818608E-02  0.9107396E-01
          2   -1    0    0  501    0  0.00000000000E+00  0.00000000000E+00  0.10929253705E+04  0.10929253705E+04  0.00000000000E+00 0. -1.
         -1   -1    0    0    0  501 -0.00000000000E+00 -0.00000000000E+00 -0.33283630689E+03  0.33283630689E+03  0.00000000000E+00 0.  1.
         24    2    1    2    0    0  0.13090518130E+03  0.16287422553E+03 -0.77971254028E+01  0.22401690006E+03  0.80365393754E+02 0.  0.
        254    2    1    2    0    0 -0.13090518130E+03 -0.16287422553E+03  0.76788618906E+03  0.12017447774E+04  0.90048716302E+03 0.  0.
         23    2    4    4    0    0 -0.61170973570E+02 -0.38651304277E+03  0.84813875503E+03  0.93803085157E+03  0.86187646878E+02 0.  0.
         23    2    4    4    0    0 -0.69734207734E+02  0.22363881724E+03 -0.80252565971E+02  0.26371392581E+03  0.90704906226E+02 0.  0.
          2    1    3    3  502    0  0.13403870472E+01  0.53198408225E+02 -0.10508883636E+02  0.54243007940E+02  0.00000000000E+00 0. -1.
         -1    1    3    3    0  502  0.12956479426E+03  0.10967581730E+03  0.27117582330E+01  0.16977389212E+03  0.00000000000E+00 0.  1.
         13    1    5    5    0    0  0.82569861767E+01 -0.49036042264E+02  0.60384362615E+02  0.78223925432E+02  0.00000000000E+00 0. -1.
        -13    1    5    5    0    0 -0.69427959747E+02 -0.33747700051E+03  0.78775439242E+03  0.85980692614E+03  0.00000000000E+00 0.  1.
          2    1    6    6  503    0  0.17805320221E+02  0.32067529534E+02 -0.29476135379E+02  0.47055270007E+02  0.00000000000E+00 0. -1.
         -2    1    6    6    0  503 -0.87539527956E+02  0.19157128771E+03 -0.50776430592E+02  0.21665865580E+03  0.00000000000E+00 0.  1.
<mgrwt>
<rscale>  0 0.12062591E+04</rscale>
<asrwt>0</asrwt>
<pdfrwt beam="1">  1        2 0.16814236E+00 0.12062591E+04</pdfrwt>
<pdfrwt beam="2">  1       -1 0.51205586E-01 0.12062591E+04</pdfrwt>
<totfact> 0.94907011E+01</totfact>
</mgrwt>
</event>
<event>
12    7  0.1544987E-007  0.1296118E+04  0.7818608E-02  0.9032649E-01
         -1   -1    0    0    0  501 -0.00000000000E+00  0.00000000000E+00  0.12739048053E+04  0.12739048053E+04  0.00000000000E+00 0.  1.
          2   -1    0    0  501    0  0.00000000000E+00 -0.00000000000E+00 -0.32967971079E+03  0.32967971079E+03  0.00000000000E+00 0. -1.
         24    2    1    2    0    0  0.17738444949E+03  0.32813496643E+02 -0.94642011544E+02  0.21660341050E+03  0.73606783701E+02 0.  0.
        254    2    1    2    0    0 -0.17738444949E+03 -0.32813496643E+02  0.10388671060E+04  0.13869811056E+04  0.90107144818E+03 0.  0.
         23    2    4    4    0    0  0.83263888576E+02  0.17191468685E+03  0.10215546388E+04  0.10431234061E+04  0.89694066468E+02 0.  0.
         23    2    4    4    0    0 -0.26064833807E+03 -0.20472818350E+03  0.17312467253E+02  0.34385769951E+03  0.89928920457E+02 0.  0.
          2    1    3    3  502    0  0.90028745137E+02  0.14101724058E+02 -0.88542285779E+02  0.12705813608E+03  0.00000000000E+00 0. -1.
         -1    1    3    3    0  502  0.87355704357E+02  0.18711772585E+02 -0.60997257643E+01  0.89545274423E+02  0.00000000000E+00 0.  1.
         13    1    5    5    0    0  0.57564996459E+01  0.11370345058E+03  0.52659758322E+03  0.53876398043E+03  0.00000000000E+00 0.  1.
        -13    1    5    5    0    0  0.77507388930E+02  0.58211236279E+02  0.49495705555E+03  0.50435942562E+03  0.00000000000E+00 0. -1.
          3    1    6    6  503    0 -0.20532856269E+03 -0.10818292998E+03  0.85540963826E+01  0.23224241120E+03  0.00000000000E+00 0. -1.
         -3    1    6    6    0  503 -0.55319775379E+02 -0.96545253513E+02  0.87583708708E+01  0.11161528831E+03  0.00000000000E+00 0.  1.
<mgrwt>
<rscale>  0 0.12961182E+04</rscale>
<asrwt>0</asrwt>
<pdfrwt beam="1">  1        2 0.50719956E-01 0.12961182E+04</pdfrwt>
<pdfrwt beam="2">  1       -1 0.19598535E+00 0.12961182E+04</pdfrwt>
<totfact> 0.17802558E+01</totfact>
</mgrwt>
</event>
<event>
12    7  0.1544987E-007  0.2886372E+04  0.7818608E-02  0.8276944E-01
          2   -1    0    0  501    0  0.00000000000E+00  0.00000000000E+00  0.12820390724E+04  0.12820390724E+04  0.00000000000E+00 0. -1.
         -1   -1    0    0    0  501 -0.00000000000E+00 -0.00000000000E+00 -0.16245889196E+04  0.16245889196E+04  0.00000000000E+00 0.  1.
         24    2    1    2    0    0 -0.53633894623E+03 -0.54115228566E+03  0.90687390071E+03  0.11870377559E+04  0.78314114546E+02 0.  0.
        254    2    1    2    0    0  0.53633894623E+03  0.54115228566E+03 -0.12494237479E+04  0.17195902361E+04  0.90300920073E+03 0.  0.
         23    2    4    4    0    0  0.68242361084E+02 -0.24048938371E+03 -0.26559046367E+03  0.37578729428E+03  0.90474486060E+02 0.  0.
         23    2    4    4    0    0  0.46809658515E+03  0.78164166937E+03 -0.98383328428E+03  0.13438029418E+04  0.88319323157E+02 0.  0.
          2    1    3    3  502    0 -0.34950939745E+03 -0.39988389328E+03  0.60740208527E+03  0.80684647870E+03  0.00000000000E+00 0. -1.
         -1    1    3    3    0  502 -0.18682954878E+03 -0.14126839238E+03  0.29947181545E+03  0.38019127717E+03  0.00000000000E+00 0.  1.
         13    1    5    5    0    0 -0.13090361449E+02 -0.67768211999E+01 -0.33152373282E+02  0.36281713337E+02  0.00000000000E+00 0.  1.
        -13    1    5    5    0    0  0.81332722532E+02 -0.23371256251E+03 -0.23243809039E+03  0.33950558094E+03  0.00000000000E+00 0. -1.
          3    1    6    6  503    0  0.28229635968E+03  0.54829488841E+03 -0.68099017752E+03  0.91873072292E+03  0.00000000000E+00 0. -1.
         -3    1    6    6    0  503  0.18580022546E+03  0.23334678096E+03 -0.30284310676E+03  0.42507221889E+03  0.00000000000E+00 0.  1.
<mgrwt>
<rscale>  0 0.28863724E+04</rscale>
<asrwt>0</asrwt>
<pdfrwt beam="1">  1        2 0.19723678E+00 0.28863724E+04</pdfrwt>
<pdfrwt beam="2">  1       -1 0.24993675E+00 0.28863724E+04</pdfrwt>
<totfact> 0.11632947E+00</totfact>
</mgrwt>
</event>
<event>
12    7  0.1544987E-007  0.1516612E+04  0.7818608E-02  0.8873481E-01
          2   -1    0    0  501    0  0.00000000000E+00  0.00000000000E+00  0.19004495152E+04  0.19004495152E+04  0.00000000000E+00 0. -1.
         -1   -1    0    0    0  501 -0.00000000000E+00 -0.00000000000E+00 -0.30257474373E+03  0.30257474373E+03  0.00000000000E+00 0.  1.
         24    2    1    2    0    0 -0.26709238670E+03 -0.91413751496E+02  0.11188739327E+04  0.11567163144E+04  0.80118272675E+02 0.  0.
        254    2    1    2    0    0  0.26709238670E+03  0.91413751496E+02  0.47900083874E+03  0.10463079445E+04  0.88635415851E+03 0.  0.
         23    2    4    4    0    0 -0.24512281025E+03 -0.20481428630E+03  0.17037735923E+03  0.37259075188E+03  0.88098466898E+02 0.  0.
         23    2    4    4    0    0  0.51221519695E+03  0.29622803779E+03  0.30862347951E+03  0.67371719267E+03  0.92363116209E+02 0.  0.
          4    1    3    3  502    0 -0.25592256509E+03 -0.65158826993E+02  0.98127029933E+03  0.10161857273E+04  0.00000000000E+00 0. -1.
         -3    1    3    3    0  502 -0.11169821612E+02 -0.26254924503E+02  0.13760363341E+03  0.14053058708E+03  0.00000000000E+00 0.  1.
         13    1    5    5    0    0 -0.24456644249E+03 -0.17393980524E+03  0.14926017124E+03  0.33518114410E+03  0.00000000000E+00 0. -1.
        -13    1    5    5    0    0 -0.55636775757E+00 -0.30874481054E+02  0.21117187991E+02  0.37409607778E+02  0.00000000000E+00 0.  1.
          1    1    6    6  503    0  0.45620313181E+03  0.28389233506E+03  0.30091893200E+03  0.61584767517E+03  0.00000000000E+00 0. -1.
         -1    1    6    6    0  503  0.56012065136E+02  0.12335702734E+02  0.77045475026E+01  0.57869517493E+02  0.00000000000E+00 0.  1.
<mgrwt>
<rscale>  0 0.15166120E+04</rscale>
<asrwt>0</asrwt>
<pdfrwt beam="1">  1        2 0.29237684E+00 0.15166120E+04</pdfrwt>
<pdfrwt beam="2">  1       -1 0.46549962E-01 0.15166120E+04</pdfrwt>
<totfact> 0.38346349E+01</totfact>
</mgrwt>
</event>
<event>
12    7  0.1544987E-007  0.1954546E+04  0.7818608E-02  0.8628172E-01
         -1   -1    0    0    0  501 -0.00000000000E+00  0.00000000000E+00  0.42994164148E+03  0.42994164148E+03  0.00000000000E+00 0.  1.
          2   -1    0    0  501    0  0.00000000000E+00 -0.00000000000E+00 -0.22213761542E+04  0.22213761542E+04  0.00000000000E+00 0. -1.
         24    2    1    2    0    0  0.54532929010E+03 -0.43101376506E+02 -0.18399138291E+02  0.55324174765E+03  0.80598633709E+02 0.  0.
        254    2    1    2    0    0 -0.54532929010E+03  0.43101376506E+02 -0.17730353745E+04  0.20980760481E+04  0.97929918877E+03 0.  0.
         23    2    4    4    0    0 -0.15352150596E+03  0.99130914318E+02 -0.16659601195E+04  0.16785835291E+04  0.93934836653E+02 0.  0.
         23    2    4    4    0    0 -0.39180778414E+03 -0.56029537813E+02 -0.10707525497E+03  0.41949251895E+03  0.88635288740E+02 0.  0.
          2    1    3    3  502    0  0.29740476148E+03 -0.49401325188E+02 -0.40797742762E+02  0.30422777469E+03  0.00000000000E+00 0. -1.
         -1    1    3    3    0  502  0.24792452862E+03  0.62999486828E+01  0.22398604471E+02  0.24901397295E+03  0.00000000000E+00 0.  1.
         13    1    5    5    0    0 -0.87313522692E+02  0.10498748997E+03 -0.12353436807E+04  0.12428676654E+04  0.00000000000E+00 0. -1.
        -13    1    5    5    0    0 -0.66207983263E+02 -0.58565756475E+01 -0.43061643881E+03  0.43571586372E+03  0.00000000000E+00 0.  1.
          3    1    6    6  503    0 -0.38241450341E+03 -0.65349714585E+02 -0.11426182744E+03  0.40443442340E+03  0.00000000000E+00 0. -1.
         -3    1    6    6    0  503 -0.93932807253E+01  0.93201767724E+01  0.71865724722E+01  0.15058095555E+02  0.00000000000E+00 0.  1.
<mgrwt>
<rscale>  0 0.19545456E+04</rscale>
<asrwt>0</asrwt>
<pdfrwt beam="1">  1        2 0.34175017E+00 0.19545456E+04</pdfrwt>
<pdfrwt beam="2">  1       -1 0.66144869E-01 0.19545456E+04</pdfrwt>
<totfact> 0.12352424E+01</totfact>
</mgrwt>
</event>
<event>
12    7  0.1544987E-007  0.3593631E+04  0.7818608E-02  0.8091952E-01
          2   -1    0    0  501    0  0.00000000000E+00  0.00000000000E+00  0.20582481803E+04  0.20582481803E+04  0.00000000000E+00 0. -1.
         -3   -1    0    0    0  501 -0.00000000000E+00 -0.00000000000E+00 -0.15685890713E+04  0.15685890713E+04  0.00000000000E+00 0.  1.
         24    2    1    2    0    0  0.64492922215E+03  0.13624328345E+04 -0.52931752586E+03  0.15996575077E+04  0.81056577295E+02 0.  0.
        254    2    1    2    0    0 -0.64492922215E+03 -0.13624328345E+04  0.10189766349E+04  0.20271797438E+04  0.89386095183E+03 0.  0.
         23    2    4    4    0    0 -0.54886362806E+02 -0.22950131863E+03  0.64511868350E+03  0.69311941192E+03  0.92482621630E+02 0.  0.
         23    2    4    4    0    0 -0.59004285934E+03 -0.11329315159E+04  0.37385795136E+03  0.13340603319E+04  0.90899976993E+02 0.  0.
          4    1    3    3  502    0  0.29572791348E+02  0.31493548288E+02 -0.13362813569E+02  0.45221215800E+02  0.00000000000E+00 0. -1.
         -3    1    3    3    0  502  0.61535643080E+03  0.13309392862E+04 -0.51595471229E+03  0.15544362919E+04  0.00000000000E+00 0.  1.
         13    1    5    5    0    0  0.72272885761E+01 -0.15434428886E+03  0.43056824601E+03  0.45745317539E+03  0.00000000000E+00 0.  1.
        -13    1    5    5    0    0 -0.62113651382E+02 -0.75157029768E+02  0.21455043749E+03  0.23566623653E+03  0.00000000000E+00 0. -1.
          4    1    6    6  503    0 -0.14034910392E+03 -0.35097017876E+03  0.92378695214E+02  0.38911664148E+03  0.00000000000E+00 0. -1.
         -4    1    6    6    0  503 -0.44969375542E+03 -0.78196133711E+03  0.28147925615E+03  0.94494369041E+03  0.00000000000E+00 0.  1.
<mgrwt>
<rscale>  0 0.35936308E+04</rscale>
<asrwt>0</asrwt>
<pdfrwt beam="1">  1        2 0.31665356E+00 0.35936308E+04</pdfrwt>
<pdfrwt beam="2">  1       -3 0.24132140E+00 0.35936308E+04</pdfrwt>
<totfact> 0.26207597E-01</totfact>
</mgrwt>
</event>
<event>
12    7  0.1544987E-007  0.1217729E+04  0.7818608E-02  0.9097478E-01
          4   -1    0    0  501    0  0.00000000000E+00  0.00000000000E+00  0.76671843597E+03  0.76671843597E+03  0.00000000000E+00 0. -1.
         -1   -1    0    0    0  501 -0.00000000000E+00 -0.00000000000E+00 -0.48350989793E+03  0.48350989793E+03  0.00000000000E+00 0.  1.
         24    2    1    2    0    0 -0.11945694960E+03  0.24116866280E+03  0.10484987003E+03  0.29918701726E+03  0.78019800846E+02 0.  0.
        254    2    1    2    0    0  0.11945694960E+03 -0.24116866280E+03  0.17835866801E+03  0.95104131664E+03  0.89455882131E+03 0.  0.
         23    2    4    4    0    0 -0.84785496113E+02 -0.41894556404E+03  0.39736029696E+03  0.59065473509E+03  0.90960675557E+02 0.  0.
         23    2    4    4    0    0  0.20424244571E+03  0.17777690124E+03 -0.21900162896E+03  0.36038658155E+03  0.92720933097E+02 0.  0.
          2    1    3    3  502    0 -0.20015051564E+02  0.81616819718E+00  0.92422779597E+01  0.22061009078E+02  0.00000000000E+00 0. -1.
         -1    1    3    3    0  502 -0.99441898036E+02  0.24035249460E+03  0.95607592075E+02  0.27712600818E+03  0.00000000000E+00 0.  1.
         13    1    5    5    0    0 -0.93911664956E+02 -0.27382430676E+03  0.29130147705E+03  0.41067712661E+03  0.00000000000E+00 0. -1.
        -13    1    5    5    0    0  0.91261688432E+01 -0.14512125728E+03  0.10605881991E+03  0.17997760848E+03  0.00000000000E+00 0.  1.
          2    1    6    6  503    0  0.12761850923E+03  0.15814861556E+03 -0.12964459777E+03  0.24105018198E+03  0.00000000000E+00 0. -1.
         -2    1    6    6    0  503  0.76623936485E+02  0.19628285679E+02 -0.89357031190E+02  0.11933639958E+03  0.00000000000E+00 0.  1.
<mgrwt>
<rscale>  0 0.12177290E+04</rscale>
<asrwt>0</asrwt>
<pdfrwt beam="1">  1        4 0.11795668E+00 0.12177290E+04</pdfrwt>
<pdfrwt beam="2">  1       -1 0.74386138E-01 0.12177290E+04</pdfrwt>
<totfact> 0.40791532E+00</totfact>
</mgrwt>
</event>
<event>
12    7  0.1544987E-007  0.2862092E+04  0.7818608E-02  0.8284246E-01
          2   -1    0    0  501    0  0.00000000000E+00  0.00000000000E+00  0.14199710134E+04  0.14199710134E+04  0.00000000000E+00 0. -1.
         -1   -1    0    0    0  501 -0.00000000000E+00 -0.00000000000E+00 -0.14422076904E+04  0.14422076904E+04  0.00000000000E+00 0.  1.
         24    2    1    2    0    0 -0.17861228498E+02  0.81977550269E+03  0.98239923839E+03  0.12825719874E+04  0.86785602931E+02 0.  0.
        254    2    1    2    0    0  0.17861228498E+02 -0.81977550269E+03 -0.10046359154E+04  0.15796067165E+04  0.90194964278E+03 0.  0.
         23    2    4    4    0    0  0.90906719667E+02 -0.49033554279E+03  0.94553937919E+01  0.50662231038E+03  0.88790679147E+02 0.  0.
         23    2    4    4    0    0 -0.73045491169E+02 -0.32943995990E+03 -0.10140913092E+04  0.10729844061E+04  0.95121088741E+02 0.  0.
          2    1    3    3  502    0  0.48025051770E+01  0.74404966691E+03  0.90907096888E+03  0.11747523132E+04  0.00000000000E+00 0. -1.
         -1    1    3    3    0  502 -0.22663733675E+02  0.75725835779E+02  0.73328269508E+02  0.10781967417E+03  0.00000000000E+00 0.  1.
         13    1    5    5    0    0  0.99921199001E+02 -0.39587116098E+03 -0.15228790038E+02  0.40857084839E+03  0.00000000000E+00 0.  1.
        -13    1    5    5    0    0 -0.90144793346E+01 -0.94464381807E+02  0.24684183830E+02  0.98051461995E+02  0.00000000000E+00 0. -1.
          3    1    6    6  503    0 -0.75027679771E+02 -0.12323809699E+03 -0.40490238456E+03  0.42984034513E+03  0.00000000000E+00 0.  1.
         -3    1    6    6    0  503  0.19821886022E+01 -0.20620186292E+03 -0.60918892460E+03  0.64314406100E+03  0.00000000000E+00 0. -1.
<mgrwt>
<rscale>  0 0.28620923E+04</rscale>
<asrwt>0</asrwt>
<pdfrwt beam="1">  1        2 0.21845708E+00 0.28620923E+04</pdfrwt>
<pdfrwt beam="2">  1       -1 0.22187811E+00 0.28620923E+04</pdfrwt>
<totfact> 0.14857951E+00</totfact>
</mgrwt>
</event>
<event>
12    7  0.1544987E-007  0.1717570E+04  0.7818608E-02  0.8751407E-01
         -1   -1    0    0    0  501 -0.00000000000E+00  0.00000000000E+00  0.25643293913E+03  0.25643293913E+03  0.00000000000E+00 0.  1.
          2   -1    0    0  501    0  0.00000000000E+00 -0.00000000000E+00 -0.28760402203E+04  0.28760402203E+04  0.00000000000E+00 0. -1.
         24    2    1    2    0    0  0.14108203273E+03  0.27986352779E+03 -0.19165904642E+04  0.19437622033E+04  0.81637990311E+02 0.  0.
        254    2    1    2    0    0 -0.14108203273E+03 -0.27986352779E+03 -0.70301681698E+03  0.11887109561E+04  0.90585504254E+03 0.  0.
         23    2    4    4    0    0 -0.18416838012E+03 -0.36789453999E+03  0.49586533219E+02  0.42423097460E+03  0.90822413240E+02 0.  0.
         23    2    4    4    0    0  0.43086347389E+02  0.88031012198E+02 -0.75260335020E+03  0.76447998152E+03  0.91716666787E+02 0.  0.
          4    1    3    3  502    0  0.57171615567E+02  0.75551108656E+02 -0.39380358551E+03  0.40504052588E+03  0.00000000000E+00 0. -1.
         -3    1    3    3    0  502  0.83910417162E+02  0.20431241913E+03 -0.15227868787E+04  0.15387216775E+04  0.00000000000E+00 0.  1.
         13    1    5    5    0    0 -0.67717795342E+02 -0.22307294684E+03  0.49860739893E+02  0.23839742616E+03  0.00000000000E+00 0.  1.
        -13    1    5    5    0    0 -0.11645058478E+03 -0.14482159315E+03 -0.27420667377E+00  0.18583354844E+03  0.00000000000E+00 0. -1.
          4    1    6    6  503    0  0.57748686957E+02  0.36329720406E+02 -0.25450868870E+03  0.26349465280E+03  0.00000000000E+00 0. -1.
         -4    1    6    6    0  503 -0.14662339567E+02  0.51701291792E+02 -0.49809466150E+03  0.50098532872E+03  0.00000000000E+00 0.  1.
<mgrwt>
<rscale>  0 0.17175697E+04</rscale>
<asrwt>0</asrwt>
<pdfrwt beam="1">  1        2 0.44246771E+00 0.17175697E+04</pdfrwt>
<pdfrwt beam="2">  1       -1 0.39451223E-01 0.17175697E+04</pdfrwt>
<totfact> 0.14099977E+01</totfact>
</mgrwt>
</event>
<event>
12    7  0.1544987E-007  0.1374281E+04  0.7818608E-02  0.8972648E-01
         -1   -1    0    0    0  501 -0.00000000000E+00  0.00000000000E+00  0.59147159617E+03  0.59147159617E+03  0.00000000000E+00 0.  1.
          2   -1    0    0  501    0  0.00000000000E+00 -0.00000000000E+00 -0.79828398554E+03  0.79828398554E+03  0.00000000000E+00 0. -1.
         24    2    1    2    0    0  0.22228207427E+03 -0.28805573036E+03 -0.16411961563E+03  0.40686648442E+03  0.78864843698E+02 0.  0.
        254    2    1    2    0    0 -0.22228207427E+03  0.28805573036E+03 -0.42692773743E+02  0.98288909729E+03  0.91206517328E+03 0.  0.
         23    2    4    4    0    0 -0.48462741582E+03  0.40064824329E+03  0.11279171006E+03  0.64521199000E+03  0.90519584451E+02 0.  0.
         23    2    4    4    0    0  0.26234534154E+03 -0.11259251293E+03 -0.15548448380E+03  0.33767710729E+03  0.91368768675E+02 0.  0.
          4    1    3    3  502    0  0.99097559504E+02 -0.11165836978E+03 -0.26940527380E+02  0.15170270221E+03  0.00000000000E+00 0. -1.
         -3    1    3    3    0  502  0.12318451477E+03 -0.17639736058E+03 -0.13717908825E+03  0.25516378221E+03  0.00000000000E+00 0.  1.
         13    1    5    5    0    0 -0.35553848295E+03  0.25465729299E+03  0.48542386128E+02  0.44001626445E+03  0.00000000000E+00 0.  1.
        -13    1    5    5    0    0 -0.12908893287E+03  0.14599095029E+03  0.64249323931E+02  0.20519572555E+03  0.00000000000E+00 0. -1.
          2    1    6    6  503    0  0.91832703152E+02 -0.69784785535E+02 -0.10185446898E+03  0.15387493139E+03  0.00000000000E+00 0. -1.
         -2    1    6    6    0  503  0.17051263839E+03 -0.42807727394E+02 -0.53630014827E+02  0.18380217590E+03  0.00000000000E+00 0.  1.
<mgrwt>
<rscale>  0 0.13742813E+04</rscale>
<asrwt>0</asrwt>
<pdfrwt beam="1">  1        2 0.12281292E+00 0.13742813E+04</pdfrwt>
<pdfrwt beam="2">  1       -1 0.90995630E-01 0.13742813E+04</pdfrwt>
<totfact> 0.45357166E+01</totfact>
</mgrwt>
</event>
<event>
12    7  0.1544987E-007  0.5043728E+04  0.7818608E-02  0.7821797E-01
         -3   -1    0    0    0  501 -0.00000000000E+00  0.00000000000E+00  0.30227265724E+04  0.30227265724E+04  0.00000000000E+00 0.  1.
          2   -1    0    0  501    0  0.00000000000E+00 -0.00000000000E+00 -0.21039934900E+04  0.21039934900E+04  0.00000000000E+00 0. -1.
         24    2    1    2    0    0  0.20832376610E+04 -0.12084804912E+04  0.85905906706E+03  0.25582836056E+04  0.80797749176E+02 0.  0.
        254    2    1    2    0    0 -0.20832376610E+04  0.12084804912E+04  0.59674015335E+02  0.25684364568E+04  0.89050580857E+03 0.  0.
         23    2    4    4    0    0 -0.18529760185E+04  0.13390908532E+04  0.45442483024E+02  0.22882273291E+04  0.85057932348E+02 0.  0.
         23    2    4    4    0    0 -0.23026164244E+03 -0.13061036201E+03  0.14231532311E+02  0.28020912778E+03  0.90747606760E+02 0.  0.
          2    1    3    3  502    0  0.15633912178E+04 -0.94243165731E+03  0.63384994576E+03  0.19323910790E+04  0.00000000000E+00 0. -1.
         -1    1    3    3    0  502  0.51984644315E+03 -0.26604883391E+03  0.22520912129E+03  0.62589252655E+03  0.00000000000E+00 0.  1.
         13    1    5    5    0    0 -0.89679001879E+03  0.60738319325E+03  0.48273964533E+02  0.10841941970E+04  0.00000000000E+00 0.  1.
        -13    1    5    5    0    0 -0.95618599972E+03  0.73170765998E+03 -0.28314815089E+01  0.12040331320E+04  0.00000000000E+00 0. -1.
          4    1    6    6  503    0 -0.21541453905E+03 -0.86583526173E+02  0.21595771266E+02  0.23316626681E+03  0.00000000000E+00 0. -1.
         -4    1    6    6    0  503 -0.14847103393E+02 -0.44026835841E+02 -0.73642389543E+01  0.47042860975E+02  0.00000000000E+00 0.  1.
<mgrwt>
<rscale>  0 0.50437276E+04</rscale>
<asrwt>0</asrwt>
<pdfrwt beam="1">  1        2 0.32369130E+00 0.50437276E+04</pdfrwt>
<pdfrwt beam="2">  1       -3 0.46503486E+00 0.50437276E+04</pdfrwt>
<totfact> 0.12402931E-02</totfact>
</mgrwt>
</event>
<event>
12    7  0.1544987E-007  0.1725786E+04  0.7818608E-02  0.8746793E-01
          2   -1    0    0  501    0  0.00000000000E+00  0.00000000000E+00  0.94223135299E+03  0.94223135299E+03  0.00000000000E+00 0. -1.
         -1   -1    0    0    0  501 -0.00000000000E+00 -0.00000000000E+00 -0.79023517678E+03  0.79023517678E+03  0.00000000000E+00 0.  1.
         24    2    1    2    0    0 -0.22579172071E+03  0.56259033210E+03  0.20594994904E+03  0.64561441662E+03  0.83143313218E+02 0.  0.
        254    2    1    2    0    0  0.22579172071E+03 -0.56259033210E+03 -0.53953772834E+02  0.10868521131E+04  0.90047027899E+03 0.  0.
         23    2    4    4    0    0 -0.31572720130E+03 -0.15680151533E+03  0.11827934103E+03  0.38255027642E+03  0.89912905778E+02 0.  0.
         23    2    4    4    0    0  0.54151892201E+03 -0.40578881677E+03 -0.17223311386E+03  0.70430183673E+03  0.92030022288E+02 0.  0.
          2    1    3    3  502    0 -0.11483625988E+03  0.22889541630E+03  0.12402531970E+03  0.28453955457E+03  0.00000000000E+00 0. -1.
         -1    1    3    3    0  502 -0.11095546082E+03  0.33369491580E+03  0.81924629338E+02  0.36107486205E+03  0.00000000000E+00 0.  1.
         13    1    5    5    0    0 -0.16425631170E+02  0.11408034457E+02  0.11135182927E+02  0.22889668157E+02  0.00000000000E+00 0. -1.
        -13    1    5    5    0    0 -0.29930157013E+03 -0.16820954979E+03  0.10714415810E+03  0.35966060827E+03  0.00000000000E+00 0.  1.
          2    1    6    6  503    0  0.82474928231E+02 -0.10395343790E+03 -0.47421771368E+02  0.14091577427E+03  0.00000000000E+00 0. -1.
         -2    1    6    6    0  503  0.45904399377E+03 -0.30183537886E+03 -0.12481134249E+03  0.56338606246E+03  0.00000000000E+00 0.  1.
<mgrwt>
<rscale>  0 0.17257860E+04</rscale>
<asrwt>0</asrwt>
<pdfrwt beam="1">  1        2 0.14495867E+00 0.17257860E+04</pdfrwt>
<pdfrwt beam="2">  1       -1 0.12157464E+00 0.17257860E+04</pdfrwt>
<totfact> 0.17851151E+01</totfact>
</mgrwt>
</event>
<event>
12    7  0.1544987E-007  0.1311618E+04  0.7818608E-02  0.9020403E-01
          2   -1    0    0  501    0  0.00000000000E+00  0.00000000000E+00  0.10960464541E+04  0.10960464541E+04  0.00000000000E+00 0. -1.
         -1   -1    0    0    0  501 -0.00000000000E+00 -0.00000000000E+00 -0.39239701276E+03  0.39239701276E+03  0.00000000000E+00 0.  1.
         24    2    1    2    0    0 -0.18330652515E+03  0.12483236191E+03  0.47928822894E+03  0.53406310119E+03  0.79509678119E+02 0.  0.
        254    2    1    2    0    0  0.18330652515E+03 -0.12483236191E+03  0.22436121239E+03  0.95438036565E+03  0.90073277279E+03 0.  0.
         23    2    4    4    0    0  0.14687057649E+03 -0.44416654681E+03  0.35478561360E+03  0.59523911499E+03  0.97887102592E+02 0.  0.
         23    2    4    4    0    0  0.36435948662E+02  0.31933418490E+03 -0.13042440121E+03  0.35914125066E+03  0.93112907248E+02 0.  0.
          2    1    3    3  502    0 -0.16676207257E+03  0.11602256735E+03  0.47215995682E+03  0.51400958143E+03  0.00000000000E+00 0. -1.
         -1    1    3    3    0  502 -0.16544452579E+02  0.88097945597E+01  0.71282721192E+01  0.20053519759E+02  0.00000000000E+00 0.  1.
         13    1    5    5    0    0  0.54614528982E+01 -0.63569378437E+02  0.14383200453E+02  0.65404661898E+02  0.00000000000E+00 0.  1.
        -13    1    5    5    0    0  0.14140912359E+03 -0.38059716837E+03  0.34040241315E+03  0.52983445309E+03  0.00000000000E+00 0. -1.
          2    1    6    6  503    0 -0.42646562677E+01  0.52850601685E+02  0.11844227915E+02  0.54329173806E+02  0.00000000000E+00 0.  1.
         -2    1    6    6    0  503  0.40700604929E+02  0.26648358321E+03 -0.14226862913E+03  0.30481207686E+03  0.00000000000E+00 0. -1.
<mgrwt>
<rscale>  0 0.13116179E+04</rscale>
<asrwt>0</asrwt>
<pdfrwt beam="1">  1        2 0.16862253E+00 0.13116179E+04</pdfrwt>
<pdfrwt beam="2">  1       -1 0.60368771E-01 0.13116179E+04</pdfrwt>
<totfact> 0.68092286E+01</totfact>
</mgrwt>
</event>
<event>
12    7  0.1544987E-007  0.1226450E+04  0.7818608E-02  0.9090015E-01
         -1   -1    0    0    0  501 -0.00000000000E+00  0.00000000000E+00  0.88168678260E+02  0.88168678260E+02  0.00000000000E+00 0.  1.
          2   -1    0    0  501    0  0.00000000000E+00 -0.00000000000E+00 -0.42650644912E+04  0.42650644912E+04  0.00000000000E+00 0. -1.
         24    2    1    2    0    0  0.18326738780E+03  0.80172276173E+02 -0.27110555330E+03  0.34638699165E+03  0.80443754627E+02 0.  0.
        254    2    1    2    0    0 -0.18326738780E+03 -0.80172276173E+02 -0.39057902596E+04  0.40068461778E+04  0.87155275860E+03 0.  0.
         23    2    4    4    0    0 -0.29064036420E+03 -0.40221259844E+03 -0.28474491354E+04  0.28917564007E+04  0.89675562285E+02 0.  0.
         23    2    4    4    0    0  0.10737297640E+03  0.32204032227E+03 -0.10583411242E+04  0.11150897771E+04  0.90001947724E+02 0.  0.
          2    1    3    3  502    0  0.73920255138E+02 -0.64053684778E+01 -0.72811336949E+02  0.10395539261E+03  0.00000000000E+00 0. -1.
         -1    1    3    3    0  502  0.10934713266E+03  0.86577644651E+02 -0.19829421635E+03  0.24243159904E+03  0.00000000000E+00 0.  1.
         13    1    5    5    0    0 -0.68232726013E+01  0.81061705662E+00 -0.12427679256E+02  0.14200752117E+02  0.00000000000E+00 0.  1.
        -13    1    5    5    0    0 -0.28381709160E+03 -0.40302321550E+03 -0.28350214561E+04  0.28775556485E+04  0.00000000000E+00 0. -1.
          1    1    6    6  503    0  0.12187131229E+03  0.30693116830E+03 -0.99767032906E+03  0.10509069627E+04  0.00000000000E+00 0. -1.
         -1    1    6    6    0  503 -0.14498335892E+02  0.15109153969E+02 -0.60670795141E+02  0.64182814369E+02  0.00000000000E+00 0.  1.
<mgrwt>
<rscale>  0 0.12264503E+04</rscale>
<asrwt>0</asrwt>
<pdfrwt beam="1">  1        2 0.65616366E+00 0.12264503E+04</pdfrwt>
<pdfrwt beam="2">  1       -1 0.13564414E-01 0.12264503E+04</pdfrwt>
<totfact> 0.92843815E+00</totfact>
</mgrwt>
</event>
<event>
12    7  0.1544987E-007  0.2132866E+04  0.7818608E-02  0.8546902E-01
          2   -1    0    0  501    0  0.00000000000E+00  0.00000000000E+00  0.40236223455E+04  0.40236223455E+04  0.00000000000E+00 0. -1.
         -1   -1    0    0    0  501 -0.00000000000E+00 -0.00000000000E+00 -0.28265058635E+03  0.28265058635E+03  0.00000000000E+00 0.  1.
         24    2    1    2    0    0  0.46066139491E+03  0.30272903433E+03  0.28238893590E+04  0.28783315841E+04  0.81165306061E+02 0.  0.
        254    2    1    2    0    0 -0.46066139491E+03 -0.30272903433E+03  0.91708240013E+03  0.14279413478E+04  0.94558054922E+03 0.  0.
         23    2    4    4    0    0 -0.72736439168E+03 -0.19044243613E+03  0.80775970650E+03  0.11072420797E+04  0.90454407177E+02 0.  0.
         23    2    4    4    0    0  0.26670299677E+03 -0.11228659821E+03  0.10932269364E+03  0.32069926812E+03  0.84603785984E+02 0.  0.
          4    1    3    3  502    0  0.31702070903E+03  0.24494161255E+03  0.21343315615E+04  0.21716053366E+04  0.00000000000E+00 0. -1.
         -3    1    3    3    0  502  0.14364068588E+03  0.57787421785E+02  0.68955779748E+03  0.70672624745E+03  0.00000000000E+00 0.  1.
         13    1    5    5    0    0 -0.71600632778E+03 -0.18244179494E+03  0.80568261825E+03  0.10931946539E+04  0.00000000000E+00 0.  1.
        -13    1    5    5    0    0 -0.11358063901E+02 -0.80006411901E+01  0.20770882427E+01  0.14047425764E+02  0.00000000000E+00 0. -1.
          3    1    6    6  503    0  0.53860710624E+02 -0.56791711497E+02  0.50015355769E+02  0.92886007862E+02  0.00000000000E+00 0. -1.
         -3    1    6    6    0  503  0.21284228615E+03 -0.55494886709E+02  0.59307337870E+02  0.22781326025E+03  0.00000000000E+00 0.  1.
<mgrwt>
<rscale>  0 0.21328659E+04</rscale>
<asrwt>0</asrwt>
<pdfrwt beam="1">  1        2 0.61901878E+00 0.21328659E+04</pdfrwt>
<pdfrwt beam="2">  1       -1 0.43484708E-01 0.21328659E+04</pdfrwt>
<totfact> 0.18023732E+00</totfact>
</mgrwt>
</event>
<event>
12    7  0.1544987E-007  0.1716184E+04  0.7818608E-02  0.8752187E-01
         -1   -1    0    0    0  501 -0.00000000000E+00  0.00000000000E+00  0.28246629734E+03  0.28246629734E+03  0.00000000000E+00 0.  1.
          2   -1    0    0  501    0  0.00000000000E+00 -0.00000000000E+00 -0.26067607342E+04  0.26067607342E+04  0.00000000000E+00 0. -1.
         24    2    1    2    0    0  0.33265881747E+03  0.84766970327E+02 -0.19100202407E+04  0.19421709442E+04  0.77481150850E+02 0.  0.
        254    2    1    2    0    0 -0.33265881747E+03 -0.84766970327E+02 -0.41427419616E+03  0.94705608728E+03  0.77938744842E+03 0.  0.
         23    2    4    4    0    0 -0.31727350536E+03  0.28380596308E+03 -0.35815402035E+03  0.56275062641E+03  0.84886178730E+02 0.  0.
         23    2    4    4    0    0 -0.15385312103E+02 -0.36857293341E+03 -0.56120175810E+02  0.38430546088E+03  0.91970093260E+02 0.  0.
          4    1    3    3  502    0  0.28049709091E+03  0.58432217648E+02 -0.17081835833E+04  0.17320462166E+04  0.00000000000E+00 0. -1.
         -3    1    3    3    0  502  0.52161726561E+02  0.26334752679E+02 -0.20183665736E+03  0.21012472765E+03  0.00000000000E+00 0.  1.
         13    1    5    5    0    0 -0.17282618831E+03  0.10340972146E+03 -0.14305837882E+03  0.24703878564E+03  0.00000000000E+00 0. -1.
        -13    1    5    5    0    0 -0.14444731705E+03  0.18039624162E+03 -0.21509564153E+03  0.31571184077E+03  0.00000000000E+00 0.  1.
          3    1    6    6  503    0  0.38356734534E+02 -0.17379063277E+03 -0.31712186119E+02  0.18077634212E+03  0.00000000000E+00 0. -1.
         -3    1    6    6    0  503 -0.53742046638E+02 -0.19478230064E+03 -0.24407989691E+02  0.20352911875E+03  0.00000000000E+00 0.  1.
<mgrwt>
<rscale>  0 0.17161842E+04</rscale>
<asrwt>0</asrwt>
<pdfrwt beam="1">  1        2 0.40104012E+00 0.17161842E+04</pdfrwt>
<pdfrwt beam="2">  1       -1 0.43456353E-01 0.17161842E+04</pdfrwt>
<totfact> 0.17091270E+01</totfact>
</mgrwt>
</event>
<event>
12    7  0.1544987E-007  0.9684670E+03  0.7818608E-02  0.9343822E-01
          2   -1    0    0  501    0  0.00000000000E+00  0.00000000000E+00  0.68593415712E+03  0.68593415712E+03  0.00000000000E+00 0. -1.
         -1   -1    0    0    0  501 -0.00000000000E+00 -0.00000000000E+00 -0.34184345316E+03  0.34184345316E+03  0.00000000000E+00 0.  1.
         24    2    1    2    0    0  0.84227787735E+02  0.16059227145E+02  0.14205645479E+02  0.11720310638E+03  0.78629185281E+02 0.  0.
        254    2    1    2    0    0 -0.84227787735E+02 -0.16059227145E+02  0.32988505848E+03  0.91057450389E+03  0.84437524616E+03 0.  0.
         23    2    4    4    0    0  0.57268786132E+02  0.35033277285E+03  0.35011950119E+03  0.50697837265E+03  0.91818514610E+02 0.  0.
         23    2    4    4    0    0 -0.14149657387E+03 -0.36639200000E+03 -0.20234442703E+02  0.40359613124E+03  0.90642299201E+02 0.  0.
          4    1    3    3  502    0  0.20624728395E+02  0.26078721383E+02  0.36210135969E+02  0.49159465795E+02  0.00000000000E+00 0. -1.
         -3    1    3    3    0  502  0.63603059340E+02 -0.10019494238E+02 -0.22004490490E+02  0.68043640584E+02  0.00000000000E+00 0.  1.
         13    1    5    5    0    0  0.36952533460E+02  0.32782473201E+03  0.34285687841E+03  0.47579973069E+03  0.00000000000E+00 0. -1.
        -13    1    5    5    0    0  0.20316252672E+02  0.22508040841E+02  0.72626227735E+01  0.31178641964E+02  0.00000000000E+00 0.  1.
          1    1    6    6  503    0  0.13209538596E+01 -0.10632299214E+03 -0.82585200849E+01  0.10665142630E+03  0.00000000000E+00 0.  1.
         -1    1    6    6    0  503 -0.14281752773E+03 -0.26006900785E+03 -0.11975922618E+02  0.29694470494E+03  0.00000000000E+00 0. -1.
<mgrwt>
<rscale>  0 0.96846704E+03</rscale>
<asrwt>0</asrwt>
<pdfrwt beam="1">  1        2 0.10552833E+00 0.96846704E+03</pdfrwt>
<pdfrwt beam="2">  1       -1 0.52591301E-01 0.96846704E+03</pdfrwt>
<totfact> 0.17485698E+02</totfact>
</mgrwt>
</event>
<event>
12    7  0.1544987E-007  0.1304707E+04  0.7818608E-02  0.9025841E-01
         -1   -1    0    0    0  501 -0.00000000000E+00  0.00000000000E+00  0.21282149911E+03  0.21282149911E+03  0.00000000000E+00 0.  1.
          2   -1    0    0  501    0  0.00000000000E+00 -0.00000000000E+00 -0.19996340473E+04  0.19996340473E+04  0.00000000000E+00 0. -1.
         24    2    1    2    0    0 -0.95189841685E+02 -0.31033525285E+03 -0.34378593466E+03  0.47966952544E+03  0.80777531776E+02 0.  0.
        254    2    1    2    0    0  0.95189841685E+02  0.31033525285E+03 -0.14430266135E+04  0.17327860210E+04  0.90269181450E+03 0.  0.
         23    2    4    4    0    0 -0.12183072730E+03 -0.75442615304E+02  0.46435889341E+02  0.17621745041E+03  0.91443882749E+02 0.  0.
         23    2    4    4    0    0  0.21702056898E+03  0.38577786816E+03 -0.14894625029E+04  0.15565685705E+04  0.92112303466E+02 0.  0.
          4    1    3    3  502    0 -0.27472452975E+02 -0.18543664312E+03 -0.23567765245E+03  0.30114023336E+03  0.00000000000E+00 0. -1.
         -3    1    3    3    0  502 -0.67717388710E+02 -0.12489860973E+03 -0.10810828221E+03  0.17852929207E+03  0.00000000000E+00 0.  1.
         13    1    5    5    0    0 -0.74614176386E+02 -0.82083418098E+01  0.55794005624E+02  0.93528729579E+02  0.00000000000E+00 0. -1.
        -13    1    5    5    0    0 -0.47216550912E+02 -0.67234273495E+02 -0.93581162827E+01  0.82688720831E+02  0.00000000000E+00 0.  1.
          4    1    6    6  503    0  0.19579189535E+03  0.26964020360E+03 -0.10571739843E+04  0.11084480768E+04  0.00000000000E+00 0. -1.
         -4    1    6    6    0  503  0.21228673634E+02  0.11613766456E+03 -0.43228851852E+03  0.44812049380E+03  0.00000000000E+00 0.  1.
<mgrwt>
<rscale>  0 0.13047070E+04</rscale>
<asrwt>0</asrwt>
<pdfrwt beam="1">  1        2 0.30763601E+00 0.13047070E+04</pdfrwt>
<pdfrwt beam="2">  1       -1 0.32741768E-01 0.13047070E+04</pdfrwt>
<totfact> 0.65280832E+01</totfact>
</mgrwt>
</event>
<event>
12    7  0.1544987E-007  0.1519420E+04  0.7818608E-02  0.8871640E-01
         -3   -1    0    0    0  501 -0.00000000000E+00  0.00000000000E+00  0.78428146601E+03  0.78428146601E+03  0.00000000000E+00 0.  1.
          4   -1    0    0  501    0  0.00000000000E+00 -0.00000000000E+00 -0.73590866502E+03  0.73590866502E+03  0.00000000000E+00 0. -1.
         24    2    1    2    0    0 -0.42843061015E+03  0.23477380964E+03  0.64317482126E+02  0.49886787222E+03  0.77851692441E+02 0.  0.
        254    2    1    2    0    0  0.42843061015E+03 -0.23477380964E+03 -0.15944681145E+02  0.10213222588E+04  0.89675715446E+03 0.  0.
         23    2    4    4    0    0 -0.23898947270E+02 -0.46529818739E+03 -0.13227289260E+03  0.49251250547E+03  0.89436497353E+02 0.  0.
         23    2    4    4    0    0  0.45232955742E+03  0.23052437776E+03  0.11632821146E+03  0.52880975334E+03  0.91454825934E+02 0.  0.
          2    1    3    3  502    0 -0.74670169533E+01  0.10999388451E+02 -0.96389556121E+01  0.16421094780E+02  0.00000000000E+00 0. -1.
         -1    1    3    3    0  502 -0.42096359320E+03  0.22377442119E+03  0.73956437739E+02  0.48244677744E+03  0.00000000000E+00 0.  1.
         13    1    5    5    0    0  0.22840021425E+02 -0.33855269287E+03 -0.93393251824E+02  0.35194018230E+03  0.00000000000E+00 0. -1.
        -13    1    5    5    0    0 -0.46738968695E+02 -0.12674549452E+03 -0.38879640777E+02  0.14057232318E+03  0.00000000000E+00 0.  1.
          1    1    6    6  503    0  0.19580861606E+03  0.15075503546E+03  0.60911761567E+02  0.25451588858E+03  0.00000000000E+00 0. -1.
         -1    1    6    6    0  503  0.25652094136E+03  0.79769342295E+02  0.55416449889E+02  0.27429386476E+03  0.00000000000E+00 0.  1.
<mgrwt>
<rscale>  0 0.15194203E+04</rscale>
<asrwt>0</asrwt>
<pdfrwt beam="1">  1        4 0.11321672E+00 0.15194203E+04</pdfrwt>
<pdfrwt beam="2">  1       -3 0.12065869E+00 0.15194203E+04</pdfrwt>
<totfact> 0.75262945E-01</totfact>
</mgrwt>
</event>
<event>
12    7  0.1731153E-007  0.2319857E+04  0.7818608E-02  0.8470133E-01
         -1   -1    0    0    0  501 -0.00000000000E+00  0.00000000000E+00  0.44924082867E+03  0.44924082867E+03  0.00000000000E+00 0.  1.
          2   -1    0    0  501    0  0.00000000000E+00 -0.00000000000E+00 -0.29949057696E+04  0.29949057696E+04  0.00000000000E+00 0. -1.
         24    2    1    2    0    0  0.37512523263E+03  0.85550502088E+03 -0.62727478065E+03  0.11280504835E+04  0.80102821103E+02 0.  0.
        254    2    1    2    0    0 -0.37512523263E+03 -0.85550502088E+03 -0.19183901603E+04  0.23160961148E+04  0.90081775347E+03 0.  0.
         23    2    4    4    0    0 -0.68290216804E+02 -0.92921119444E+03 -0.11670268316E+04  0.14961566816E+04  0.91848749712E+02 0.  0.
         23    2    4    4    0    0 -0.30683501583E+03  0.73706173559E+02 -0.75136332868E+03  0.81993943313E+03  0.90407385493E+02 0.  0.
          4    1    3    3  502    0  0.48289643879E+02  0.62759434980E+02 -0.39765664238E+02  0.88611198148E+02  0.00000000000E+00 0. -1.
         -3    1    3    3    0  502  0.32683558875E+03  0.79274558590E+03 -0.58750911641E+03  0.10394392853E+04  0.00000000000E+00 0.  1.
         13    1    5    5    0    0 -0.43148565480E+02 -0.56567124727E+03 -0.78096823146E+03  0.96527567940E+03  0.00000000000E+00 0. -1.
        -13    1    5    5    0    0 -0.25141651325E+02 -0.36353994717E+03 -0.38605860012E+03  0.53088100225E+03  0.00000000000E+00 0.  1.
          4    1    6    6  503    0 -0.11293536525E+03  0.52552325722E+02 -0.20585003343E+03  0.24060419765E+03  0.00000000000E+00 0. -1.
         -4    1    6    6    0  503 -0.19389965058E+03  0.21153847837E+02 -0.54551329525E+03  0.57933523548E+03  0.00000000000E+00 0.  1.
<mgrwt>
<rscale>  0 0.23198568E+04</rscale>
<asrwt>0</asrwt>
<pdfrwt beam="1">  1        2 0.46075474E+00 0.23198568E+04</pdfrwt>
<pdfrwt beam="2">  1       -1 0.69113973E-01 0.23198568E+04</pdfrwt>
<totfact> 0.38280444E+00</totfact>
</mgrwt>
</event>
<event>
12    7  0.1544987E-007  0.1585862E+04  0.7818608E-02  0.8829281E-01
          2   -1    0    0  501    0  0.00000000000E+00  0.00000000000E+00  0.11725264530E+04  0.11725264530E+04  0.00000000000E+00 0. -1.
         -1   -1    0    0    0  501 -0.00000000000E+00 -0.00000000000E+00 -0.53622610560E+03  0.53622610560E+03  0.00000000000E+00 0.  1.
         24    2    1    2    0    0  0.14148455933E+03  0.48882079272E+03  0.39326096311E+03  0.64810897926E+03  0.80171166705E+02 0.  0.
        254    2    1    2    0    0 -0.14148455933E+03 -0.48882079272E+03  0.24303938428E+03  0.10606435793E+04  0.89829450189E+03 0.  0.
         23    2    4    4    0    0  0.19306265735E+03  0.61925221051E+01  0.38375133337E+03  0.43998439262E+03  0.94919138700E+02 0.  0.
         23    2    4    4    0    0 -0.33454721668E+03 -0.49501331482E+03 -0.14071194910E+03  0.62065918670E+03  0.91967121175E+02 0.  0.
          4    1    3    3  502    0  0.38939791445E+02  0.17081008661E+03  0.90393940233E+02  0.19713816849E+03  0.00000000000E+00 0. -1.
         -3    1    3    3    0  502  0.10254476788E+03  0.31801070611E+03  0.30286702287E+03  0.45097081077E+03  0.00000000000E+00 0.  1.
         13    1    5    5    0    0  0.10522091825E+01  0.16429873309E+02  0.89533993516E+01  0.18740630754E+02  0.00000000000E+00 0. -1.
        -13    1    5    5    0    0  0.19201044817E+03 -0.10237351204E+02  0.37479793402E+03  0.42124376187E+03  0.00000000000E+00 0.  1.
          1    1    6    6  503    0 -0.40616695586E+02 -0.45814594914E+02 -0.43507413916E+02  0.75110506144E+02  0.00000000000E+00 0. -1.
         -1    1    6    6    0  503 -0.29393052110E+03 -0.44919871991E+03 -0.97204535183E+02  0.54554868056E+03  0.00000000000E+00 0.  1.
<mgrwt>
<rscale>  0 0.15858617E+04</rscale>
<asrwt>0</asrwt>
<pdfrwt beam="1">  1        2 0.18038868E+00 0.15858617E+04</pdfrwt>
<pdfrwt beam="2">  1       -1 0.82496324E-01 0.15858617E+04</pdfrwt>
<totfact> 0.31460616E+01</totfact>
</mgrwt>
</event>
<event>
12    7  0.1544987E-007  0.2099536E+04  0.7818608E-02  0.8561448E-01
          2   -1    0    0  501    0  0.00000000000E+00  0.00000000000E+00  0.16769978221E+04  0.16769978221E+04  0.00000000000E+00 0. -1.
         -1   -1    0    0    0  501 -0.00000000000E+00 -0.00000000000E+00 -0.65713420379E+03  0.65713420379E+03  0.00000000000E+00 0.  1.
         24    2    1    2    0    0  0.73169025290E+03  0.34831456598E+03  0.29672973712E+03  0.86691880193E+03  0.82498540502E+02 0.  0.
        254    2    1    2    0    0 -0.73169025290E+03 -0.34831456598E+03  0.72313388124E+03  0.14672132240E+04  0.98645748587E+03 0.  0.
         23    2    4    4    0    0 -0.27808968745E+03  0.15647193164E+03  0.70701939262E+03  0.78161193730E+03  0.96038842842E+02 0.  0.
         23    2    4    4    0    0 -0.45360056545E+03 -0.50478649762E+03  0.16114488620E+02  0.68560128670E+03  0.96055017738E+02 0.  0.
          4    1    3    3  502    0  0.34027209265E+03  0.15820871162E+03  0.93880711900E+02  0.38681866751E+03  0.00000000000E+00 0. -1.
         -1    1    3    3    0  502  0.39141816025E+03  0.19010585436E+03  0.20284902522E+03  0.48010013442E+03  0.00000000000E+00 0.  1.
         13    1    5    5    0    0 -0.20616962104E+03  0.13388903473E+03  0.43844540967E+03  0.50265949063E+03  0.00000000000E+00 0. -1.
        -13    1    5    5    0    0 -0.71920066408E+02  0.22582896906E+02  0.26857398295E+03  0.27895244667E+03  0.00000000000E+00 0.  1.
          1    1    6    6  503    0 -0.53204459717E+02 -0.94751582479E+02  0.28584197044E+02  0.11236384310E+03  0.00000000000E+00 0. -1.
         -1    1    6    6    0  503 -0.40039610573E+03 -0.41003491514E+03 -0.12469708423E+02  0.57323744360E+03  0.00000000000E+00 0.  1.
<mgrwt>
<rscale>  0 0.20995358E+04</rscale>
<asrwt>0</asrwt>
<pdfrwt beam="1">  1        2 0.25799966E+00 0.20995358E+04</pdfrwt>
<pdfrwt beam="2">  1       -1 0.10109757E+00 0.20995358E+04</pdfrwt>
<totfact> 0.98538943E+00</totfact>
</mgrwt>
</event>
<event>
12    7  0.1544987E-007  0.2418809E+04  0.7818608E-02  0.8432495E-01
          2   -1    0    0  501    0  0.00000000000E+00  0.00000000000E+00  0.12823892840E+04  0.12823892840E+04  0.00000000000E+00 0. -1.
         -1   -1    0    0    0  501 -0.00000000000E+00 -0.00000000000E+00 -0.11405731342E+04  0.11405731342E+04  0.00000000000E+00 0.  1.
         24    2    1    2    0    0 -0.41049855161E+03 -0.54819000287E+03 -0.72233304315E+03  0.99862506121E+03  0.80409250240E+02 0.  0.
        254    2    1    2    0    0  0.41049855161E+03  0.54819000287E+03  0.86414919297E+03  0.14243373570E+04  0.90164390908E+03 0.  0.
         23    2    4    4    0    0  0.15776042289E+03  0.19338381946E+03  0.93484967884E+03  0.97186110169E+03  0.91018823823E+02 0.  0.
         23    2    4    4    0    0  0.25273812872E+03  0.35480618341E+03 -0.70700485869E+02  0.45247625534E+03  0.99860970588E+02 0.  0.
          2    1    3    3  502    0 -0.13132004719E+03 -0.13701680899E+03 -0.16084351960E+03  0.24877539777E+03  0.00000000000E+00 0. -1.
         -1    1    3    3    0  502 -0.27917850442E+03 -0.41117319388E+03 -0.56148952355E+03  0.74984966344E+03  0.00000000000E+00 0.  1.
         13    1    5    5    0    0  0.14057414882E+03  0.10460645774E+03  0.61728508307E+03  0.64167318481E+03  0.00000000000E+00 0. -1.
        -13    1    5    5    0    0  0.17186274073E+02  0.88777361712E+02  0.31756459577E+03  0.33018791688E+03  0.00000000000E+00 0.  1.
          2    1    6    6  503    0  0.13517921160E+03  0.11336316376E+03 -0.48778607493E+02  0.18304092082E+03  0.00000000000E+00 0.  1.
         -2    1    6    6    0  503  0.11755891711E+03  0.24144301965E+03 -0.21921878375E+02  0.26943533451E+03  0.00000000000E+00 0. -1.
<mgrwt>
<rscale>  0 0.24188086E+04</rscale>
<asrwt>0</asrwt>
<pdfrwt beam="1">  1        2 0.19729066E+00 0.24188086E+04</pdfrwt>
<pdfrwt beam="2">  1       -1 0.17547279E+00 0.24188086E+04</pdfrwt>
<totfact> 0.38869326E+00</totfact>
</mgrwt>
</event>
<event>
12    7  0.1544987E-007  0.2539476E+04  0.7818608E-02  0.8389055E-01
         -1   -1    0    0    0  501 -0.00000000000E+00  0.00000000000E+00  0.67399323643E+03  0.67399323643E+03  0.00000000000E+00 0.  1.
          2   -1    0    0  501    0  0.00000000000E+00 -0.00000000000E+00 -0.23920641701E+04  0.23920641701E+04  0.00000000000E+00 0. -1.
         24    2    1    2    0    0  0.64226405485E+03  0.67975726325E+03 -0.14635739542E+04  0.17388365331E+04  0.83250923703E+02 0.  0.
        254    2    1    2    0    0 -0.64226405485E+03 -0.67975726325E+03 -0.25449697947E+03  0.13272208734E+04  0.90673782389E+03 0.  0.
         23    2    4    4    0    0 -0.86152540654E+03 -0.57264764928E+03 -0.24061098400E+03  0.10663434948E+04  0.95097039284E+02 0.  0.
         23    2    4    4    0    0  0.21926135169E+03 -0.10710961397E+03 -0.13885995463E+02  0.26087737868E+03  0.91193070377E+02 0.  0.
          2    1    3    3  502    0  0.87073961180E+02  0.12411010305E+03 -0.19903713710E+03  0.25020186718E+03  0.00000000000E+00 0. -1.
         -1    1    3    3    0  502  0.55519009367E+03  0.55564716020E+03 -0.12645368171E+04  0.14886346659E+04  0.00000000000E+00 0.  1.
         13    1    5    5    0    0 -0.60520930292E+02 -0.71814979362E+02 -0.15280799153E+02  0.95150812329E+02  0.00000000000E+00 0. -1.
        -13    1    5    5    0    0 -0.80100447625E+03 -0.50083266992E+03 -0.22533018485E+03  0.97119268244E+03  0.00000000000E+00 0.  1.
          3    1    6    6  503    0  0.25954438206E+02 -0.50347756604E+02  0.11550942863E+02  0.57809633615E+02  0.00000000000E+00 0. -1.
         -3    1    6    6    0  503  0.19330691349E+03 -0.56761857363E+02 -0.25436938326E+02  0.20306774506E+03  0.00000000000E+00 0.  1.
<mgrwt>
<rscale>  0 0.25394764E+04</rscale>
<asrwt>0</asrwt>
<pdfrwt beam="1">  1        2 0.36800987E+00 0.25394764E+04</pdfrwt>
<pdfrwt beam="2">  1       -1 0.10369127E+00 0.25394764E+04</pdfrwt>
<totfact> 0.35599760E+00</totfact>
</mgrwt>
</event>
<event>
12    7  0.1609796E-007  0.1705276E+04  0.7818608E-02  0.8758361E-01
         -1   -1    0    0    0  501 -0.00000000000E+00  0.00000000000E+00  0.31023060599E+03  0.31023060599E+03  0.00000000000E+00 0.  1.
          2   -1    0    0  501    0  0.00000000000E+00 -0.00000000000E+00 -0.23433914183E+04  0.23433914183E+04  0.00000000000E+00 0. -1.
         24    2    1    2    0    0  0.47586062036E+03  0.24708777317E+03 -0.12057686618E+04  0.13219499083E+04  0.78598962020E+02 0.  0.
        254    2    1    2    0    0 -0.47586062036E+03 -0.24708777317E+03 -0.82739215059E+03  0.13316721160E+04  0.89514085818E+03 0.  0.
         23    2    4    4    0    0 -0.27380663499E+03  0.32156169127E+03 -0.33154065773E+03  0.54522567630E+03  0.94761995081E+02 0.  0.
         23    2    4    4    0    0 -0.20205398537E+03 -0.56864946444E+03 -0.49585149286E+03  0.78644643969E+03  0.91876401290E+02 0.  0.
          2    1    3    3  502    0  0.37638166987E+03  0.18495808037E+03 -0.85943650162E+03  0.95629689597E+03  0.00000000000E+00 0. -1.
         -1    1    3    3    0  502  0.99478950490E+02  0.62129692795E+02 -0.34633216013E+03  0.36565301237E+03  0.00000000000E+00 0.  1.
         13    1    5    5    0    0 -0.27973862887E+03  0.30103236954E+03 -0.32066148937E+03  0.52124656235E+03  0.00000000000E+00 0. -1.
        -13    1    5    5    0    0  0.59319938726E+01  0.20529321729E+02 -0.10879168360E+02  0.23979113957E+02  0.00000000000E+00 0.  1.
          2    1    6    6  503    0 -0.43356190201E+02 -0.50919395187E+02 -0.35555324033E+02  0.75741171776E+02  0.00000000000E+00 0.  1.
         -2    1    6    6    0  503 -0.15869779517E+03 -0.51773006925E+03 -0.46029616883E+03  0.71070526791E+03  0.00000000000E+00 0. -1.
<mgrwt>
<rscale>  0 0.17052762E+04</rscale>
<asrwt>0</asrwt>
<pdfrwt beam="1">  1        2 0.36052175E+00 0.17052762E+04</pdfrwt>
<pdfrwt beam="2">  1       -1 0.47727786E-01 0.17052762E+04</pdfrwt>
<totfact> 0.20359686E+01</totfact>
</mgrwt>
</event>
<event>
12    7  0.1544987E-007  0.2264834E+04  0.7818608E-02  0.8491917E-01
          2   -1    0    0  501    0  0.00000000000E+00  0.00000000000E+00  0.13978926337E+04  0.13978926337E+04  0.00000000000E+00 0. -1.
         -1   -1    0    0    0  501 -0.00000000000E+00 -0.00000000000E+00 -0.91735845685E+03  0.91735845685E+03  0.00000000000E+00 0.  1.
         24    2    1    2    0    0  0.40619117265E+03 -0.85811158576E+03  0.86054693761E+02  0.95657485978E+03  0.79267204379E+02 0.  0.
        254    2    1    2    0    0 -0.40619117265E+03  0.85811158576E+03  0.39447948306E+03  0.13586762307E+04  0.88827939020E+03 0.  0.
         23    2    4    4    0    0 -0.42962162776E+03  0.11440569401E+03 -0.93907834320E+02  0.46379289978E+03  0.92853468851E+02 0.  0.
         23    2    4    4    0    0  0.23430455104E+02  0.74370589174E+03  0.48838731738E+03  0.89488333096E+03  0.92986905567E+02 0.  0.
          4    1    3    3  502    0  0.33586430978E+03 -0.72748120820E+03  0.10035008345E+03  0.80752949304E+03  0.00000000000E+00 0. -1.
         -3    1    3    3    0  502  0.70326862874E+02 -0.13063037755E+03 -0.14295389687E+02  0.14904536674E+03  0.00000000000E+00 0.  1.
         13    1    5    5    0    0 -0.16046762531E+03  0.70490425498E+01 -0.62372026795E+02  0.17230733443E+03  0.00000000000E+00 0. -1.
        -13    1    5    5    0    0 -0.26915400245E+03  0.10735665146E+03 -0.31535807525E+02  0.29148556534E+03  0.00000000000E+00 0.  1.
          3    1    6    6  503    0 -0.71392145189E+01  0.50941281685E+03  0.28904242560E+03  0.58574560191E+03  0.00000000000E+00 0. -1.
         -3    1    6    6    0  503  0.30569669623E+02  0.23429307489E+03  0.19934489178E+03  0.30913772905E+03  0.00000000000E+00 0.  1.
<mgrwt>
<rscale>  0 0.22648343E+04</rscale>
<asrwt>0</asrwt>
<pdfrwt beam="1">  1        2 0.21506041E+00 0.22648343E+04</pdfrwt>
<pdfrwt beam="2">  1       -1 0.14113207E+00 0.22648343E+04</pdfrwt>
<totfact> 0.61698623E+00</totfact>
</mgrwt>
</event>
<event>
12    7  0.1544987E-007  0.2963385E+04  0.7818608E-02  0.8254264E-01
         -1   -1    0    0    0  501 -0.00000000000E+00  0.00000000000E+00  0.62249475823E+03  0.62249475823E+03  0.00000000000E+00 0.  1.
          2   -1    0    0  501    0  0.00000000000E+00 -0.00000000000E+00 -0.35267976897E+04  0.35267976897E+04  0.00000000000E+00 0. -1.
         24    2    1    2    0    0  0.42633115823E+02  0.52605433233E+03 -0.30525530311E+04  0.30988562986E+04  0.79243981871E+02 0.  0.
        254    2    1    2    0    0 -0.42633115823E+02 -0.52605433233E+03  0.14825009961E+03  0.10504361493E+04  0.89603976959E+03 0.  0.
         23    2    4    4    0    0 -0.27999313796E+03 -0.30741534361E+03  0.43501342544E+03  0.60916577644E+03  0.94582831834E+02 0.  0.
         23    2    4    4    0    0  0.23736002214E+03 -0.21863898872E+03 -0.28676332583E+03  0.44127037290E+03  0.91343031812E+02 0.  0.
          4    1    3    3  502    0  0.87305711972E+01  0.35954023499E+03 -0.18850757729E+04  0.19190768804E+04  0.00000000000E+00 0. -1.
         -3    1    3    3    0  502  0.33902544626E+02  0.16651409734E+03 -0.11674772582E+04  0.11797794182E+04  0.00000000000E+00 0.  1.
         13    1    5    5    0    0 -0.26347709126E+02  0.18957249443E+01  0.26120631569E+02  0.37149467598E+02  0.00000000000E+00 0. -1.
        -13    1    5    5    0    0 -0.25364542884E+03 -0.30931106855E+03  0.40889279387E+03  0.57201630884E+03  0.00000000000E+00 0.  1.
          4    1    6    6  503    0  0.53342375939E+02 -0.77250831308E+02 -0.38587168426E+02  0.10149911121E+03  0.00000000000E+00 0. -1.
         -4    1    6    6    0  503  0.18401764620E+03 -0.14138815741E+03 -0.24817615741E+03  0.33977126170E+03  0.00000000000E+00 0.  1.
<mgrwt>
<rscale>  0 0.29633853E+04</rscale>
<asrwt>0</asrwt>
<pdfrwt beam="1">  1        2 0.54258426E+00 0.29633853E+04</pdfrwt>
<pdfrwt beam="2">  1       -1 0.95768424E-01 0.29633853E+04</pdfrwt>
<totfact> 0.79792501E-01</totfact>
</mgrwt>
</event>
<event>
12    7  0.1544987E-007  0.1603247E+04  0.7818608E-02  0.8818556E-01
          2   -1    0    0  501    0  0.00000000000E+00  0.00000000000E+00  0.78683017919E+03  0.78683017919E+03  0.00000000000E+00 0. -1.
         -1   -1    0    0    0  501 -0.00000000000E+00 -0.00000000000E+00 -0.81669503322E+03  0.81669503322E+03  0.00000000000E+00 0.  1.
         24    2    1    2    0    0  0.87612537442E+01 -0.54676565799E+03  0.39197945959E+02  0.55398777135E+03  0.79602308415E+02 0.  0.
        254    2    1    2    0    0 -0.87612537442E+01  0.54676565799E+03 -0.69062799993E+02  0.10495374411E+04  0.89315716732E+03 0.  0.
         23    2    4    4    0    0 -0.73841896488E+02 -0.22105682092E+03  0.73409949930E+02  0.26081389090E+03  0.91192769378E+02 0.  0.
         23    2    4    4    0    0  0.65080642744E+02  0.76782247891E+03 -0.14247274992E+03  0.78872355017E+03  0.89439951559E+02 0.  0.
          2    1    3    3  502    0  0.50312965733E+01 -0.33582682728E+03  0.62849469543E+02  0.34169434834E+03  0.00000000000E+00 0. -1.
         -1    1    3    3    0  502  0.37299571709E+01 -0.21093883072E+03 -0.23651523584E+02  0.21229342301E+03  0.00000000000E+00 0.  1.
         13    1    5    5    0    0 -0.38548803076E+02 -0.11944415512E+03  0.86532140302E+02  0.15244909877E+03  0.00000000000E+00 0.  1.
        -13    1    5    5    0    0 -0.35293093412E+02 -0.10161266580E+03 -0.13122190372E+02  0.10836479213E+03  0.00000000000E+00 0. -1.
          1    1    6    6  503    0  0.25421703555E+01 -0.34244668303E+00 -0.53233736203E+01  0.59091629313E+01  0.00000000000E+00 0. -1.
         -1    1    6    6    0  503  0.62538472388E+02  0.76816492560E+03 -0.13714937630E+03  0.78281438724E+03  0.00000000000E+00 0.  1.
<mgrwt>
<rscale>  0 0.16032471E+04</rscale>
<asrwt>0</asrwt>
<pdfrwt beam="1">  1        2 0.12105080E+00 0.16032471E+04</pdfrwt>
<pdfrwt beam="2">  1       -1 0.12564539E+00 0.16032471E+04</pdfrwt>
<totfact> 0.21299841E+01</totfact>
</mgrwt>
</event>
<event>
12    7  0.1544987E-007  0.1161054E+04  0.7818608E-02  0.9147646E-01
         -1   -1    0    0    0  501 -0.00000000000E+00  0.00000000000E+00  0.41088154955E+03  0.41088154955E+03  0.00000000000E+00 0.  1.
          2   -1    0    0  501    0  0.00000000000E+00 -0.00000000000E+00 -0.82021524126E+03  0.82021524126E+03  0.00000000000E+00 0. -1.
         24    2    1    2    0    0  0.16853725591E+03  0.11255207388E+03  0.26992309849E+01  0.21820638631E+03  0.80832946335E+02 0.  0.
        254    2    1    2    0    0 -0.16853725591E+03 -0.11255207388E+03 -0.41203292270E+03  0.10128904045E+04  0.90283058553E+03 0.  0.
         23    2    4    4    0    0 -0.37194131311E+02 -0.26301609485E+03 -0.63856419147E+03  0.69781622442E+03  0.92856808461E+02 0.  0.
         23    2    4    4    0    0 -0.13134312460E+03  0.15046402096E+03  0.22653126877E+03  0.31507418008E+03  0.89804706084E+02 0.  0.
          4    1    3    3  502    0 -0.46804963474E+01  0.20494603498E+02 -0.59725798326E+01  0.21854233651E+02  0.00000000000E+00 0. -1.
         -3    1    3    3    0  502  0.17321775226E+03  0.92057470385E+02  0.86718108175E+01  0.19635215266E+03  0.00000000000E+00 0.  1.
         13    1    5    5    0    0 -0.21697966314E+01 -0.23651758778E+03 -0.51621704648E+03  0.56782507555E+03  0.00000000000E+00 0. -1.
        -13    1    5    5    0    0 -0.35024334680E+02 -0.26498507071E+02 -0.12234714499E+03  0.12999114887E+03  0.00000000000E+00 0.  1.
          2    1    6    6  503    0 -0.13517680596E+03  0.15817453855E+03  0.20592282776E+03  0.29273907239E+03  0.00000000000E+00 0. -1.
         -2    1    6    6    0  503  0.38336813590E+01 -0.77105175833E+01  0.20608441014E+02  0.22335107683E+02  0.00000000000E+00 0.  1.
<mgrwt>
<rscale>  0 0.11610535E+04</rscale>
<asrwt>0</asrwt>
<pdfrwt beam="1">  1        2 0.12618696E+00 0.11610535E+04</pdfrwt>
<pdfrwt beam="2">  1       -1 0.63212547E-01 0.11610535E+04</pdfrwt>
<totfact> 0.95492093E+01</totfact>
</mgrwt>
</event>
<event>
12    7  0.1544987E-007  0.2264152E+04  0.7818608E-02  0.8492191E-01
         -1   -1    0    0    0  501 -0.00000000000E+00  0.00000000000E+00  0.31156891196E+03  0.31156891196E+03  0.00000000000E+00 0.  1.
          2   -1    0    0  501    0  0.00000000000E+00 -0.00000000000E+00 -0.41133617344E+04  0.41133617344E+04  0.00000000000E+00 0. -1.
         24    2    1    2    0    0  0.79728955674E+02  0.27721402645E+03  0.16633318458E+03  0.34266516706E+03  0.80921972240E+02 0.  0.
        254    2    1    2    0    0 -0.79728955674E+02 -0.27721402645E+03 -0.39681260070E+04  0.40822654793E+04  0.91414611138E+03 0.  0.
         23    2    4    4    0    0 -0.45194612512E+02  0.31010971515E+03 -0.90959191275E+03  0.96626716770E+03  0.90023348066E+02 0.  0.
         23    2    4    4    0    0 -0.34534343162E+02 -0.58732374160E+03 -0.30585340943E+04  0.31159983116E+04  0.93128264794E+02 0.  0.
          4    1    3    3  502    0  0.57963983870E+02  0.13711055305E+03  0.43531299045E+02  0.15509384637E+03  0.00000000000E+00 0. -1.
         -3    1    3    3    0  502  0.21764971803E+02  0.14010347340E+03  0.12280188554E+03  0.18757132069E+03  0.00000000000E+00 0.  1.
         13    1    5    5    0    0  0.11643009730E+02  0.53464169026E+02 -0.25626979765E+03  0.26204615286E+03  0.00000000000E+00 0. -1.
        -13    1    5    5    0    0 -0.56837622242E+02  0.25664554613E+03 -0.65332211510E+03  0.70422101483E+03  0.00000000000E+00 0.  1.
          4    1    6    6  503    0 -0.33625735228E+01 -0.99709857097E+01 -0.16987525468E+02  0.19982579369E+02  0.00000000000E+00 0. -1.
         -4    1    6    6    0  503 -0.31171769639E+02 -0.57735275589E+03 -0.30415465688E+04  0.30960157322E+04  0.00000000000E+00 0.  1.
<mgrwt>
<rscale>  0 0.22641516E+04</rscale>
<asrwt>0</asrwt>
<pdfrwt beam="1">  1        2 0.63282486E+00 0.22641516E+04</pdfrwt>
<pdfrwt beam="2">  1       -1 0.47933680E-01 0.22641516E+04</pdfrwt>
<totfact> 0.12496181E+00</totfact>
</mgrwt>
</event>
<event>
12    7  0.1544987E-007  0.3395461E+04  0.7818608E-02  0.8139021E-01
          2   -1    0    0  501    0  0.00000000000E+00  0.00000000000E+00  0.33342637669E+04  0.33342637669E+04  0.00000000000E+00 0. -1.
         -1   -1    0    0    0  501 -0.00000000000E+00 -0.00000000000E+00 -0.86444559653E+03  0.86444559653E+03  0.00000000000E+00 0.  1.
         24    2    1    2    0    0  0.14223191666E+04 -0.66337988241E+03  0.12965288215E+04  0.20372497020E+04  0.79590722564E+02 0.  0.
        254    2    1    2    0    0 -0.14223191666E+04  0.66337988241E+03  0.11732893489E+04  0.21614596615E+04  0.91226930873E+03 0.  0.
         23    2    4    4    0    0 -0.15495483026E+02  0.33319036291E+03  0.10294712785E+03  0.36090495263E+03  0.91642488906E+02 0.  0.
         23    2    4    4    0    0 -0.14068236836E+04  0.33018951950E+03  0.10703422211E+04  0.18005547088E+04  0.90480902452E+02 0.  0.
          2    1    3    3  502    0  0.17610472550E+02 -0.19195877305E+02  0.22356402441E+02  0.34328110624E+02  0.00000000000E+00 0. -1.
         -1    1    3    3    0  502  0.14047086941E+04 -0.64418400510E+03  0.12741724190E+04  0.20029215914E+04  0.00000000000E+00 0.  1.
         13    1    5    5    0    0  0.11575985098E+02  0.11434690026E+02 -0.96806582676E+01  0.18933322780E+02  0.00000000000E+00 0.  1.
        -13    1    5    5    0    0 -0.27071468124E+02  0.32175567288E+03  0.11262778612E+03  0.34197162985E+03  0.00000000000E+00 0. -1.
          4    1    6    6  503    0 -0.11087765606E+04  0.22189578251E+03  0.83324812891E+03  0.14046087156E+04  0.00000000000E+00 0. -1.
         -4    1    6    6    0  503 -0.29804712302E+03  0.10829373699E+03  0.23709409214E+03  0.39594599321E+03  0.00000000000E+00 0.  1.
<mgrwt>
<rscale>  0 0.33954615E+04</rscale>
<asrwt>0</asrwt>
<pdfrwt beam="1">  1        2 0.51296365E+00 0.33954615E+04</pdfrwt>
<pdfrwt beam="2">  1       -1 0.13299163E+00 0.33954615E+04</pdfrwt>
<totfact> 0.47523899E-01</totfact>
</mgrwt>
</event>
<event>
12    7  0.1544987E-007  0.2757009E+04  0.7818608E-02  0.8316741E-01
         -1   -1    0    0    0  501 -0.00000000000E+00  0.00000000000E+00  0.25712397388E+04  0.25712397388E+04  0.00000000000E+00 0.  1.
          2   -1    0    0  501    0  0.00000000000E+00 -0.00000000000E+00 -0.73905003961E+03  0.73905003961E+03  0.00000000000E+00 0. -1.
         24    2    1    2    0    0 -0.11377165666E+04 -0.44772534294E+03  0.10056976746E+04  0.15851151550E+04  0.79405749795E+02 0.  0.
        254    2    1    2    0    0  0.11377165666E+04  0.44772534294E+03  0.82649202456E+03  0.17251746234E+04  0.89346597358E+03 0.  0.
         23    2    4    4    0    0  0.89966868286E+03  0.43972406324E+03  0.99875060431E+03  0.14176163214E+04  0.96810507448E+02 0.  0.
         23    2    4    4    0    0  0.23804788378E+03  0.80012797026E+01 -0.17225857975E+03  0.30755830204E+03  0.90489089995E+02 0.  0.
          2    1    3    3  502    0 -0.10022066341E+04 -0.40000531789E+03  0.91846072527E+03  0.14170365188E+04  0.00000000000E+00 0. -1.
         -1    1    3    3    0  502 -0.13550993251E+03 -0.47720025049E+02  0.87236949373E+02  0.16807863617E+03  0.00000000000E+00 0.  1.
         13    1    5    5    0    0  0.11319278915E+03  0.70738088420E+02  0.17802752001E+03  0.22250906172E+03  0.00000000000E+00 0. -1.
        -13    1    5    5    0    0  0.78647589371E+03  0.36898597482E+03  0.82072308430E+03  0.11951072597E+04  0.00000000000E+00 0.  1.
          3    1    6    6  503    0  0.10615031957E+03  0.25199843187E+02 -0.30755749158E+02  0.11335271743E+03  0.00000000000E+00 0. -1.
         -3    1    6    6    0  503  0.13189756421E+03 -0.17198563484E+02 -0.14150283059E+03  0.19420558461E+03  0.00000000000E+00 0.  1.
<mgrwt>
<rscale>  0 0.27570091E+04</rscale>
<asrwt>0</asrwt>
<pdfrwt beam="1">  1        2 0.11370001E+00 0.27570091E+04</pdfrwt>
<pdfrwt beam="2">  1       -1 0.39557534E+00 0.27570091E+04</pdfrwt>
<totfact> 0.29178470E-01</totfact>
</mgrwt>
</event>
<event>
12    7  0.1544987E-007  0.1457118E+04  0.7818608E-02  0.8913481E-01
         -1   -1    0    0    0  501 -0.00000000000E+00  0.00000000000E+00  0.94756118758E+03  0.94756118758E+03  0.00000000000E+00 0.  1.
          2   -1    0    0  501    0  0.00000000000E+00 -0.00000000000E+00 -0.56017299247E+03  0.56017299247E+03  0.00000000000E+00 0. -1.
         24    2    1    2    0    0 -0.29004999434E+03 -0.98957893812E+01  0.46857626786E+03  0.55728858624E+03  0.82340292041E+02 0.  0.
        254    2    1    2    0    0  0.29004999434E+03  0.98957893812E+01 -0.81188072749E+02  0.95044559381E+03  0.90140357098E+03 0.  0.
         23    2    4    4    0    0  0.17834774191E+02  0.39202688688E+02 -0.46213551504E+03  0.47263964474E+03  0.89241635769E+02 0.  0.
         23    2    4    4    0    0  0.27221522015E+03 -0.29306899307E+02  0.38094744229E+03  0.47780594906E+03  0.90650707379E+02 0.  0.
          4    1    3    3  502    0 -0.97663912414E+02 -0.15772696170E+02  0.95582849611E+02  0.13756125498E+03  0.00000000000E+00 0. -1.
         -3    1    3    3    0  502 -0.19238608192E+03  0.58769067884E+01  0.37299341825E+03  0.41972733126E+03  0.00000000000E+00 0.  1.
         13    1    5    5    0    0 -0.23844404254E+02  0.39871077666E+02 -0.13311072372E+03  0.14098483329E+03  0.00000000000E+00 0. -1.
        -13    1    5    5    0    0  0.41679178445E+02 -0.66838897871E+00 -0.32902479132E+03  0.33165481145E+03  0.00000000000E+00 0.  1.
          2    1    6    6  503    0  0.27336308189E+03 -0.15059670004E+02  0.35662965002E+03  0.44959857148E+03  0.00000000000E+00 0.  1.
         -2    1    6    6    0  503 -0.11478617472E+01 -0.14247229302E+02  0.24317792268E+02  0.28207377584E+02  0.00000000000E+00 0. -1.
<mgrwt>
<rscale>  0 0.14571180E+04</rscale>
<asrwt>0</asrwt>
<pdfrwt beam="1">  1        2 0.86180461E-01 0.14571180E+04</pdfrwt>
<pdfrwt beam="2">  1       -1 0.14577864E+00 0.14571180E+04</pdfrwt>
<totfact> 0.22479529E+01</totfact>
</mgrwt>
</event>
<event>
12    7  0.1544987E-007  0.3767410E+04  0.7818608E-02  0.8053185E-01
         -1   -1    0    0    0  501 -0.00000000000E+00  0.00000000000E+00  0.21194225226E+04  0.21194225226E+04  0.00000000000E+00 0.  1.
          2   -1    0    0  501    0  0.00000000000E+00 -0.00000000000E+00 -0.16742032887E+04  0.16742032887E+04  0.00000000000E+00 0. -1.
         24    2    1    2    0    0 -0.16609658138E+04  0.63002951348E+03  0.31947830943E+03  0.18066931493E+04  0.79555786706E+02 0.  0.
        254    2    1    2    0    0  0.16609658138E+04 -0.63002951348E+03  0.12574092438E+03  0.19869326620E+04  0.88110498845E+03 0.  0.
         23    2    4    4    0    0  0.41236840330E+03 -0.53622821209E+03 -0.15641086858E+03  0.70012013408E+03  0.90085774942E+02 0.  0.
         23    2    4    4    0    0  0.12485974105E+04 -0.93801301384E+02  0.28215179297E+03  0.12868125279E+04  0.92101411573E+02 0.  0.
          4    1    3    3  502    0 -0.12842511469E+04  0.50538889499E+03  0.21914514516E+03  0.13974060033E+04  0.00000000000E+00 0. -1.
         -3    1    3    3    0  502 -0.37671466695E+03  0.12464061849E+03  0.10033316427E+03  0.40928714605E+03  0.00000000000E+00 0.  1.
         13    1    5    5    0    0  0.34902547545E+03 -0.39218497455E+03 -0.11621070015E+03  0.53771066904E+03  0.00000000000E+00 0. -1.
        -13    1    5    5    0    0  0.63342927854E+02 -0.14404323755E+03 -0.40200168433E+02  0.16240946504E+03  0.00000000000E+00 0.  1.
          4    1    6    6  503    0  0.59832572478E+03 -0.20485148544E+01  0.11718757279E+03  0.60969729913E+03  0.00000000000E+00 0. -1.
         -4    1    6    6    0  503  0.65027168572E+03 -0.91752786530E+02  0.16496422018E+03  0.67711522877E+03  0.00000000000E+00 0.  1.
<mgrwt>
<rscale>  0 0.37674098E+04</rscale>
<asrwt>0</asrwt>
<pdfrwt beam="1">  1        2 0.25756974E+00 0.37674098E+04</pdfrwt>
<pdfrwt beam="2">  1       -1 0.32606500E+00 0.37674098E+04</pdfrwt>
<totfact> 0.20718715E-01</totfact>
</mgrwt>
</event>
<event>
12    7  0.1544987E-007  0.1896034E+04  0.7818608E-02  0.8656833E-01
          2   -1    0    0  501    0  0.00000000000E+00  0.00000000000E+00  0.13775162696E+04  0.13775162696E+04  0.00000000000E+00 0. -1.
         -1   -1    0    0    0  501 -0.00000000000E+00 -0.00000000000E+00 -0.65243217407E+03  0.65243217407E+03  0.00000000000E+00 0.  1.
         24    2    1    2    0    0  0.39472569826E+03 -0.60647194976E+03  0.34924830717E+03  0.80744616757E+03  0.79864452338E+02 0.  0.
        254    2    1    2    0    0 -0.39472569826E+03  0.60647194976E+03  0.37583578833E+03  0.12225022761E+04  0.91084722787E+03 0.  0.
         23    2    4    4    0    0 -0.58551190680E+03  0.66608166246E+03  0.14248386101E+03  0.90230863483E+03  0.85850147160E+02 0.  0.
         23    2    4    4    0    0  0.19078620854E+03 -0.59609712708E+02  0.23335192732E+03  0.32019364125E+03  0.90100780789E+02 0.  0.
          2    1    3    3  502    0  0.24567700520E+03 -0.33102694591E+03  0.23199649166E+03  0.47303107926E+03  0.00000000000E+00 0. -1.
         -1    1    3    3    0  502  0.14904869307E+03 -0.27544500385E+03  0.11725181551E+03  0.33441508831E+03  0.00000000000E+00 0.  1.
         13    1    5    5    0    0 -0.53803864868E+03  0.57101718696E+03  0.13103447140E+03  0.79543462835E+03  0.00000000000E+00 0. -1.
        -13    1    5    5    0    0 -0.47473258112E+02  0.95064475503E+02  0.11449389609E+02  0.10687400648E+03  0.00000000000E+00 0.  1.
          3    1    6    6  503    0  0.11620300978E+03  0.10757977805E+02  0.12256622255E+03  0.16923756226E+03  0.00000000000E+00 0. -1.
         -3    1    6    6    0  503  0.74583198755E+02 -0.70367690513E+02  0.11078570476E+03  0.15095607899E+03  0.00000000000E+00 0.  1.
<mgrwt>
<rscale>  0 0.18960337E+04</rscale>
<asrwt>0</asrwt>
<pdfrwt beam="1">  1        2 0.21192558E+00 0.18960337E+04</pdfrwt>
<pdfrwt beam="2">  1       -1 0.10037418E+00 0.18960337E+04</pdfrwt>
<totfact> 0.15042517E+01</totfact>
</mgrwt>
</event>
<event>
12    7  0.1544987E-007  0.2645921E+04  0.7818608E-02  0.8352768E-01
         -1   -1    0    0    0  501 -0.00000000000E+00  0.00000000000E+00  0.42439292027E+03  0.42439292027E+03  0.00000000000E+00 0.  1.
          2   -1    0    0  501    0  0.00000000000E+00 -0.00000000000E+00 -0.41240646339E+04  0.41240646339E+04  0.00000000000E+00 0. -1.
         24    2    1    2    0    0 -0.66111405339E+03 -0.88998411807E+03 -0.22686601532E+04  0.25262685237E+04  0.77911753582E+02 0.  0.
        254    2    1    2    0    0  0.66111405339E+03  0.88998411807E+03 -0.14310115605E+04  0.20221890305E+04  0.90128290051E+03 0.  0.
         23    2    4    4    0    0 -0.94793410491E+02  0.24240371926E+03 -0.87356519376E+00  0.27735605454E+03  0.95813694702E+02 0.  0.
         23    2    4    4    0    0  0.75590746388E+03  0.64758039881E+03 -0.14301379953E+04  0.17448329759E+04  0.91602191447E+02 0.  0.
          4    1    3    3  502    0 -0.46529295687E+03 -0.56803291678E+03 -0.14712456332E+04  0.16443000467E+04  0.00000000000E+00 0. -1.
         -3    1    3    3    0  502 -0.19582109652E+03 -0.32195120129E+03 -0.79741451998E+03  0.88196847706E+03  0.00000000000E+00 0.  1.
         13    1    5    5    0    0 -0.63460048831E+01  0.43263682477E+01  0.21077545143E+02  0.22433282182E+02  0.00000000000E+00 0.  1.
        -13    1    5    5    0    0 -0.88447405608E+02  0.23807735101E+03 -0.21951110337E+02  0.25492277236E+03  0.00000000000E+00 0. -1.
          3    1    6    6  503    0  0.43302291894E+03  0.31079877614E+03 -0.76140918190E+03  0.92943459687E+03  0.00000000000E+00 0. -1.
         -3    1    6    6    0  503  0.32288454494E+03  0.33678162267E+03 -0.66872881338E+03  0.81539837906E+03  0.00000000000E+00 0.  1.
<mgrwt>
<rscale>  0 0.26459205E+04</rscale>
<asrwt>0</asrwt>
<pdfrwt beam="1">  1        2 0.63447147E+00 0.26459205E+04</pdfrwt>
<pdfrwt beam="2">  1       -1 0.65291219E-01 0.26459205E+04</pdfrwt>
<totfact> 0.64507542E-01</totfact>
</mgrwt>
</event>
<event>
12    7  0.1544987E-007  0.1098095E+04  0.7818608E-02  0.9207050E-01
         -1   -1    0    0    0  501 -0.00000000000E+00  0.00000000000E+00  0.83822662285E+02  0.83822662285E+02  0.00000000000E+00 0.  1.
          2   -1    0    0  501    0  0.00000000000E+00 -0.00000000000E+00 -0.35963228756E+04  0.35963228756E+04  0.00000000000E+00 0. -1.
         24    2    1    2    0    0 -0.28371257493E+02 -0.10523192849E+03 -0.22626687191E+03  0.27120836833E+03  0.10236500722E+03 0.  0.
        254    2    1    2    0    0  0.28371257493E+02  0.10523192849E+03 -0.32862333414E+04  0.34089371696E+04  0.89980240319E+03 0.  0.
         23    2    4    4    0    0  0.28577155334E+03 -0.16879459837E+03 -0.25966063168E+04  0.26193884390E+04  0.93136635302E+02 0.  0.
         23    2    4    4    0    0 -0.25740029584E+03  0.27402652686E+03 -0.68962702462E+03  0.78954873056E+03  0.80351198616E+02 0.  0.
          4    1    3    3  502    0  0.37941795073E+02 -0.27596613640E+02 -0.61162524349E+02  0.77084416600E+02  0.00000000000E+00 0. -1.
         -3    1    3    3    0  502 -0.66313052566E+02 -0.77635314850E+02 -0.16510434756E+03  0.19412395173E+03  0.00000000000E+00 0.  1.
         13    1    5    5    0    0  0.21315174467E+01  0.60034496819E+01 -0.14019560918E+02  0.15399118905E+02  0.00000000000E+00 0. -1.
        -13    1    5    5    0    0  0.28364003589E+03 -0.17479804805E+03 -0.25825867559E+04  0.26039893201E+04  0.00000000000E+00 0.  1.
          2    1    6    6  503    0 -0.12579419213E+03  0.82418097652E+02 -0.30676412092E+03  0.34164476796E+03  0.00000000000E+00 0. -1.
         -2    1    6    6    0  503 -0.13160610371E+03  0.19160842921E+03 -0.38286290370E+03  0.44790396259E+03  0.00000000000E+00 0.  1.
<mgrwt>
<rscale>  0 0.10980954E+04</rscale>
<asrwt>0</asrwt>
<pdfrwt beam="1">  1        2 0.55328028E+00 0.10980954E+04</pdfrwt>
<pdfrwt beam="2">  1       -1 0.12895798E-01 0.10980954E+04</pdfrwt>
<totfact> 0.34192347E+01</totfact>
</mgrwt>
</event>
<event>
12    7  0.1544987E-007  0.2035870E+04  0.7818608E-02  0.8590031E-01
         -1   -1    0    0    0  501 -0.00000000000E+00  0.00000000000E+00  0.12789412219E+04  0.12789412219E+04  0.00000000000E+00 0.  1.
          2   -1    0    0  501    0  0.00000000000E+00 -0.00000000000E+00 -0.81019513859E+03  0.81019513859E+03  0.00000000000E+00 0. -1.
         24    2    1    2    0    0 -0.25805786783E+01  0.80713194869E+03  0.69935869231E+02  0.81407402242E+03  0.79729832531E+02 0.  0.
        254    2    1    2    0    0  0.25805786783E+01 -0.80713194869E+03  0.39881021406E+03  0.12750623380E+04  0.90292067042E+03 0.  0.
         23    2    4    4    0    0 -0.39281741404E+03 -0.45703878747E+03  0.45330910871E+01  0.61001794048E+03  0.94400025276E+02 0.  0.
         23    2    4    4    0    0  0.39539799272E+03 -0.35009316122E+03  0.39427712298E+03  0.66504439756E+03  0.89021384211E+02 0.  0.
          2    1    3    3  502    0 -0.57030202528E+01  0.80172781197E+03  0.62232738250E+02  0.80415976189E+03  0.00000000000E+00 0. -1.
         -1    1    3    3    0  502  0.31224415744E+01  0.54041367204E+01  0.77031309813E+01  0.99142605369E+01  0.00000000000E+00 0.  1.
         13    1    5    5    0    0 -0.37082276212E+03 -0.45603036201E+03  0.13497077858E+01  0.58777124265E+03  0.00000000000E+00 0. -1.
        -13    1    5    5    0    0 -0.21994651920E+02 -0.10084254587E+01  0.31833833014E+01  0.22246697827E+02  0.00000000000E+00 0.  1.
          1    1    6    6  503    0  0.34269025485E+03 -0.33832072765E+03  0.35414811890E+03  0.59776116940E+03  0.00000000000E+00 0. -1.
         -1    1    6    6    0  503  0.52707737869E+02 -0.11772433575E+02  0.40129004078E+02  0.67283228162E+02  0.00000000000E+00 0.  1.
<mgrwt>
<rscale>  0 0.20358703E+04</rscale>
<asrwt>0</asrwt>
<pdfrwt beam="1">  1        2 0.12464541E+00 0.20358703E+04</pdfrwt>
<pdfrwt beam="2">  1       -1 0.19676019E+00 0.20358703E+04</pdfrwt>
<totfact> 0.56737857E+00</totfact>
</mgrwt>
</event>
<event>
12    7  0.1544987E-007  0.1608209E+04  0.7818608E-02  0.8815521E-01
          2   -1    0    0  501    0  0.00000000000E+00  0.00000000000E+00  0.23087716235E+04  0.23087716235E+04  0.00000000000E+00 0. -1.
         -1   -1    0    0    0  501 -0.00000000000E+00 -0.00000000000E+00 -0.28005534144E+03  0.28005534144E+03  0.00000000000E+00 0.  1.
         24    2    1    2    0    0 -0.23565391028E+03 -0.63231891457E+02  0.14961117616E+04  0.15179102142E+04  0.78549206547E+02 0.  0.
        254    2    1    2    0    0  0.23565391028E+03  0.63231891457E+02  0.53260452051E+03  0.10709167507E+04  0.89647313076E+03 0.  0.
         23    2    4    4    0    0  0.25683025768E+03 -0.26199127010E+03  0.61548364905E+03  0.72205491719E+03  0.89117755306E+02 0.  0.
         23    2    4    4    0    0 -0.21176347398E+02  0.32522316156E+03 -0.82879128544E+02  0.34886183354E+03  0.92828263185E+02 0.  0.
          2    1    3    3  502    0 -0.15717117499E+03 -0.57209084888E+02  0.11963777093E+04  0.12080129473E+04  0.00000000000E+00 0. -1.
         -1    1    3    3    0  502 -0.78482735293E+02 -0.60228065683E+01  0.29973405230E+03  0.30989726693E+03  0.00000000000E+00 0.  1.
         13    1    5    5    0    0  0.17155646642E+02 -0.10140988323E+02  0.88525222896E+02  0.90740679658E+02  0.00000000000E+00 0. -1.
        -13    1    5    5    0    0  0.23967461104E+03 -0.25185028178E+03  0.52695842616E+03  0.63131423753E+03  0.00000000000E+00 0.  1.
          2    1    6    6  503    0 -0.15547065901E+02  0.31223008727E+02  0.16343268797E+02  0.38518696331E+02  0.00000000000E+00 0. -1.
         -2    1    6    6    0  503 -0.56292814971E+01  0.29400015283E+03 -0.99222397341E+02  0.31034313720E+03  0.00000000000E+00 0.  1.
<mgrwt>
<rscale>  0 0.16082087E+04</rscale>
<asrwt>0</asrwt>
<pdfrwt beam="1">  1        2 0.35519562E+00 0.16082087E+04</pdfrwt>
<pdfrwt beam="2">  1       -1 0.43085439E-01 0.16082087E+04</pdfrwt>
<totfact> 0.26007718E+01</totfact>
</mgrwt>
</event>
<event>
12    7  0.1544987E-007  0.1027778E+04  0.7818608E-02  0.9278592E-01
         -1   -1    0    0    0  501 -0.00000000000E+00  0.00000000000E+00  0.25761428394E+03  0.25761428394E+03  0.00000000000E+00 0.  1.
          2   -1    0    0  501    0  0.00000000000E+00 -0.00000000000E+00 -0.10251065910E+04  0.10251065910E+04  0.00000000000E+00 0. -1.
         24    2    1    2    0    0  0.45271235064E+02 -0.46138611327E+02 -0.17836147511E+02  0.11534370476E+03  0.93849804963E+02 0.  0.
        254    2    1    2    0    0 -0.45271235064E+02  0.46138611327E+02 -0.74965615957E+03  0.11673771702E+04  0.89252834338E+03 0.  0.
         23    2    4    4    0    0 -0.34928252235E+03 -0.10052757465E+03 -0.72564055518E+03  0.81685379366E+03  0.92692131336E+02 0.  0.
         23    2    4    4    0    0  0.30401128728E+03  0.14666618598E+03 -0.24015604384E+02  0.35052337654E+03  0.91411461748E+02 0.  0.
          4    1    3    3  502    0  0.42807708253E+02 -0.71514029889E+02 -0.27960683417E+02  0.87912207196E+02  0.00000000000E+00 0. -1.
         -3    1    3    3    0  502  0.24635268110E+01  0.25375418563E+02  0.10124535906E+02  0.27431497569E+02  0.00000000000E+00 0.  1.
         13    1    5    5    0    0 -0.32049479495E+03 -0.94563642354E+02 -0.70714423188E+03  0.78212029811E+03  0.00000000000E+00 0. -1.
        -13    1    5    5    0    0 -0.28787727397E+02 -0.59639323003E+01 -0.18496323305E+02  0.34733495548E+02  0.00000000000E+00 0.  1.
          3    1    6    6  503    0  0.27754724151E+03  0.98176754799E+02 -0.17868768032E+02  0.29494141676E+03  0.00000000000E+00 0. -1.
         -3    1    6    6    0  503  0.26464045776E+02  0.48489431182E+02 -0.61468363512E+01  0.55581959774E+02  0.00000000000E+00 0.  1.
<mgrwt>
<rscale>  0 0.10277784E+04</rscale>
<asrwt>0</asrwt>
<pdfrwt beam="1">  1        2 0.15770870E+00 0.10277784E+04</pdfrwt>
<pdfrwt beam="2">  1       -1 0.39632967E-01 0.10277784E+04</pdfrwt>
<totfact> 0.17075771E+02</totfact>
</mgrwt>
</event>
<event>
12    7  0.1544987E-007  0.1573178E+04  0.7818608E-02  0.8837197E-01
          2   -1    0    0  501    0  0.00000000000E+00  0.00000000000E+00  0.17256718669E+04  0.17256718669E+04  0.00000000000E+00 0. -1.
         -1   -1    0    0    0  501 -0.00000000000E+00 -0.00000000000E+00 -0.35854005789E+03  0.35854005789E+03  0.00000000000E+00 0.  1.
         24    2    1    2    0    0 -0.14457301919E+03 -0.47527055242E+03  0.29999067626E+03  0.58576185412E+03  0.79618390031E+02 0.  0.
        254    2    1    2    0    0  0.14457301919E+03  0.47527055242E+03  0.10671411327E+04  0.14984500707E+04  0.92724266577E+03 0.  0.
         23    2    4    4    0    0  0.38221061407E+03  0.63042688760E+03  0.66051540497E+03  0.99404879743E+03  0.91265532162E+02 0.  0.
         23    2    4    4    0    0 -0.23763759488E+03 -0.15515633519E+03  0.40662572777E+03  0.50440127323E+03  0.92363667649E+02 0.  0.
          2    1    3    3  502    0 -0.33934042238E+01 -0.11564793872E+03  0.85596545618E+02  0.14391917712E+03  0.00000000000E+00 0. -1.
         -1    1    3    3    0  502 -0.14117961496E+03 -0.35962261370E+03  0.21439413064E+03  0.44184267700E+03  0.00000000000E+00 0.  1.
         13    1    5    5    0    0  0.17863229158E+03  0.23262622485E+03  0.22079540270E+03  0.36711723732E+03  0.00000000000E+00 0.  1.
        -13    1    5    5    0    0  0.20357832249E+03  0.39780066275E+03  0.43972000227E+03  0.62693156011E+03  0.00000000000E+00 0. -1.
          3    1    6    6  503    0 -0.12108106064E+02  0.17163127671E+01 -0.16105878220E+01  0.12334745847E+02  0.00000000000E+00 0. -1.
         -3    1    6    6    0  503 -0.22552948882E+03 -0.15687264795E+03  0.40823631560E+03  0.49206652739E+03  0.00000000000E+00 0.  1.
<mgrwt>
<rscale>  0 0.15731783E+04</rscale>
<asrwt>0</asrwt>
<pdfrwt beam="1">  1        2 0.26548797E+00 0.15731783E+04</pdfrwt>
<pdfrwt beam="2">  1       -1 0.55160010E-01 0.15731783E+04</pdfrwt>
<totfact> 0.34509751E+01</totfact>
</mgrwt>
</event>
<event>
12    7  0.1544987E-007  0.1556563E+04  0.7818608E-02  0.8847687E-01
          2   -1    0    0  501    0  0.00000000000E+00  0.00000000000E+00  0.56710526897E+03  0.56710526897E+03  0.00000000000E+00 0. -1.
         -1   -1    0    0    0  501 -0.00000000000E+00 -0.00000000000E+00 -0.10680945570E+04  0.10680945570E+04  0.00000000000E+00 0.  1.
         24    2    1    2    0    0 -0.13778798515E+03 -0.17573272156E+03 -0.65328187752E+03  0.69495981042E+03  0.79526148651E+02 0.  0.
        254    2    1    2    0    0  0.13778798515E+03  0.17573272156E+03  0.15229258950E+03  0.94024001555E+03  0.90055024054E+03 0.  0.
         23    2    4    4    0    0 -0.34316787258E+03  0.20925663594E+03 -0.35924530999E+02  0.41377926428E+03  0.91488683244E+02 0.  0.
         23    2    4    4    0    0  0.48095585773E+03 -0.33523914378E+02  0.18821712050E+03  0.52646075127E+03  0.96399420414E+02 0.  0.
          4    1    3    3  502    0 -0.10290123797E+03 -0.69783512706E+02 -0.37862466568E+03  0.39851604846E+03  0.00000000000E+00 0. -1.
         -3    1    3    3    0  502 -0.34886747184E+02 -0.10594920885E+03 -0.27465721184E+03  0.29644376195E+03  0.00000000000E+00 0.  1.
         13    1    5    5    0    0 -0.32158246158E+03  0.17094685346E+03 -0.13562889649E+02  0.36444760705E+03  0.00000000000E+00 0.  1.
        -13    1    5    5    0    0 -0.21585410999E+02  0.38309782474E+02 -0.22361641349E+02  0.49331657230E+02  0.00000000000E+00 0. -1.
          4    1    6    6  503    0  0.46621264323E+02 -0.29421392313E+02  0.60733784176E+01  0.55462118045E+02  0.00000000000E+00 0. -1.
         -4    1    6    6    0  503  0.43433459341E+03 -0.41025220650E+01  0.18214374208E+03  0.47099863323E+03  0.00000000000E+00 0.  1.
<mgrwt>
<rscale>  0 0.15565629E+04</rscale>
<asrwt>0</asrwt>
<pdfrwt beam="1">  1        2 0.87246965E-01 0.15565629E+04</pdfrwt>
<pdfrwt beam="2">  1       -1 0.16432224E+00 0.15565629E+04</pdfrwt>
<totfact> 0.15822310E+01</totfact>
</mgrwt>
</event>
<event>
12    7  0.1544987E-007  0.3287976E+04  0.7818608E-02  0.8165962E-01
          2   -1    0    0  501    0  0.00000000000E+00  0.00000000000E+00  0.28964715854E+04  0.28964715854E+04  0.00000000000E+00 0. -1.
         -1   -1    0    0    0  501 -0.00000000000E+00 -0.00000000000E+00 -0.93309989130E+03  0.93309989130E+03  0.00000000000E+00 0.  1.
         24    2    1    2    0    0  0.10473891021E+04  0.76743619876E+03  0.18164203177E+04  0.22354371591E+04  0.10869347502E+03 0.  0.
        254    2    1    2    0    0 -0.10473891021E+04 -0.76743619876E+03  0.14695137641E+03  0.15941343176E+04  0.91306476506E+03 0.  0.
         23    2    4    4    0    0 -0.11773105140E+04 -0.79352078343E+03  0.11914776849E+03  0.14285149866E+04  0.10355479676E+03 0.  0.
         23    2    4    4    0    0  0.12992141195E+03  0.26084584675E+02  0.27803607917E+02  0.16561933103E+03  0.95376849173E+02 0.  0.
          2    1    3    3  502    0  0.98104160357E+03  0.68864264650E+03  0.16432613837E+04  0.20339565624E+04  0.00000000000E+00 0. -1.
         -1    1    3    3    0  502  0.66347498490E+02  0.78793552263E+02  0.17315893400E+03  0.20148059673E+03  0.00000000000E+00 0.  1.
         13    1    5    5    0    0 -0.11674164626E+04 -0.77536235335E+03  0.10955857409E+03  0.14057208319E+04  0.00000000000E+00 0.  1.
        -13    1    5    5    0    0 -0.98940514303E+01 -0.18158430084E+02  0.95891944046E+01  0.22794154649E+02  0.00000000000E+00 0. -1.
          4    1    6    6  503    0  0.82378470890E+02 -0.23960945979E+02  0.41409182967E+02  0.95263108455E+02  0.00000000000E+00 0. -1.
         -4    1    6    6    0  503  0.47542941056E+02  0.50045530654E+02 -0.13605575051E+02  0.70356222576E+02  0.00000000000E+00 0.  1.
<mgrwt>
<rscale>  0 0.32879765E+04</rscale>
<asrwt>0</asrwt>
<pdfrwt beam="1">  1        2 0.44561101E+00 0.32879765E+04</pdfrwt>
<pdfrwt beam="2">  1       -1 0.14355383E+00 0.32879765E+04</pdfrwt>
<totfact> 0.75191393E-01</totfact>
</mgrwt>
</event>
<event>
12    7  0.1544987E-007  0.3005992E+04  0.7818608E-02  0.8242022E-01
         -1   -1    0    0    0  501 -0.00000000000E+00  0.00000000000E+00  0.12646742503E+04  0.12646742503E+04  0.00000000000E+00 0.  1.
          2   -1    0    0  501    0  0.00000000000E+00 -0.00000000000E+00 -0.17862283187E+04  0.17862283187E+04  0.00000000000E+00 0. -1.
         24    2    1    2    0    0 -0.87825153711E+03 -0.71187676164E+03  0.54472773247E+03  0.12574580490E+04  0.79863359376E+02 0.  0.
        254    2    1    2    0    0  0.87825153711E+03  0.71187676164E+03 -0.10662818008E+04  0.17934445200E+04  0.89520505002E+03 0.  0.
         23    2    4    4    0    0 -0.14430823747E+03  0.28016470777E+03 -0.23476503949E+03  0.40341562242E+03  0.91172417784E+02 0.  0.
         23    2    4    4    0    0  0.10225597746E+04  0.43171205387E+03 -0.83151676129E+03  0.13900288976E+04  0.93575754615E+02 0.  0.
          2    1    3    3  502    0 -0.69564703808E+03 -0.55112752423E+03  0.46158768875E+03  0.10003647055E+04  0.00000000000E+00 0. -1.
         -1    1    3    3    0  502 -0.18260449903E+03 -0.16074923742E+03  0.83140043717E+02  0.25709334349E+03  0.00000000000E+00 0.  1.
         13    1    5    5    0    0 -0.12147790399E+03  0.17393768034E+03 -0.19363684433E+03  0.28723931709E+03  0.00000000000E+00 0. -1.
        -13    1    5    5    0    0 -0.22830333482E+02  0.10622702743E+03 -0.41128195163E+02  0.11617630533E+03  0.00000000000E+00 0.  1.
          2    1    6    6  503    0  0.99045712595E+03  0.40057146418E+03 -0.78734292906E+03  0.13271667959E+04  0.00000000000E+00 0. -1.
         -2    1    6    6    0  503  0.32102648634E+02  0.31140589688E+02 -0.44173832232E+02  0.62862101695E+02  0.00000000000E+00 0.  1.
<mgrwt>
<rscale>  0 0.30059920E+04</rscale>
<asrwt>0</asrwt>
<pdfrwt beam="1">  1        2 0.27480436E+00 0.30059920E+04</pdfrwt>
<pdfrwt beam="2">  1       -1 0.19456527E+00 0.30059920E+04</pdfrwt>
<totfact> 0.14037641E+00</totfact>
</mgrwt>
</event>
<event>
12    7  0.1544987E-007  0.2361263E+04  0.7818608E-02  0.8454150E-01
         -1   -1    0    0    0  501 -0.00000000000E+00  0.00000000000E+00  0.72266658996E+03  0.72266658996E+03  0.00000000000E+00 0.  1.
          2   -1    0    0  501    0  0.00000000000E+00 -0.00000000000E+00 -0.19288155226E+04  0.19288155226E+04  0.00000000000E+00 0. -1.
         24    2    1    2    0    0  0.99899405921E+03  0.10072099748E+03 -0.63302037980E+03  0.11907895244E+04  0.95556478461E+02 0.  0.
        254    2    1    2    0    0 -0.99899405921E+03 -0.10072099748E+03 -0.57312855280E+03  0.14606925881E+04  0.89275564921E+03 0.  0.
         23    2    4    4    0    0 -0.69836866090E+03  0.34621637146E+03 -0.43405127615E+03  0.89693791872E+03  0.92263521106E+02 0.  0.
         23    2    4    4    0    0 -0.30062539831E+03 -0.44693736895E+03 -0.13907727665E+03  0.56375466936E+03  0.91368465445E+02 0.  0.
          4    1    3    3  502    0  0.94133632095E+03  0.11398597811E+03 -0.60898771203E+03  0.11269307458E+04  0.00000000000E+00 0. -1.
         -3    1    3    3    0  502  0.57657738253E+02 -0.13264980629E+02 -0.24032667768E+02  0.63858778657E+02  0.00000000000E+00 0.  1.
         13    1    5    5    0    0 -0.53853274056E+03  0.24323867997E+03 -0.28907317754E+03  0.65783422689E+03  0.00000000000E+00 0.  1.
        -13    1    5    5    0    0 -0.15983592034E+03  0.10297769149E+03 -0.14497809860E+03  0.23910369184E+03  0.00000000000E+00 0. -1.
          3    1    6    6  503    0 -0.15564113944E+03 -0.15158555237E+03 -0.59081361446E+02  0.22515095213E+03  0.00000000000E+00 0. -1.
         -3    1    6    6    0  503 -0.14498425887E+03 -0.29535181658E+03 -0.79995915202E+02  0.33860371724E+03  0.00000000000E+00 0.  1.
<mgrwt>
<rscale>  0 0.23612628E+04</rscale>
<asrwt>0</asrwt>
<pdfrwt beam="1">  1        2 0.29674085E+00 0.23612628E+04</pdfrwt>
<pdfrwt beam="2">  1       -1 0.11117948E+00 0.23612628E+04</pdfrwt>
<totfact> 0.55911749E+00</totfact>
</mgrwt>
</event>
<event>
12    7  0.1544987E-007  0.1329054E+04  0.7818608E-02  0.9006837E-01
         -1   -1    0    0    0  501 -0.00000000000E+00  0.00000000000E+00  0.41345629875E+03  0.41345629875E+03  0.00000000000E+00 0.  1.
          2   -1    0    0  501    0  0.00000000000E+00 -0.00000000000E+00 -0.10680604547E+04  0.10680604547E+04  0.00000000000E+00 0. -1.
         24    2    1    2    0    0 -0.89916587579E+02  0.90710241975E+02 -0.53553817234E+03  0.55632767687E+03  0.79912510253E+02 0.  0.
        254    2    1    2    0    0  0.89916587579E+02 -0.90710241975E+02 -0.11906598359E+03  0.92518907657E+03  0.90856192867E+03 0.  0.
         23    2    4    4    0    0  0.21232201194E+03  0.15816818896E+03 -0.42035237034E+03  0.50563961044E+03  0.94220420535E+02 0.  0.
         23    2    4    4    0    0 -0.12240542436E+03 -0.24887843094E+03  0.30128638675E+03  0.41954946612E+03  0.91239828933E+02 0.  0.
          4    1    3    3  502    0 -0.10432697270E+03  0.84344191707E+02 -0.49432023260E+03  0.51220167147E+03  0.00000000000E+00 0. -1.
         -3    1    3    3    0  502  0.14410385119E+02  0.63660502680E+01 -0.41217939749E+02  0.44126005399E+02  0.00000000000E+00 0.  1.
         13    1    5    5    0    0  0.12593433964E+03  0.14671937778E+03 -0.27512356999E+03  0.33627222972E+03  0.00000000000E+00 0.  1.
        -13    1    5    5    0    0  0.86387672299E+02  0.11448811187E+02 -0.14522880035E+03  0.16936738073E+03  0.00000000000E+00 0. -1.
          1    1    6    6  503    0 -0.53258405395E+02 -0.70215024712E+02  0.43247220884E+02  0.98167864165E+02  0.00000000000E+00 0. -1.
         -1    1    6    6    0  503 -0.69147018967E+02 -0.17866340623E+03  0.25803916586E+03  0.32138160196E+03  0.00000000000E+00 0.  1.
<mgrwt>
<rscale>  0 0.13290543E+04</rscale>
<asrwt>0</asrwt>
<pdfrwt beam="1">  1        2 0.16431699E+00 0.13290543E+04</pdfrwt>
<pdfrwt beam="2">  1       -1 0.63608663E-01 0.13290543E+04</pdfrwt>
<totfact> 0.63783491E+01</totfact>
</mgrwt>
</event>
<event>
12    7  0.1544987E-007  0.2519680E+04  0.7818608E-02  0.8396008E-01
          2   -1    0    0  501    0  0.00000000000E+00  0.00000000000E+00  0.14590047023E+04  0.14590047023E+04  0.00000000000E+00 0. -1.
         -1   -1    0    0    0  501 -0.00000000000E+00 -0.00000000000E+00 -0.10878627390E+04  0.10878627390E+04  0.00000000000E+00 0.  1.
         24    2    1    2    0    0 -0.76467445432E+03 -0.75272846811E+03  0.38644867547E+03  0.11431549614E+04  0.78316787159E+02 0.  0.
        254    2    1    2    0    0  0.76467445432E+03  0.75272846811E+03 -0.15306712170E+02  0.14037124799E+04  0.90490179744E+03 0.  0.
         23    2    4    4    0    0 -0.40800199508E+02  0.56100976053E+03  0.17458411452E+02  0.57028850749E+03  0.92344885909E+02 0.  0.
         23    2    4    4    0    0  0.80547465383E+03  0.19171870758E+03 -0.32765123623E+02  0.83342397241E+03  0.89311162059E+02 0.  0.
          4    1    3    3  502    0 -0.38715833905E+03 -0.41934647577E+03  0.23502567311E+03  0.61723586517E+03  0.00000000000E+00 0. -1.
         -3    1    3    3    0  502 -0.37751611527E+03 -0.33338199234E+03  0.15142300236E+03  0.52591909620E+03  0.00000000000E+00 0.  1.
         13    1    5    5    0    0 -0.15291801907E+02  0.36079364568E+03  0.54122757509E+02  0.36515088231E+03  0.00000000000E+00 0. -1.
        -13    1    5    5    0    0 -0.25508397601E+02  0.20021611485E+03 -0.36664346057E+02  0.20513762519E+03  0.00000000000E+00 0.  1.
          1    1    6    6  503    0  0.71959552630E+03  0.14325338831E+03 -0.19983379711E+02  0.73398814037E+03  0.00000000000E+00 0. -1.
         -1    1    6    6    0  503  0.85879127523E+02  0.48465319271E+02 -0.12781743912E+02  0.99435832041E+02  0.00000000000E+00 0.  1.
<mgrwt>
<rscale>  0 0.25196800E+04</rscale>
<asrwt>0</asrwt>
<pdfrwt beam="1">  1        2 0.22446226E+00 0.25196800E+04</pdfrwt>
<pdfrwt beam="2">  1       -1 0.16736350E+00 0.25196800E+04</pdfrwt>
<totfact> 0.34956097E+00</totfact>
</mgrwt>
</event>
<event>
12    7  0.1544987E-007  0.1339856E+04  0.7818608E-02  0.8998542E-01
         -1   -1    0    0    0  501 -0.00000000000E+00  0.00000000000E+00  0.10646660906E+04  0.10646660906E+04  0.00000000000E+00 0.  1.
          2   -1    0    0  501    0  0.00000000000E+00 -0.00000000000E+00 -0.42154413438E+03  0.42154413438E+03  0.00000000000E+00 0. -1.
         24    2    1    2    0    0  0.24695460725E+03 -0.26264684401E+03  0.25677712567E+03  0.44970754542E+03  0.79576638699E+02 0.  0.
        254    2    1    2    0    0 -0.24695460725E+03  0.26264684401E+03  0.38634483055E+03  0.10365026796E+04  0.89168690354E+03 0.  0.
         23    2    4    4    0    0 -0.13447295995E+03 -0.64892229948E+02 -0.24899612279E+03  0.30584398607E+03  0.96163902727E+02 0.  0.
         23    2    4    4    0    0 -0.11248164730E+03  0.32753907396E+03  0.63534095334E+03  0.73065869349E+03  0.10134117346E+03 0.  0.
          2    1    3    3  502    0  0.39913631828E+02 -0.19657269461E+02  0.85086672539E+01  0.45297943296E+02  0.00000000000E+00 0. -1.
         -1    1    3    3    0  502  0.20704097542E+03 -0.24298957455E+03  0.24826845842E+03  0.40440960212E+03  0.00000000000E+00 0.  1.
         13    1    5    5    0    0 -0.12461136082E+03 -0.87764387922E+02 -0.21967354881E+03  0.26737061745E+03  0.00000000000E+00 0. -1.
        -13    1    5    5    0    0 -0.98615991232E+01  0.22872157974E+02 -0.29322573982E+02  0.38473368615E+02  0.00000000000E+00 0.  1.
          1    1    6    6  503    0 -0.33486139531E+02  0.21229043500E+03  0.44867958639E+03  0.49749564981E+03  0.00000000000E+00 0. -1.
         -1    1    6    6    0  503 -0.78995507772E+02  0.11524863896E+03  0.18666136694E+03  0.23316304368E+03  0.00000000000E+00 0.  1.
<mgrwt>
<rscale>  0 0.13398563E+04</rscale>
<asrwt>0</asrwt>
<pdfrwt beam="1">  1        2 0.64852944E-01 0.13398563E+04</pdfrwt>
<pdfrwt beam="2">  1       -1 0.16379478E+00 0.13398563E+04</pdfrwt>
<totfact> 0.22927315E+01</totfact>
</mgrwt>
</event>
<event>
12    7  0.2151901E-007  0.2801957E+04  0.7818608E-02  0.8302661E-01
          2   -1    0    0  501    0  0.00000000000E+00  0.00000000000E+00  0.13535047303E+04  0.13535047303E+04  0.00000000000E+00 0. -1.
         -1   -1    0    0    0  501 -0.00000000000E+00 -0.00000000000E+00 -0.14501169747E+04  0.14501169747E+04  0.00000000000E+00 0.  1.
         24    2    1    2    0    0 -0.43974530650E+03 -0.16843661230E+02  0.11298646023E+04  0.12151049373E+04  0.78907195628E+02 0.  0.
        254    2    1    2    0    0  0.43974530650E+03  0.16843661230E+02 -0.12264768468E+04  0.15885167678E+04  0.90855953155E+03 0.  0.
         23    2    4    4    0    0  0.11754449254E+03 -0.42142717861E+03 -0.66381834260E+03  0.80058465935E+03  0.94145792360E+02 0.  0.
         23    2    4    4    0    0  0.32220081396E+03  0.43827083984E+03 -0.56265850416E+03  0.78793210842E+03  0.91420575438E+02 0.  0.
          4    1    3    3  502    0 -0.40240688290E+03 -0.58126327201E+01  0.96209081972E+03  0.10428728741E+04  0.00000000000E+00 0. -1.
         -3    1    3    3    0  502 -0.37338423596E+02 -0.11031028510E+02  0.16777378259E+03  0.17223206319E+03  0.00000000000E+00 0.  1.
         13    1    5    5    0    0  0.27761582889E+02 -0.15829118662E+02 -0.42199970049E+02  0.52934902987E+02  0.00000000000E+00 0. -1.
        -13    1    5    5    0    0  0.89782909651E+02 -0.40559805995E+03 -0.62161837255E+03  0.74764975636E+03  0.00000000000E+00 0.  1.
          3    1    6    6  503    0  0.99065266393E+01  0.44096447315E+02 -0.74109370387E+02  0.86803425710E+02  0.00000000000E+00 0. -1.
         -3    1    6    6    0  503  0.31229428732E+03  0.39417439253E+03 -0.48854913377E+03  0.70112868271E+03  0.00000000000E+00 0.  1.
<mgrwt>
<rscale>  0 0.28019566E+04</rscale>
<asrwt>0</asrwt>
<pdfrwt beam="1">  1        2 0.20823150E+00 0.28019566E+04</pdfrwt>
<pdfrwt beam="2">  1       -1 0.22309492E+00 0.28019566E+04</pdfrwt>
<totfact> 0.16003253E+00</totfact>
</mgrwt>
</event>
<event>
12    7  0.1544987E-007  0.2420854E+04  0.7818608E-02  0.8431737E-01
         -1   -1    0    0    0  501 -0.00000000000E+00  0.00000000000E+00  0.62843487797E+03  0.62843487797E+03  0.00000000000E+00 0.  1.
          2   -1    0    0  501    0  0.00000000000E+00 -0.00000000000E+00 -0.23314006249E+04  0.23314006249E+04  0.00000000000E+00 0. -1.
         24    2    1    2    0    0 -0.16310301537E+03  0.31156166076E+03 -0.19356964664E+04  0.19690174770E+04  0.80223143171E+02 0.  0.
        254    2    1    2    0    0  0.16310301537E+03 -0.31156166076E+03  0.23273071946E+03  0.99081802586E+03  0.89659551109E+03 0.  0.
         23    2    4    4    0    0  0.11217760791E+03 -0.42690987897E+03  0.50533120511E+03  0.67731154089E+03  0.92495600315E+02 0.  0.
         23    2    4    4    0    0  0.50925407462E+02  0.11534821822E+03 -0.27260048565E+03  0.31350648497E+03  0.89870366484E+02 0.  0.
          2    1    3    3  502    0 -0.11365373100E+03  0.27955913153E+03 -0.16282058389E+04  0.16559362102E+04  0.00000000000E+00 0. -1.
         -1    1    3    3    0  502 -0.49449284367E+02  0.32002529228E+02 -0.30749062750E+03  0.31308126676E+03  0.00000000000E+00 0.  1.
         13    1    5    5    0    0  0.50094208125E+02 -0.57248706125E+02  0.80543855029E+02  0.11078879286E+03  0.00000000000E+00 0.  1.
        -13    1    5    5    0    0  0.62083399781E+02 -0.36966117285E+03  0.42478735008E+03  0.56652274802E+03  0.00000000000E+00 0. -1.
          2    1    6    6  503    0  0.52798124001E+02  0.12030712220E+03 -0.27702541401E+03  0.30660157462E+03  0.00000000000E+00 0. -1.
         -2    1    6    6    0  503 -0.18727165394E+01 -0.49589039831E+01  0.44249283635E+01  0.69049103522E+01  0.00000000000E+00 0.  1.
<mgrwt>
<rscale>  0 0.24208540E+04</rscale>
<asrwt>0</asrwt>
<pdfrwt beam="1">  1        2 0.35867702E+00 0.24208540E+04</pdfrwt>
<pdfrwt beam="2">  1       -1 0.96682288E-01 0.24208540E+04</pdfrwt>
<totfact> 0.45723962E+00</totfact>
</mgrwt>
</event>
<event>
12    7  0.1544987E-007  0.1226791E+04  0.7818608E-02  0.9089724E-01
          2   -1    0    0  501    0  0.00000000000E+00  0.00000000000E+00  0.18832537015E+04  0.18832537015E+04  0.00000000000E+00 0. -1.
         -1   -1    0    0    0  501 -0.00000000000E+00 -0.00000000000E+00 -0.19978950372E+03  0.19978950372E+03  0.00000000000E+00 0.  1.
         24    2    1    2    0    0  0.12030210410E+03 -0.16731553986E+03  0.87814560085E+02  0.23806741705E+03  0.80607766188E+02 0.  0.
        254    2    1    2    0    0 -0.12030210410E+03  0.16731553986E+03  0.15956496377E+04  0.18449757882E+04  0.90297885165E+03 0.  0.
         23    2    4    4    0    0 -0.27632632617E+03  0.40332880979E+03  0.14086609076E+04  0.14937762260E+04  0.89506945567E+02 0.  0.
         23    2    4    4    0    0  0.15602422207E+03 -0.23601326993E+03  0.18698873011E+03  0.35119956222E+03  0.91271714445E+02 0.  0.
          4    1    3    3  502    0  0.26196262674E+01 -0.40421237267E+02  0.43459590147E+02  0.59409383432E+02  0.00000000000E+00 0. -1.
         -3    1    3    3    0  502  0.11768247783E+03 -0.12689430260E+03  0.44354969938E+02  0.17865803362E+03  0.00000000000E+00 0.  1.
         13    1    5    5    0    0 -0.43292318400E+01  0.38679228570E+02  0.72363065786E+02  0.82165919097E+02  0.00000000000E+00 0. -1.
        -13    1    5    5    0    0 -0.27199709433E+03  0.36464958122E+03  0.13362978418E+04  0.14116103069E+04  0.00000000000E+00 0.  1.
          4    1    6    6  503    0 -0.11293101312E+02 -0.65049395035E+01  0.55194604478E+01  0.14153191118E+02  0.00000000000E+00 0. -1.
         -4    1    6    6    0  503  0.16731732338E+03 -0.22950833043E+03  0.18146926967E+03  0.33704637110E+03  0.00000000000E+00 0.  1.
<mgrwt>
<rscale>  0 0.12267915E+04</rscale>
<asrwt>0</asrwt>
<pdfrwt beam="1">  1        2 0.28973133E+00 0.12267915E+04</pdfrwt>
<pdfrwt beam="2">  1       -1 0.30736848E-01 0.12267915E+04</pdfrwt>
<totfact> 0.85158781E+01</totfact>
</mgrwt>
</event>
<event>
12    7  0.1544987E-007  0.1631865E+04  0.7818608E-02  0.8801208E-01
          2   -1    0    0  501    0  0.00000000000E+00  0.00000000000E+00  0.18858991380E+04  0.18858991380E+04  0.00000000000E+00 0. -1.
         -1   -1    0    0    0  501 -0.00000000000E+00 -0.00000000000E+00 -0.35301257265E+03  0.35301257265E+03  0.00000000000E+00 0.  1.
         24    2    1    2    0    0 -0.29032895646E+03  0.43259757285E+03  0.24414020248E+03  0.58054775861E+03  0.77457721162E+02 0.  0.
        254    2    1    2    0    0  0.29032895646E+03 -0.43259757285E+03  0.12887463629E+04  0.16583639521E+04  0.90436289542E+03 0.  0.
         23    2    4    4    0    0  0.17651910086E+03 -0.56302424488E+03  0.13301843302E+04  0.14580482523E+04  0.91427897035E+02 0.  0.
         23    2    4    4    0    0  0.11380985560E+03  0.13042667204E+03 -0.41437967337E+02  0.20031569975E+03  0.91899262356E+02 0.  0.
          2    1    3    3  502    0 -0.72662286171E+01 -0.24201861120E+01  0.25694596231E+01  0.80782115526E+01  0.00000000000E+00 0. -1.
         -1    1    3    3    0  502 -0.28306272785E+03  0.43501775896E+03  0.24157074286E+03  0.57246954706E+03  0.00000000000E+00 0.  1.
         13    1    5    5    0    0  0.12683191279E+01 -0.12569441934E+03  0.29768910912E+03  0.32314006464E+03  0.00000000000E+00 0.  1.
        -13    1    5    5    0    0  0.17525078174E+03 -0.43732982554E+03  0.10324952211E+04  0.11349081877E+04  0.00000000000E+00 0. -1.
          4    1    6    6  503    0  0.72750984443E+02  0.38560231526E+02  0.16826543803E+02  0.84040048602E+02  0.00000000000E+00 0.  1.
         -4    1    6    6    0  503  0.41058871154E+02  0.91866440510E+02 -0.58264511140E+02  0.11627565115E+03  0.00000000000E+00 0. -1.
<mgrwt>
<rscale>  0 0.16318653E+04</rscale>
<asrwt>0</asrwt>
<pdfrwt beam="1">  1        2 0.29013832E+00 0.16318653E+04</pdfrwt>
<pdfrwt beam="2">  1       -1 0.54309628E-01 0.16318653E+04</pdfrwt>
<totfact> 0.28846862E+01</totfact>
</mgrwt>
</event>
<event>
12    7  0.1544987E-007  0.1361620E+04  0.7818608E-02  0.8982078E-01
          2   -1    0    0  501    0  0.00000000000E+00  0.00000000000E+00  0.11933063087E+04  0.11933063087E+04  0.00000000000E+00 0. -1.
         -1   -1    0    0    0  501 -0.00000000000E+00 -0.00000000000E+00 -0.38841875741E+03  0.38841875741E+03  0.00000000000E+00 0.  1.
         24    2    1    2    0    0  0.11583107495E+03  0.61821639633E+02 -0.18107504058E+03  0.23757237755E+03  0.80085649143E+02 0.  0.
        254    2    1    2    0    0 -0.11583107495E+03 -0.61821639633E+02  0.98596259186E+03  0.13441526886E+04  0.90409372554E+03 0.  0.
         23    2    4    4    0    0 -0.43974851969E+03  0.71593585977E+02  0.83661891422E+03  0.95147499398E+03  0.82879758834E+02 0.  0.
         23    2    4    4    0    0  0.32391744474E+03 -0.13341522561E+03  0.14934367764E+03  0.39267769457E+03  0.95760661718E+02 0.  0.
          4    1    3    3  502    0  0.21365980386E+02  0.51655558717E+02 -0.45804834403E+02  0.72269528287E+02  0.00000000000E+00 0. -1.
         -3    1    3    3    0  502  0.94465094568E+02  0.10166080916E+02 -0.13527020618E+03  0.16530284926E+03  0.00000000000E+00 0.  1.
         13    1    5    5    0    0 -0.16581007508E+03  0.63249630676E+02  0.36911681513E+03  0.40956161928E+03  0.00000000000E+00 0. -1.
        -13    1    5    5    0    0 -0.27393844462E+03  0.83439553011E+01  0.46750209909E+03  0.54191337470E+03  0.00000000000E+00 0.  1.
          2    1    6    6  503    0  0.42716215583E+02  0.21830765763E+01  0.48366186859E+02  0.64565694672E+02  0.00000000000E+00 0.  1.
         -2    1    6    6    0  503  0.28120122915E+03 -0.13559830219E+03  0.10097749078E+03  0.32811199990E+03  0.00000000000E+00 0. -1.
<mgrwt>
<rscale>  0 0.13616204E+04</rscale>
<asrwt>0</asrwt>
<pdfrwt beam="1">  1        2 0.18358558E+00 0.13616204E+04</pdfrwt>
<pdfrwt beam="2">  1       -1 0.59756733E-01 0.13616204E+04</pdfrwt>
<totfact> 0.60398340E+01</totfact>
</mgrwt>
</event>
<event>
12    7  0.1544987E-007  0.1822574E+04  0.7818608E-02  0.8694386E-01
          2   -1    0    0  501    0  0.00000000000E+00  0.00000000000E+00  0.54642320076E+03  0.54642320076E+03  0.00000000000E+00 0. -1.
         -1   -1    0    0    0  501 -0.00000000000E+00 -0.00000000000E+00 -0.15197821255E+04  0.15197821255E+04  0.00000000000E+00 0.  1.
         24    2    1    2    0    0 -0.10574897594E+03 -0.18269895468E+03  0.37362983998E+03  0.43658309120E+03  0.80273185091E+02 0.  0.
        254    2    1    2    0    0  0.10574897594E+03  0.18269895468E+03 -0.13469887648E+04  0.16296222351E+04  0.89259629326E+03 0.  0.
         23    2    4    4    0    0 -0.63590166319E+02 -0.34086991387E+03 -0.54027197706E+03  0.64849869039E+03  0.91764561869E+02 0.  0.
         23    2    4    4    0    0  0.16933914226E+03  0.52356886855E+03 -0.80671678769E+03  0.98112354469E+03  0.94928021026E+02 0.  0.
          4    1    3    3  502    0 -0.11581199298E+03 -0.17548382914E+03  0.33049719737E+03  0.39170829641E+03  0.00000000000E+00 0. -1.
         -3    1    3    3    0  502  0.10063017046E+02 -0.72151255396E+01  0.43132642615E+02  0.44874794792E+02  0.00000000000E+00 0.  1.
         13    1    5    5    0    0  0.13864591994E+02 -0.11853069266E+03 -0.22879014779E+03  0.25804395699E+03  0.00000000000E+00 0.  1.
        -13    1    5    5    0    0 -0.77454758313E+02 -0.22233922120E+03 -0.31148182927E+03  0.39045473340E+03  0.00000000000E+00 0. -1.
          4    1    6    6  503    0  0.10679947138E+03  0.39608887185E+03 -0.53118641240E+03  0.67115685664E+03  0.00000000000E+00 0. -1.
         -4    1    6    6    0  503  0.62539670880E+02  0.12747999670E+03 -0.27553037529E+03  0.30996668805E+03  0.00000000000E+00 0.  1.
<mgrwt>
<rscale>  0 0.18225742E+04</rscale>
<asrwt>0</asrwt>
<pdfrwt beam="1">  1        2 0.84065110E-01 0.18225742E+04</pdfrwt>
<pdfrwt beam="2">  1       -1 0.23381263E+00 0.18225742E+04</pdfrwt>
<totfact> 0.53192274E+00</totfact>
</mgrwt>
</event>
<event>
12    7  0.1544987E-007  0.1485989E+04  0.7818608E-02  0.8893824E-01
         -1   -1    0    0    0  501 -0.00000000000E+00  0.00000000000E+00  0.48814823196E+03  0.48814823196E+03  0.00000000000E+00 0.  1.
          2   -1    0    0  501    0  0.00000000000E+00 -0.00000000000E+00 -0.11308884143E+04  0.11308884143E+04  0.00000000000E+00 0. -1.
         24    2    1    2    0    0  0.20769760605E+03  0.19608566022E+02  0.24800730442E+03  0.33360173328E+03  0.79118278418E+02 0.  0.
        254    2    1    2    0    0 -0.20769760605E+03 -0.19608566022E+02 -0.89074748676E+03  0.12854349130E+04  0.90298894727E+03 0.  0.
         23    2    4    4    0    0 -0.95532828540E+02  0.38398122834E+03 -0.71481039815E+03  0.82191912366E+03  0.89604885453E+02 0.  0.
         23    2    4    4    0    0 -0.11216477751E+03 -0.40358979436E+03 -0.17593708861E+03  0.46351578931E+03  0.91800699155E+02 0.  0.
          4    1    3    3  502    0  0.23121553978E+02  0.85263113490E+01  0.80200912020E+02  0.83901671809E+02  0.00000000000E+00 0. -1.
         -3    1    3    3    0  502  0.18457605207E+03  0.11082254673E+02  0.16780639240E+03  0.24970006147E+03  0.00000000000E+00 0.  1.
         13    1    5    5    0    0 -0.13820335739E+02  0.40477570299E+02 -0.14863150584E+03  0.15466337609E+03  0.00000000000E+00 0. -1.
        -13    1    5    5    0    0 -0.81712492801E+02  0.34350365804E+03 -0.56617889231E+03  0.66725574757E+03  0.00000000000E+00 0.  1.
          1    1    6    6  503    0 -0.63808169444E+02 -0.14950133379E+03 -0.11102170842E+03  0.19684499241E+03  0.00000000000E+00 0. -1.
         -1    1    6    6    0  503 -0.48356608065E+02 -0.25408846057E+03 -0.64915380188E+02  0.26667079690E+03  0.00000000000E+00 0.  1.
<mgrwt>
<rscale>  0 0.14859895E+04</rscale>
<asrwt>0</asrwt>
<pdfrwt beam="1">  1        2 0.17398283E+00 0.14859895E+04</pdfrwt>
<pdfrwt beam="2">  1       -1 0.75099729E-01 0.14859895E+04</pdfrwt>
<totfact> 0.41019266E+01</totfact>
</mgrwt>
</event>
<event>
12    7  0.1544987E-007  0.1574113E+04  0.7818608E-02  0.8836611E-01
          2   -1    0    0  501    0  0.00000000000E+00  0.00000000000E+00  0.23724250910E+04  0.23724250910E+04  0.00000000000E+00 0. -1.
         -1   -1    0    0    0  501 -0.00000000000E+00 -0.00000000000E+00 -0.26110761051E+03  0.26110761051E+03  0.00000000000E+00 0.  1.
         24    2    1    2    0    0 -0.17196315888E+02  0.51146625704E+03  0.50852280196E+03  0.72582394160E+03  0.79570778013E+02 0.  0.
        254    2    1    2    0    0  0.17196315888E+02 -0.51146625704E+03  0.16027946785E+04  0.19077087599E+04  0.89917099917E+03 0.  0.
         23    2    4    4    0    0  0.12407020139E+03 -0.48287102291E+03  0.16708138582E+04  0.17460853883E+04  0.92937586478E+02 0.  0.
         23    2    4    4    0    0 -0.10687388550E+03 -0.28595234132E+02 -0.68019179653E+02  0.16162337159E+03  0.96207019621E+02 0.  0.
          4    1    3    3  502    0 -0.22867467162E+02  0.51107791423E+03  0.50616115468E+03  0.71966844448E+03  0.00000000000E+00 0. -1.
         -3    1    3    3    0  502  0.56711512740E+01  0.38834280882E+00  0.23616472740E+01  0.61554971170E+01  0.00000000000E+00 0.  1.
         13    1    5    5    0    0  0.93815767406E+02 -0.20211053092E+03  0.81333684473E+03  0.84330711364E+03  0.00000000000E+00 0.  1.
        -13    1    5    5    0    0  0.30254433987E+02 -0.28076049199E+03  0.85747701346E+03  0.90277827469E+03  0.00000000000E+00 0. -1.
          1    1    6    6  503    0 -0.37482147652E+02  0.18484211059E+02  0.14245743653E+02  0.44153353930E+02  0.00000000000E+00 0. -1.
         -1    1    6    6    0  503 -0.69391737853E+02 -0.47079445191E+02 -0.82264923306E+02  0.11747001766E+03  0.00000000000E+00 0.  1.
<mgrwt>
<rscale>  0 0.15741134E+04</rscale>
<asrwt>0</asrwt>
<pdfrwt beam="1">  1        2 0.36498846E+00 0.15741134E+04</pdfrwt>
<pdfrwt beam="2">  1       -1 0.40170403E-01 0.15741134E+04</pdfrwt>
<totfact> 0.27307565E+01</totfact>
</mgrwt>
</event>
<event>
12    7  0.1544987E-007  0.2080073E+04  0.7818608E-02  0.8570072E-01
          2   -1    0    0  501    0  0.00000000000E+00  0.00000000000E+00  0.13460527014E+04  0.13460527014E+04  0.00000000000E+00 0. -1.
         -1   -1    0    0    0  501 -0.00000000000E+00 -0.00000000000E+00 -0.80359135152E+03  0.80359135152E+03  0.00000000000E+00 0.  1.
         24    2    1    2    0    0 -0.45818514223E+03 -0.60520832200E+03 -0.17201387173E+03  0.78236491327E+03  0.79343228251E+02 0.  0.
        254    2    1    2    0    0  0.45818514223E+03  0.60520832200E+03  0.71447522156E+03  0.13672791396E+04  0.88474101624E+03 0.  0.
         23    2    4    4    0    0  0.34013822317E+03  0.83775849137E+02 -0.11137833908E+03  0.37897894409E+03  0.92236120298E+02 0.  0.
         23    2    4    4    0    0  0.11804691906E+03  0.52143247286E+03  0.82585356064E+03  0.98830019552E+03  0.94213979787E+02 0.  0.
          4    1    3    3  502    0 -0.42608326645E+02 -0.65501656798E+02 -0.42654137754E+02  0.89024221481E+02  0.00000000000E+00 0. -1.
         -3    1    3    3    0  502 -0.41557681558E+03 -0.53970666520E+03 -0.12935973397E+03  0.69334069179E+03  0.00000000000E+00 0.  1.
         13    1    5    5    0    0  0.30680007187E+03  0.47704373848E+02 -0.11138317810E+03  0.32986088545E+03  0.00000000000E+00 0. -1.
        -13    1    5    5    0    0  0.33338151297E+02  0.36071475289E+02  0.48390147374E-02  0.49118058642E+02  0.00000000000E+00 0.  1.
          4    1    6    6  503    0  0.12035449191E+03  0.36654994344E+03  0.62774351393E+03  0.73682154152E+03  0.00000000000E+00 0. -1.
         -4    1    6    6    0  503 -0.23075728493E+01  0.15488252942E+03  0.19811004671E+03  0.25147865401E+03  0.00000000000E+00 0.  1.
<mgrwt>
<rscale>  0 0.20800734E+04</rscale>
<asrwt>0</asrwt>
<pdfrwt beam="1">  1        2 0.20708503E+00 0.20800734E+04</pdfrwt>
<pdfrwt beam="2">  1       -1 0.12362944E+00 0.20800734E+04</pdfrwt>
<totfact> 0.94058877E+00</totfact>
</mgrwt>
</event>
<event>
12    7  0.1544987E-007  0.1766794E+04  0.7818608E-02  0.8724160E-01
          2   -1    0    0  501    0  0.00000000000E+00  0.00000000000E+00  0.15419016850E+04  0.15419016850E+04  0.00000000000E+00 0. -1.
         -1   -1    0    0    0  501 -0.00000000000E+00 -0.00000000000E+00 -0.50612171524E+03  0.50612171524E+03  0.00000000000E+00 0.  1.
         24    2    1    2    0    0  0.12196596238E+03  0.14228117959E+03  0.11159092355E+04  0.11343761692E+04  0.80226188402E+02 0.  0.
        254    2    1    2    0    0 -0.12196596238E+03 -0.14228117959E+03 -0.80129265732E+02  0.91364723105E+03  0.89062390128E+03 0.  0.
         23    2    4    4    0    0 -0.46951253233E+03 -0.15907109291E+03  0.95792005887E+02  0.51295494902E+03  0.90559597565E+02 0.  0.
         23    2    4    4    0    0  0.34754656995E+03  0.16789913322E+02 -0.17592127162E+03  0.40069228204E+03  0.92387724303E+02 0.  0.
          4    1    3    3  502    0  0.12256196621E+03  0.91402881354E+02  0.85071610862E+03  0.86434589127E+03  0.00000000000E+00 0. -1.
         -3    1    3    3    0  502 -0.59600382230E+00  0.50878298237E+02  0.26519312684E+03  0.27003027789E+03  0.00000000000E+00 0.  1.
         13    1    5    5    0    0 -0.38531061405E+03 -0.15188830068E+03  0.10684686092E+03  0.42772722251E+03  0.00000000000E+00 0. -1.
        -13    1    5    5    0    0 -0.84201918282E+02 -0.71827922285E+01 -0.11054855029E+02  0.85227726511E+02  0.00000000000E+00 0.  1.
          3    1    6    6  503    0  0.19893221249E+03  0.45323563652E+02 -0.13242013683E+03  0.24323516034E+03  0.00000000000E+00 0. -1.
         -3    1    6    6    0  503  0.14861435746E+03 -0.28533650330E+02 -0.43501134790E+02  0.15745712170E+03  0.00000000000E+00 0.  1.
<mgrwt>
<rscale>  0 0.17667936E+04</rscale>
<asrwt>0</asrwt>
<pdfrwt beam="1">  1        2 0.23721564E+00 0.17667936E+04</pdfrwt>
<pdfrwt beam="2">  1       -1 0.77864880E-01 0.17667936E+04</pdfrwt>
<totfact> 0.21420844E+01</totfact>
</mgrwt>
</event>
<event>
12    7  0.1544987E-007  0.2187566E+04  0.7818608E-02  0.8523621E-01
         -1   -1    0    0    0  501 -0.00000000000E+00  0.00000000000E+00  0.45269443020E+03  0.45269443020E+03  0.00000000000E+00 0.  1.
          2   -1    0    0  501    0  0.00000000000E+00 -0.00000000000E+00 -0.26427571332E+04  0.26427571332E+04  0.00000000000E+00 0. -1.
         24    2    1    2    0    0 -0.60075860902E+03  0.10441140062E+03 -0.18839184532E+04  0.19815663974E+04  0.75126574010E+02 0.  0.
        254    2    1    2    0    0  0.60075860902E+03 -0.10441140062E+03 -0.30614424976E+03  0.11138851660E+04  0.88045625354E+03 0.  0.
         23    2    4    4    0    0 -0.18472393223E+03  0.54288541984E+02  0.65186023703E+02  0.22561716502E+03  0.97896427595E+02 0.  0.
         23    2    4    4    0    0  0.78548254125E+03 -0.15869994260E+03 -0.37133027347E+03  0.88826800094E+03  0.94685664800E+02 0.  0.
          4    1    3    3  502    0 -0.36862614830E+03  0.87120457249E+02 -0.10727127633E+04  0.11376237883E+04  0.00000000000E+00 0. -1.
         -3    1    3    3    0  502 -0.23213246072E+03  0.17290943371E+02 -0.81120568997E+03  0.84394260911E+03  0.00000000000E+00 0.  1.
         13    1    5    5    0    0 -0.99103903292E+02  0.77806193295E+02  0.26447820277E+02  0.12874344473E+03  0.00000000000E+00 0.  1.
        -13    1    5    5    0    0 -0.85620028935E+02 -0.23517651312E+02  0.38738203426E+02  0.96873720290E+02  0.00000000000E+00 0. -1.
          2    1    6    6  503    0  0.62881675672E+03 -0.88696263081E+02 -0.30205326278E+03  0.70321669076E+03  0.00000000000E+00 0. -1.
         -2    1    6    6    0  503  0.15666578453E+03 -0.70003679522E+02 -0.69277010690E+02  0.18505131018E+03  0.00000000000E+00 0.  1.
<mgrwt>
<rscale>  0 0.21875662E+04</rscale>
<asrwt>0</asrwt>
<pdfrwt beam="1">  1        2 0.40657801E+00 0.21875662E+04</pdfrwt>
<pdfrwt beam="2">  1       -1 0.69645298E-01 0.21875662E+04</pdfrwt>
<totfact> 0.62359534E+00</totfact>
</mgrwt>
</event>
<event>
12    7  0.1544987E-007  0.1127257E+04  0.7818608E-02  0.9179025E-01
          2   -1    0    0  501    0  0.00000000000E+00  0.00000000000E+00  0.88669952136E+03  0.88669952136E+03  0.00000000000E+00 0. -1.
         -1   -1    0    0    0  501 -0.00000000000E+00 -0.00000000000E+00 -0.35826897225E+03  0.35826897225E+03  0.00000000000E+00 0.  1.
         24    2    1    2    0    0  0.62239258955E+02 -0.15522386830E+03 -0.80243293942E+01  0.18626031983E+03  0.81610919830E+02 0.  0.
        254    2    1    2    0    0 -0.62239258955E+02  0.15522386830E+03  0.53645487850E+03  0.10587081738E+04  0.89727977014E+03 0.  0.
         23    2    4    4    0    0 -0.29059311952E+02  0.50463088740E+03  0.44952267694E+03  0.68269179825E+03  0.92199122452E+02 0.  0.
         23    2    4    4    0    0 -0.33179947003E+02 -0.34940701910E+03  0.86932201564E+02  0.37601637553E+03  0.10317428515E+03 0.  0.
          4    1    3    3  502    0  0.22327851235E+02 -0.95359167871E+02  0.33108589213E+02  0.10338318295E+03  0.00000000000E+00 0. -1.
         -3    1    3    3    0  502  0.39911407720E+02 -0.59864700427E+02 -0.41132918607E+02  0.82877136875E+02  0.00000000000E+00 0.  1.
         13    1    5    5    0    0 -0.25638678743E+02  0.47272160812E+03  0.44598683183E+03  0.65040550028E+03  0.00000000000E+00 0.  1.
        -13    1    5    5    0    0 -0.34206332089E+01  0.31909279279E+02  0.35358451118E+01  0.32286297965E+02  0.00000000000E+00 0. -1.
          1    1    6    6  503    0  0.68194045374E+01  0.52074039641E+01  0.47699493631E+01  0.98170133552E+01  0.00000000000E+00 0. -1.
         -1    1    6    6    0  503 -0.39999351541E+02 -0.35461442307E+03  0.82162252201E+02  0.36619936217E+03  0.00000000000E+00 0.  1.
<mgrwt>
<rscale>  0 0.11272567E+04</rscale>
<asrwt>0</asrwt>
<pdfrwt beam="1">  1        2 0.13641531E+00 0.11272567E+04</pdfrwt>
<pdfrwt beam="2">  1       -1 0.55118304E-01 0.11272567E+04</pdfrwt>
<totfact> 0.11265688E+02</totfact>
</mgrwt>
</event>
<event>
12    7  0.1544987E-007  0.1776415E+04  0.7818608E-02  0.8718943E-01
          2   -1    0    0  501    0  0.00000000000E+00  0.00000000000E+00  0.22110119800E+04  0.22110119800E+04  0.00000000000E+00 0. -1.
         -3   -1    0    0    0  501 -0.00000000000E+00 -0.00000000000E+00 -0.35681050184E+03  0.35681050184E+03  0.00000000000E+00 0.  1.
         24    2    1    2    0    0  0.38843392063E+03 -0.41968103456E+03  0.11710835041E+04  0.13059216109E+04  0.83555962813E+02 0.  0.
        254    2    1    2    0    0 -0.38843392063E+03  0.41968103456E+03  0.68311797405E+03  0.12619008709E+04  0.89371727071E+03 0.  0.
         23    2    4    4    0    0  0.22975396798E+03 -0.41834537337E+02  0.31383942784E+03  0.40182630217E+03  0.91826882416E+02 0.  0.
         23    2    4    4    0    0 -0.61818788861E+03  0.46151557190E+03  0.36927854621E+03  0.86007456870E+03  0.90602043563E+02 0.  0.
          2    1    3    3  502    0  0.37216415241E+03 -0.38124237870E+03  0.11174443366E+04  0.12379554730E+04  0.00000000000E+00 0. -1.
         -3    1    3    3    0  502  0.16269768217E+02 -0.38438655861E+02  0.53639167473E+02  0.67966137962E+02  0.00000000000E+00 0.  1.
         13    1    5    5    0    0  0.15977115559E+03 -0.49194692028E+02  0.15447354637E+03  0.22761594059E+03  0.00000000000E+00 0. -1.
        -13    1    5    5    0    0  0.69982812395E+02  0.73601546920E+01  0.15936588147E+03  0.17421036158E+03  0.00000000000E+00 0.  1.
          2    1    6    6  503    0 -0.94931267567E+02  0.37706570229E+02  0.65668917481E+02  0.12143367623E+03  0.00000000000E+00 0. -1.
         -2    1    6    6    0  503 -0.52325662104E+03  0.42380900167E+03  0.30360962873E+03  0.73864089246E+03  0.00000000000E+00 0.  1.
<mgrwt>
<rscale>  0 0.17764147E+04</rscale>
<asrwt>0</asrwt>
<pdfrwt beam="1">  1        2 0.34015568E+00 0.17764147E+04</pdfrwt>
<pdfrwt beam="2">  1       -3 0.54893925E-01 0.17764147E+04</pdfrwt>
<totfact> 0.10126958E+01</totfact>
</mgrwt>
</event>
<event>
12    7  0.1544987E-007  0.2206940E+04  0.7818608E-02  0.8515545E-01
          2   -1    0    0  501    0  0.00000000000E+00  0.00000000000E+00  0.13477625379E+04  0.13477625379E+04  0.00000000000E+00 0. -1.
         -1   -1    0    0    0  501 -0.00000000000E+00 -0.00000000000E+00 -0.90345756568E+03  0.90345756568E+03  0.00000000000E+00 0.  1.
         24    2    1    2    0    0  0.87141655316E+03  0.79861668825E+02 -0.96143654639E+02  0.88407330515E+03  0.81223834416E+02 0.  0.
        254    2    1    2    0    0 -0.87141655316E+03 -0.79861668825E+02  0.54044862684E+03  0.13671467984E+04  0.90070025806E+03 0.  0.
         23    2    4    4    0    0 -0.42841821774E+03 -0.79085133866E+02  0.74756203788E+03  0.86994472864E+03  0.90322769643E+02 0.  0.
         23    2    4    4    0    0 -0.44299833542E+03 -0.77653495947E+00 -0.20711341104E+03  0.49720206977E+03  0.89809826658E+02 0.  0.
          4    1    3    3  502    0  0.18570478226E+03  0.21618467521E+02  0.12468987295E+02  0.18737422431E+03  0.00000000000E+00 0. -1.
         -3    1    3    3    0  502  0.68571177090E+03  0.58243201304E+02 -0.10861264193E+03  0.69669908084E+03  0.00000000000E+00 0.  1.
         13    1    5    5    0    0 -0.31118599014E+03 -0.16997335069E+02  0.50305312210E+03  0.59176690809E+03  0.00000000000E+00 0. -1.
        -13    1    5    5    0    0 -0.11723222760E+03 -0.62087798797E+02  0.24450891578E+03  0.27817782054E+03  0.00000000000E+00 0.  1.
          2    1    6    6  503    0 -0.30508581880E+03 -0.41843255938E+02 -0.13473332313E+03  0.33612688566E+03  0.00000000000E+00 0. -1.
         -2    1    6    6    0  503 -0.13791251662E+03  0.41066720979E+02 -0.72380087910E+02  0.16107518411E+03  0.00000000000E+00 0.  1.
<mgrwt>
<rscale>  0 0.22069402E+04</rscale>
<asrwt>0</asrwt>
<pdfrwt beam="1">  1        2 0.20734808E+00 0.22069402E+04</pdfrwt>
<pdfrwt beam="2">  1       -1 0.13899347E+00 0.22069402E+04</pdfrwt>
<totfact> 0.68965200E+00</totfact>
</mgrwt>
</event>
<event>
12    7  0.1544987E-007  0.1836278E+04  0.7818608E-02  0.8687242E-01
         -1   -1    0    0    0  501 -0.00000000000E+00  0.00000000000E+00  0.93946631184E+03  0.93946631184E+03  0.00000000000E+00 0.  1.
          2   -1    0    0  501    0  0.00000000000E+00 -0.00000000000E+00 -0.89729595301E+03  0.89729595301E+03  0.00000000000E+00 0. -1.
         24    2    1    2    0    0 -0.78829010242E+00 -0.35173792970E+03 -0.58964691302E+03  0.69119108271E+03  0.79633147521E+02 0.  0.
        254    2    1    2    0    0  0.78829010242E+00  0.35173792970E+03  0.63181727185E+03  0.11455711822E+04  0.88849314898E+03 0.  0.
         23    2    4    4    0    0 -0.15687812848E+03  0.45212336999E+02 -0.17998311208E+03  0.25897909288E+03  0.89561974638E+02 0.  0.
         23    2    4    4    0    0  0.15766641858E+03  0.30652559270E+03  0.81180038393E+03  0.88659208927E+03  0.90603702386E+02 0.  0.
          4    1    3    3  502    0  0.62125924183E+01 -0.35273426680E+03 -0.57036783242E+03  0.67065603967E+03  0.00000000000E+00 0. -1.
         -3    1    3    3    0  502 -0.70008825207E+01  0.99633710520E+00 -0.19279080604E+02  0.20535043040E+02  0.00000000000E+00 0.  1.
         13    1    5    5    0    0 -0.82763495193E+02  0.66422990927E+02 -0.12667666918E+03  0.16525370911E+03  0.00000000000E+00 0. -1.
        -13    1    5    5    0    0 -0.74114633290E+02 -0.21210653928E+02 -0.53306442896E+02  0.93725383765E+02  0.00000000000E+00 0.  1.
          4    1    6    6  503    0  0.15072064141E+03  0.29148202976E+03  0.80378196691E+03  0.86818427522E+03  0.00000000000E+00 0. -1.
         -4    1    6    6    0  503  0.69457771784E+01  0.15043562943E+02  0.80184170222E+01  0.18407814052E+02  0.00000000000E+00 0.  1.
<mgrwt>
<rscale>  0 0.18362781E+04</rscale>
<asrwt>0</asrwt>
<pdfrwt beam="1">  1        2 0.13804553E+00 0.18362781E+04</pdfrwt>
<pdfrwt beam="2">  1       -1 0.14453328E+00 0.18362781E+04</pdfrwt>
<totfact> 0.12190417E+01</totfact>
</mgrwt>
</event>
<event>
12    7  0.1544987E-007  0.1396060E+04  0.7818608E-02  0.8956675E-01
         -1   -1    0    0    0  501 -0.00000000000E+00  0.00000000000E+00  0.21425503216E+03  0.21425503216E+03  0.00000000000E+00 0.  1.
          2   -1    0    0  501    0  0.00000000000E+00 -0.00000000000E+00 -0.22741397242E+04  0.22741397242E+04  0.00000000000E+00 0. -1.
         24    2    1    2    0    0 -0.76744964373E+02  0.35902151329E+03 -0.95640561239E+03  0.10276149583E+04  0.80588898645E+02 0.  0.
        254    2    1    2    0    0  0.76744964373E+02 -0.35902151329E+03 -0.11034790797E+04  0.14607797981E+04  0.88398263705E+03 0.  0.
         23    2    4    4    0    0  0.10357191238E+03  0.22255471529E+03 -0.68173859875E+02  0.27003042700E+03  0.89504268060E+02 0.  0.
         23    2    4    4    0    0 -0.26826948010E+02 -0.58157622858E+03 -0.10353052198E+04  0.11907493711E+04  0.84122361899E+02 0.  0.
          4    1    3    3  502    0 -0.38176253209E+02  0.31495634040E+03 -0.81347092858E+03  0.87314939976E+03  0.00000000000E+00 0. -1.
         -3    1    3    3    0  502 -0.38568711164E+02  0.44065172891E+02 -0.14293468381E+03  0.15446555855E+03  0.00000000000E+00 0.  1.
         13    1    5    5    0    0  0.39952596409E+02  0.50686081861E+02 -0.57526821672E+02  0.86455908219E+02  0.00000000000E+00 0.  1.
        -13    1    5    5    0    0  0.63619315974E+02  0.17186863343E+03 -0.10647038203E+02  0.18357451878E+03  0.00000000000E+00 0. -1.
          3    1    6    6  503    0  0.15597285302E+02 -0.20349428081E+03 -0.42698862875E+03  0.47325731554E+03  0.00000000000E+00 0. -1.
         -3    1    6    6    0  503 -0.42424233312E+02 -0.37808194777E+03 -0.60831659105E+03  0.71749205553E+03  0.00000000000E+00 0.  1.
<mgrwt>
<rscale>  0 0.13960600E+04</rscale>
<asrwt>0</asrwt>
<pdfrwt beam="1">  1        2 0.34986764E+00 0.13960600E+04</pdfrwt>
<pdfrwt beam="2">  1       -1 0.32962313E-01 0.13960600E+04</pdfrwt>
<totfact> 0.45008530E+01</totfact>
</mgrwt>
</event>
<event>
12    7  0.1544987E-007  0.1665022E+04  0.7818608E-02  0.8781569E-01
          2   -1    0    0  501    0  0.00000000000E+00  0.00000000000E+00  0.82997263028E+03  0.82997263028E+03  0.00000000000E+00 0. -1.
         -1   -1    0    0    0  501 -0.00000000000E+00 -0.00000000000E+00 -0.83505667716E+03  0.83505667716E+03  0.00000000000E+00 0.  1.
         24    2    1    2    0    0  0.41826720741E+03  0.42426813828E+03  0.33603474690E+02  0.60185415864E+03  0.78411254332E+02 0.  0.
        254    2    1    2    0    0 -0.41826720741E+03 -0.42426813828E+03 -0.38687521568E+02  0.10631751488E+04  0.87971231818E+03 0.  0.
         23    2    4    4    0    0 -0.39708553428E+03 -0.12287432169E+03  0.35829361225E+03  0.55611327997E+03  0.90070234303E+02 0.  0.
         23    2    4    4    0    0 -0.21181673128E+02 -0.30139381659E+03 -0.39698113382E+03  0.50706186884E+03  0.90723879236E+02 0.  0.
          2    1    3    3  502    0  0.15812803130E+03  0.12133498151E+03 -0.13569480764E+02  0.19977683257E+03  0.00000000000E+00 0. -1.
         -1    1    3    3    0  502  0.26013917611E+03  0.30293315677E+03  0.47172955455E+02  0.40207732607E+03  0.00000000000E+00 0.  1.
         13    1    5    5    0    0 -0.40176933876E+02 -0.42498105005E+02  0.36947609729E+02  0.69176591484E+02  0.00000000000E+00 0. -1.
        -13    1    5    5    0    0 -0.35690860040E+03 -0.80376216683E+02  0.32134600252E+03  0.48693668848E+03  0.00000000000E+00 0.  1.
          2    1    6    6  503    0 -0.94543903564E+01 -0.11121394364E+03 -0.80380649118E+02  0.13754626680E+03  0.00000000000E+00 0. -1.
         -2    1    6    6    0  503 -0.11727282772E+02 -0.19017987295E+03 -0.31660048470E+03  0.36951560204E+03  0.00000000000E+00 0.  1.
<mgrwt>
<rscale>  0 0.16650215E+04</rscale>
<asrwt>0</asrwt>
<pdfrwt beam="1">  1        2 0.12768810E+00 0.16650215E+04</pdfrwt>
<pdfrwt beam="2">  1       -1 0.12847026E+00 0.16650215E+04</pdfrwt>
<totfact> 0.18662208E+01</totfact>
</mgrwt>
</event>
<event>
12    7  0.1544987E-007  0.2101776E+04  0.7818608E-02  0.8560461E-01
         -1   -1    0    0    0  501 -0.00000000000E+00  0.00000000000E+00  0.72492802744E+03  0.72492802744E+03  0.00000000000E+00 0.  1.
          2   -1    0    0  501    0  0.00000000000E+00 -0.00000000000E+00 -0.15234140635E+04  0.15234140635E+04  0.00000000000E+00 0. -1.
         24    2    1    2    0    0 -0.19423117574E+03  0.56705587241E+03 -0.97988447674E+03  0.11525160353E+04  0.94029313707E+02 0.  0.
        254    2    1    2    0    0  0.19423117574E+03 -0.56705587241E+03  0.18139844065E+03  0.10958260557E+04  0.89925037555E+03 0.  0.
         23    2    4    4    0    0  0.29059838776E+03  0.11882958960E+03 -0.10189561900E+03  0.34200102526E+03  0.89521448700E+02 0.  0.
         23    2    4    4    0    0 -0.96367212022E+02 -0.68588546201E+03  0.28329405965E+03  0.75382503040E+03  0.90945839256E+02 0.  0.
          2    1    3    3  502    0 -0.11793244136E+02  0.85792000057E+00 -0.17334310788E+02  0.20983206725E+02  0.00000000000E+00 0. -1.
         -1    1    3    3    0  502 -0.18243793160E+03  0.56619795241E+03 -0.96255016596E+03  0.11315328286E+04  0.00000000000E+00 0.  1.
         13    1    5    5    0    0  0.20355469808E+03  0.10883996377E+03 -0.10661587439E+03  0.25425891822E+03  0.00000000000E+00 0.  1.
        -13    1    5    5    0    0  0.87043689675E+02  0.99896258263E+01  0.47202553883E+01  0.87742107037E+02  0.00000000000E+00 0. -1.
          4    1    6    6  503    0 -0.21368808795E+01 -0.14686776811E+02 -0.71023214055E+01  0.16453286672E+02  0.00000000000E+00 0. -1.
         -4    1    6    6    0  503 -0.94230331142E+02 -0.67119868520E+03  0.29039638105E+03  0.73737174373E+03  0.00000000000E+00 0.  1.
<mgrwt>
<rscale>  0 0.21017760E+04</rscale>
<asrwt>0</asrwt>
<pdfrwt beam="1">  1        2 0.23437139E+00 0.21017760E+04</pdfrwt>
<pdfrwt beam="2">  1       -1 0.11152739E+00 0.21017760E+04</pdfrwt>
<totfact> 0.95470467E+00</totfact>
</mgrwt>
</event>
<event>
12    7  0.1544987E-007  0.1309684E+04  0.7818608E-02  0.9021921E-01
          2   -1    0    0  501    0  0.00000000000E+00  0.00000000000E+00  0.78636771604E+03  0.78636771604E+03  0.00000000000E+00 0. -1.
         -1   -1    0    0    0  501 -0.00000000000E+00 -0.00000000000E+00 -0.54531484239E+03  0.54531484239E+03  0.00000000000E+00 0.  1.
         24    2    1    2    0    0 -0.53295172196E+02 -0.20752033039E+03 -0.18834161648E+03  0.29578597139E+03  0.78177448615E+02 0.  0.
        254    2    1    2    0    0  0.53295172196E+02  0.20752033039E+03  0.42939449012E+03  0.10358965870E+04  0.91803978562E+03 0.  0.
         23    2    4    4    0    0  0.36679466847E+03  0.40758560644E+03  0.29255502923E+03  0.62889791799E+03  0.96227806410E+02 0.  0.
         23    2    4    4    0    0 -0.31349949628E+03 -0.20006527605E+03  0.13683946089E+03  0.40699866904E+03  0.92816106872E+02 0.  0.
          2    1    3    3  502    0  0.10982449838E+02 -0.24815042032E+00 -0.74883483188E+01  0.13294778811E+02  0.00000000000E+00 0. -1.
         -1    1    3    3    0  502 -0.64277622034E+02 -0.20727217997E+03 -0.18085326816E+03  0.28249119258E+03  0.00000000000E+00 0.  1.
         13    1    5    5    0    0 -0.47016659444E+01  0.29818821476E+01 -0.16203580947E+01  0.57985208588E+01  0.00000000000E+00 0.  1.
        -13    1    5    5    0    0  0.37149633442E+03  0.40460372430E+03  0.29417538733E+03  0.62309939713E+03  0.00000000000E+00 0. -1.
          1    1    6    6  503    0 -0.28544321354E+03 -0.18180369876E+03  0.91380198062E+02  0.35054351177E+03  0.00000000000E+00 0. -1.
         -1    1    6    6    0  503 -0.28056282733E+02 -0.18261577290E+02  0.45459262830E+02  0.56455157275E+02  0.00000000000E+00 0.  1.
<mgrwt>
<rscale>  0 0.13096839E+04</rscale>
<asrwt>0</asrwt>
<pdfrwt beam="1">  1        2 0.12097965E+00 0.13096839E+04</pdfrwt>
<pdfrwt beam="2">  1       -1 0.83894591E-01 0.13096839E+04</pdfrwt>
<totfact> 0.55538431E+01</totfact>
</mgrwt>
</event>
<event>
12    7  0.1544987E-007  0.2092242E+04  0.7818608E-02  0.8564669E-01
          2   -1    0    0  501    0  0.00000000000E+00  0.00000000000E+00  0.20465972469E+04  0.20465972469E+04  0.00000000000E+00 0. -1.
         -1   -1    0    0    0  501 -0.00000000000E+00 -0.00000000000E+00 -0.53472602529E+03  0.53472602529E+03  0.00000000000E+00 0.  1.
         24    2    1    2    0    0 -0.27223159537E+03 -0.10660953527E+03 -0.37545757739E+03  0.47969831739E+03  0.60551207796E+02 0.  0.
        254    2    1    2    0    0  0.27223159537E+03  0.10660953527E+03  0.18873287990E+04  0.21016249548E+04  0.87712132601E+03 0.  0.
         23    2    4    4    0    0  0.59210258342E+02 -0.21380305912E+03  0.15869563133E+04  0.16050313856E+04  0.92074999970E+02 0.  0.
         23    2    4    4    0    0  0.21302133703E+03  0.32041259438E+03  0.30037248567E+03  0.49659356918E+03  0.91319341494E+02 0.  0.
          2    1    3    3  502    0 -0.13841914192E+03 -0.64334952188E+02 -0.14914362288E+03  0.21340727534E+03  0.00000000000E+00 0. -1.
         -1    1    3    3    0  502 -0.13381245345E+03 -0.42274583079E+02 -0.22631395451E+03  0.26629104205E+03  0.00000000000E+00 0.  1.
         13    1    5    5    0    0  0.24064675538E+02 -0.17956494574E+03  0.14028025970E+04  0.14144531822E+04  0.00000000000E+00 0. -1.
        -13    1    5    5    0    0  0.35145582804E+02 -0.34238113372E+02  0.18415371630E+03  0.19057820344E+03  0.00000000000E+00 0.  1.
          3    1    6    6  503    0  0.78328747807E+02  0.60231803317E+02  0.10650311581E+03  0.14527964944E+03  0.00000000000E+00 0. -1.
         -3    1    6    6    0  503  0.13469258922E+03  0.26018079106E+03  0.19386936986E+03  0.35131391973E+03  0.00000000000E+00 0.  1.
<mgrwt>
<rscale>  0 0.20922417E+04</rscale>
<asrwt>0</asrwt>
<pdfrwt beam="1">  1        2 0.31486111E+00 0.20922417E+04</pdfrwt>
<pdfrwt beam="2">  1       -1 0.82265544E-01 0.20922417E+04</pdfrwt>
<totfact> 0.97066374E+00</totfact>
</mgrwt>
</event>
<event>
12    7  0.1544987E-007  0.2511059E+04  0.7818608E-02  0.8399056E-01
          2   -1    0    0  501    0  0.00000000000E+00  0.00000000000E+00  0.20464064976E+04  0.20464064976E+04  0.00000000000E+00 0. -1.
         -1   -1    0    0    0  501 -0.00000000000E+00 -0.00000000000E+00 -0.77030370075E+03  0.77030370075E+03  0.00000000000E+00 0.  1.
         24    2    1    2    0    0  0.31547862150E+03 -0.12694770504E+03  0.17108568972E+04  0.17461512345E+04  0.79814352346E+02 0.  0.
        254    2    1    2    0    0 -0.31547862150E+03  0.12694770504E+03 -0.43475410026E+03  0.10705589639E+04  0.91730196063E+03 0.  0.
         23    2    4    4    0    0 -0.43947431247E+03 -0.28849262444E+03 -0.26149765552E+03  0.59414235876E+03  0.90876030683E+02 0.  0.
         23    2    4    4    0    0  0.12399569097E+03  0.41544032947E+03 -0.17325644475E+03  0.47641660510E+03  0.94812379152E+02 0.  0.
          2    1    3    3  502    0  0.22092477632E+03 -0.11661670425E+03  0.13530019761E+04  0.13758712003E+04  0.00000000000E+00 0. -1.
         -1    1    3    3    0  502  0.94553845180E+02 -0.10331000789E+02  0.35785492110E+03  0.37028003426E+03  0.00000000000E+00 0.  1.
         13    1    5    5    0    0 -0.26655557854E+03 -0.18118302673E+03 -0.11045000312E+03  0.34070275727E+03  0.00000000000E+00 0. -1.
        -13    1    5    5    0    0 -0.17291873393E+03 -0.10730959771E+03 -0.15104765240E+03  0.25343960149E+03  0.00000000000E+00 0.  1.
          4    1    6    6  503    0  0.34879076730E+02  0.33533283329E+02 -0.38197407803E+02  0.61644732518E+02  0.00000000000E+00 0.  1.
         -4    1    6    6    0  503  0.89116614240E+02  0.38190704614E+03 -0.13505903694E+03  0.41477187259E+03  0.00000000000E+00 0. -1.
<mgrwt>
<rscale>  0 0.25110591E+04</rscale>
<asrwt>0</asrwt>
<pdfrwt beam="1">  1        2 0.31483177E+00 0.25110591E+04</pdfrwt>
<pdfrwt beam="2">  1       -1 0.11850826E+00 0.25110591E+04</pdfrwt>
<totfact> 0.40737741E+00</totfact>
</mgrwt>
</event>
<event>
12    7  0.1544987E-007  0.1961626E+04  0.7818608E-02  0.8624775E-01
         -1   -1    0    0    0  501 -0.00000000000E+00  0.00000000000E+00  0.50983064117E+03  0.50983064117E+03  0.00000000000E+00 0.  1.
          2   -1    0    0  501    0  0.00000000000E+00 -0.00000000000E+00 -0.18868896331E+04  0.18868896331E+04  0.00000000000E+00 0. -1.
         24    2    1    2    0    0 -0.53410113237E+03  0.35007095624E+03 -0.10640207623E+04  0.12433770722E+04  0.77670245448E+02 0.  0.
        254    2    1    2    0    0  0.53410113237E+03 -0.35007095624E+03 -0.31303822955E+03  0.11533432020E+04  0.90796140584E+03 0.  0.
         23    2    4    4    0    0  0.24149266933E+03 -0.56372085381E+03  0.63250058895E+02  0.62315979846E+03  0.90706417116E+02 0.  0.
         23    2    4    4    0    0  0.29260846304E+03  0.21364989757E+03 -0.37628828845E+03  0.53018340357E+03  0.90750063467E+02 0.  0.
          2    1    3    3  502    0 -0.46383290397E+03  0.28823069810E+03 -0.85735816618E+03  0.10165042662E+04  0.00000000000E+00 0. -1.
         -1    1    3    3    0  502 -0.70268228394E+02  0.61840258133E+02 -0.20666259615E+03  0.22687280598E+03  0.00000000000E+00 0.  1.
         13    1    5    5    0    0  0.16500563988E+03 -0.44957495366E+03  0.77079833772E+02  0.48506267732E+03  0.00000000000E+00 0.  1.
        -13    1    5    5    0    0  0.76487029449E+02 -0.11414590015E+03 -0.13829774878E+02  0.13809712114E+03  0.00000000000E+00 0. -1.
          2    1    6    6  503    0  0.21228139459E+03  0.10193740816E+03 -0.22531641916E+03  0.32591734292E+03  0.00000000000E+00 0.  1.
         -2    1    6    6    0  503  0.80327068445E+02  0.11171248941E+03 -0.15097186929E+03  0.20426606064E+03  0.00000000000E+00 0. -1.
<mgrwt>
<rscale>  0 0.19616260E+04</rscale>
<asrwt>0</asrwt>
<pdfrwt beam="1">  1        2 0.29029071E+00 0.19616260E+04</pdfrwt>
<pdfrwt beam="2">  1       -1 0.78435483E-01 0.19616260E+04</pdfrwt>
<totfact> 0.13330303E+01</totfact>
</mgrwt>
</event>
<event>
12    7  0.1544987E-007  0.2382800E+04  0.7818608E-02  0.8445971E-01
         -1   -1    0    0    0  501 -0.00000000000E+00  0.00000000000E+00  0.92839701396E+03  0.92839701396E+03  0.00000000000E+00 0.  1.
          2   -1    0    0  501    0  0.00000000000E+00 -0.00000000000E+00 -0.15289082739E+04  0.15289082739E+04  0.00000000000E+00 0. -1.
         24    2    1    2    0    0 -0.28546182678E+03  0.16201045644E+03  0.72174742222E+03  0.79691575710E+03  0.80122031242E+02 0.  0.
        254    2    1    2    0    0  0.28546182678E+03 -0.16201045644E+03 -0.13222586822E+04  0.16603895308E+04  0.94909932505E+03 0.  0.
         23    2    4    4    0    0 -0.14021878132E+02  0.26393782641E+03 -0.52603211530E+02  0.28510062171E+03  0.93034818008E+02 0.  0.
         23    2    4    4    0    0  0.29948370491E+03 -0.42594828285E+03 -0.12696554706E+04  0.13752889091E+04  0.90951306309E+02 0.  0.
          2    1    3    3  502    0 -0.15674920067E+03  0.84425998374E+02  0.48338825401E+03  0.51513324997E+03  0.00000000000E+00 0. -1.
         -1    1    3    3    0  502 -0.12871262611E+03  0.77584458069E+02  0.23835916820E+03  0.28178250712E+03  0.00000000000E+00 0.  1.
         13    1    5    5    0    0  0.47324603193E+01  0.26092697727E+03 -0.46012215101E+02  0.26499510860E+03  0.00000000000E+00 0. -1.
        -13    1    5    5    0    0 -0.18754338451E+02  0.30108491393E+01 -0.65909964289E+01  0.20105513105E+02  0.00000000000E+00 0.  1.
          3    1    6    6  503    0  0.25596033617E+03 -0.40554259870E+03 -0.11283825501E+04  0.12260618551E+04  0.00000000000E+00 0. -1.
         -3    1    6    6    0  503  0.43523368740E+02 -0.20405684146E+02 -0.14127292054E+03  0.14922705401E+03  0.00000000000E+00 0.  1.
<mgrwt>
<rscale>  0 0.23827999E+04</rscale>
<asrwt>0</asrwt>
<pdfrwt beam="1">  1        2 0.23521666E+00 0.23827999E+04</pdfrwt>
<pdfrwt beam="2">  1       -1 0.14283031E+00 0.23827999E+04</pdfrwt>
<totfact> 0.49867641E+00</totfact>
</mgrwt>
</event>
<event>
12    7  0.1544987E-007  0.1528481E+04  0.7818608E-02  0.8865731E-01
         -1   -1    0    0    0  501 -0.00000000000E+00  0.00000000000E+00  0.26338237022E+03  0.26338237022E+03  0.00000000000E+00 0.  1.
          2   -1    0    0  501    0  0.00000000000E+00 -0.00000000000E+00 -0.22175495987E+04  0.22175495987E+04  0.00000000000E+00 0. -1.
         24    2    1    2    0    0 -0.40789324809E+03  0.97326297518E+02 -0.10667776557E+04  0.11489834229E+04  0.79366424878E+02 0.  0.
        254    2    1    2    0    0  0.40789324809E+03 -0.97326297518E+02 -0.88738957277E+03  0.13319485460E+04  0.90043176604E+03 0.  0.
         23    2    4    4    0    0 -0.50017289468E+02  0.28079587016E+03 -0.58977614660E+03  0.66151988687E+03  0.91785661586E+02 0.  0.
         23    2    4    4    0    0  0.45791053755E+03 -0.37812216768E+03 -0.29761342617E+03  0.67042865913E+03  0.90787672368E+02 0.  0.
          4    1    3    3  502    0 -0.39308144154E+03  0.10704303052E+03 -0.99772949139E+03  0.10776991083E+04  0.00000000000E+00 0. -1.
         -3    1    3    3    0  502 -0.14811806548E+02 -0.97167330033E+01 -0.69048164273E+02  0.71284314564E+02  0.00000000000E+00 0.  1.
         13    1    5    5    0    0 -0.12540838605E+02 -0.33132157373E+01 -0.28789374352E+02  0.31576543621E+02  0.00000000000E+00 0.  1.
        -13    1    5    5    0    0 -0.37476450863E+02  0.28410908590E+03 -0.56098677225E+03  0.62994334325E+03  0.00000000000E+00 0. -1.
          2    1    6    6  503    0  0.17153040230E+03 -0.10206480634E+03 -0.66471797737E+02  0.21037681312E+03  0.00000000000E+00 0.  1.
         -2    1    6    6    0  503  0.28638013525E+03 -0.27605736135E+03 -0.23114162843E+03  0.46005184601E+03  0.00000000000E+00 0. -1.
<mgrwt>
<rscale>  0 0.15284809E+04</rscale>
<asrwt>0</asrwt>
<pdfrwt beam="1">  1        2 0.34116147E+00 0.15284809E+04</pdfrwt>
<pdfrwt beam="2">  1       -1 0.40520365E-01 0.15284809E+04</pdfrwt>
<totfact> 0.33003477E+01</totfact>
</mgrwt>
</event>
<event>
12    7  0.1544987E-007  0.1418003E+04  0.7818608E-02  0.8940889E-01
          2   -1    0    0  501    0  0.00000000000E+00  0.00000000000E+00  0.17321874200E+04  0.17321874200E+04  0.00000000000E+00 0. -1.
         -1   -1    0    0    0  501 -0.00000000000E+00 -0.00000000000E+00 -0.29020148194E+03  0.29020148194E+03  0.00000000000E+00 0.  1.
         24    2    1    2    0    0 -0.10381224311E+03  0.32466223025E+03  0.74460237664E+03  0.82239762539E+03  0.75647930440E+02 0.  0.
        254    2    1    2    0    0  0.10381224311E+03 -0.32466223025E+03  0.69738356138E+03  0.11999912765E+04  0.91512441038E+03 0.  0.
         23    2    4    4    0    0  0.24754297959E+03 -0.52070485812E+02  0.81332570274E+03  0.85668015062E+03  0.91724148896E+02 0.  0.
         23    2    4    4    0    0 -0.14373073648E+03 -0.27259174443E+03 -0.11594214136E+03  0.34331112590E+03  0.97237674165E+02 0.  0.
          2    1    3    3  502    0 -0.92898531515E+02  0.31306645186E+03  0.73372093721E+03  0.80311092268E+03  0.00000000000E+00 0. -1.
         -1    1    3    3    0  502 -0.10913711596E+02  0.11595778387E+02  0.10881439437E+02  0.19286702710E+02  0.00000000000E+00 0.  1.
         13    1    5    5    0    0  0.11810573706E+03  0.11404794276E+02  0.27757948619E+03  0.30187647410E+03  0.00000000000E+00 0.  1.
        -13    1    5    5    0    0  0.12943724253E+03 -0.63475280089E+02  0.53574621655E+03  0.55480367653E+03  0.00000000000E+00 0. -1.
          3    1    6    6  503    0 -0.62361682696E+02 -0.10155585136E+03 -0.95670029674E+02  0.15282449081E+03  0.00000000000E+00 0. -1.
         -3    1    6    6    0  503 -0.81369053782E+02 -0.17103589307E+03 -0.20272111690E+02  0.19048663508E+03  0.00000000000E+00 0.  1.
<mgrwt>
<rscale>  0 0.14180033E+04</rscale>
<asrwt>0</asrwt>
<pdfrwt beam="1">  1        2 0.26649037E+00 0.14180033E+04</pdfrwt>
<pdfrwt beam="2">  1       -1 0.44646383E-01 0.14180033E+04</pdfrwt>
<totfact> 0.51795480E+01</totfact>
</mgrwt>
</event>
<event>
12    7  0.1544987E-007  0.2029224E+04  0.7818608E-02  0.8593078E-01
         -1   -1    0    0    0  501 -0.00000000000E+00  0.00000000000E+00  0.16222987219E+04  0.16222987219E+04  0.00000000000E+00 0.  1.
          2   -1    0    0  501    0  0.00000000000E+00 -0.00000000000E+00 -0.63455493413E+03  0.63455493413E+03  0.00000000000E+00 0. -1.
         24    2    1    2    0    0  0.22051776607E+03 -0.64697063675E+03 -0.78707784943E+02  0.69250700852E+03  0.78561768536E+02 0.  0.
        254    2    1    2    0    0 -0.22051776607E+03  0.64697063675E+03  0.10664515728E+04  0.15643466475E+04  0.91796644094E+03 0.  0.
         23    2    4    4    0    0  0.16508404574E+03 -0.15128602580E+03  0.14091037083E+03  0.27947706295E+03  0.90063823745E+02 0.  0.
         23    2    4    4    0    0 -0.38560181182E+03  0.79825666255E+03  0.92554120193E+03  0.12848695846E+04  0.91437827886E+02 0.  0.
          2    1    3    3  502    0  0.19813315703E+03 -0.61923883097E+03 -0.61901667039E+02  0.65310435160E+03  0.00000000000E+00 0. -1.
         -1    1    3    3    0  502  0.22384609041E+02 -0.27731805778E+02 -0.16806117904E+02  0.39402656923E+02  0.00000000000E+00 0.  1.
         13    1    5    5    0    0  0.11727858270E+03 -0.14847354580E+03  0.89789207890E+02  0.20942961017E+03  0.00000000000E+00 0.  1.
        -13    1    5    5    0    0  0.47805463047E+02 -0.28124799987E+01  0.51121162944E+02  0.70047452785E+02  0.00000000000E+00 0. -1.
          3    1    6    6  503    0 -0.41487867806E+02  0.13018522162E+03  0.18330806111E+03  0.22862913281E+03  0.00000000000E+00 0. -1.
         -3    1    6    6    0  503 -0.34411394401E+03  0.66807144093E+03  0.74223314081E+03  0.10562404518E+04  0.00000000000E+00 0.  1.
<mgrwt>
<rscale>  0 0.20292241E+04</rscale>
<asrwt>0</asrwt>
<pdfrwt beam="1">  1        2 0.97623837E-01 0.20292241E+04</pdfrwt>
<pdfrwt beam="2">  1       -1 0.24958442E+00 0.20292241E+04</pdfrwt>
<totfact> 0.34388041E+00</totfact>
</mgrwt>
</event>
<event>
12    7  0.1544987E-007  0.2502279E+04  0.7818608E-02  0.8402174E-01
         -3   -1    0    0    0  501 -0.00000000000E+00  0.00000000000E+00  0.11713812752E+04  0.11713812752E+04  0.00000000000E+00 0.  1.
          2   -1    0    0  501    0  0.00000000000E+00 -0.00000000000E+00 -0.13363281338E+04  0.13363281338E+04  0.00000000000E+00 0. -1.
         24    2    1    2    0    0 -0.46495743824E+03 -0.94116014785E+03 -0.31628406096E+03  0.10991658900E+04  0.78499702682E+02 0.  0.
        254    2    1    2    0    0  0.46495743824E+03  0.94116014785E+03  0.15133720239E+03  0.14085435190E+04  0.92688945021E+03 0.  0.
         23    2    4    4    0    0 -0.75268207691E+02  0.19847903765E+03  0.39187925693E+03  0.45481990029E+03  0.90733445948E+02 0.  0.
         23    2    4    4    0    0  0.54022564593E+03  0.74268111021E+03 -0.24054205454E+03  0.95372361875E+03  0.91155257533E+02 0.  0.
          2    1    3    3  502    0 -0.87327092107E+02 -0.24083986562E+03 -0.58226665397E+02  0.26271697024E+03  0.00000000000E+00 0. -1.
         -1    1    3    3    0  502 -0.37763034613E+03 -0.70032028223E+03 -0.25805739557E+03  0.83644891980E+03  0.00000000000E+00 0.  1.
         13    1    5    5    0    0 -0.64464496922E+02  0.88299266637E+02  0.26361052164E+03  0.28538209294E+03  0.00000000000E+00 0.  1.
        -13    1    5    5    0    0 -0.10803710769E+02  0.11017977101E+03  0.12826873529E+03  0.16943780735E+03  0.00000000000E+00 0. -1.
          4    1    6    6  503    0  0.15614574038E+03  0.26903647254E+03 -0.11129560366E+03  0.33037679578E+03  0.00000000000E+00 0. -1.
         -4    1    6    6    0  503  0.38407990556E+03  0.47364463766E+03 -0.12924645088E+03  0.62334682297E+03  0.00000000000E+00 0.  1.
<mgrwt>
<rscale>  0 0.25022788E+04</rscale>
<asrwt>0</asrwt>
<pdfrwt beam="1">  1        2 0.20558894E+00 0.25022788E+04</pdfrwt>
<pdfrwt beam="2">  1       -3 0.18021251E+00 0.25022788E+04</pdfrwt>
<totfact> 0.17474549E+00</totfact>
</mgrwt>
</event>
<event>
12    7  0.1544987E-007  0.2050170E+04  0.7818608E-02  0.8583517E-01
         -3   -1    0    0    0  501 -0.00000000000E+00  0.00000000000E+00  0.99560820519E+03  0.99560820519E+03  0.00000000000E+00 0.  1.
          2   -1    0    0  501    0  0.00000000000E+00 -0.00000000000E+00 -0.10554342498E+04  0.10554342498E+04  0.00000000000E+00 0. -1.
         24    2    1    2    0    0  0.34365794774E+03 -0.55341557041E+03 -0.52161577727E+03  0.84034773357E+03  0.98649458189E+02 0.  0.
        254    2    1    2    0    0 -0.34365794774E+03  0.55341557041E+03  0.46178973268E+03  0.12106947214E+04  0.91003427001E+03 0.  0.
         23    2    4    4    0    0  0.14128279296E+03  0.60837006256E+01 -0.17030418936E+03  0.24061340507E+03  0.94305115380E+02 0.  0.
         23    2    4    4    0    0 -0.48494074070E+03  0.54733186978E+03  0.63209392204E+03  0.97008131632E+03  0.82312431140E+02 0.  0.
          4    1    3    3  502    0  0.34012264199E+03 -0.50454316634E+03 -0.49618615388E+03  0.78514197289E+03  0.00000000000E+00 0. -1.
         -3    1    3    3    0  502  0.35353057475E+01 -0.48872404065E+02 -0.25429623396E+02  0.55205760677E+02  0.00000000000E+00 0.  1.
         13    1    5    5    0    0  0.14885181338E+03  0.91546492067E+01 -0.17597597940E+03  0.23066906007E+03  0.00000000000E+00 0. -1.
        -13    1    5    5    0    0 -0.75690204128E+01 -0.30709485812E+01  0.56717900444E+01  0.99443450013E+01  0.00000000000E+00 0.  1.
          3    1    6    6  503    0 -0.40068537696E+03  0.41514481912E+03  0.46556747573E+03  0.74138186289E+03  0.00000000000E+00 0. -1.
         -3    1    6    6    0  503 -0.84255363741E+02  0.13218705066E+03  0.16652644631E+03  0.22869945344E+03  0.00000000000E+00 0.  1.
<mgrwt>
<rscale>  0 0.20501697E+04</rscale>
<asrwt>0</asrwt>
<pdfrwt beam="1">  1        2 0.16237450E+00 0.20501697E+04</pdfrwt>
<pdfrwt beam="2">  1       -3 0.15317049E+00 0.20501697E+04</pdfrwt>
<totfact> 0.41458510E+00</totfact>
</mgrwt>
</event>
<event>
12    7  0.1544987E-007  0.1267551E+04  0.7818608E-02  0.9055701E-01
         -1   -1    0    0    0  501 -0.00000000000E+00  0.00000000000E+00  0.26476486458E+03  0.26476486458E+03  0.00000000000E+00 0.  1.
          2   -1    0    0  501    0  0.00000000000E+00 -0.00000000000E+00 -0.15170877543E+04  0.15170877543E+04  0.00000000000E+00 0. -1.
         24    2    1    2    0    0 -0.20357831290E+03 -0.63830997820E+02 -0.62858672303E+01  0.22821634596E+03  0.80775384065E+02 0.  0.
        254    2    1    2    0    0  0.20357831290E+03  0.63830997820E+02 -0.12460370225E+04  0.15536362729E+04  0.90313835116E+03 0.  0.
         23    2    4    4    0    0 -0.56219113116E+02 -0.13117868274E+03 -0.12021750027E+04  0.12140194215E+04  0.90829417297E+02 0.  0.
         23    2    4    4    0    0  0.25979742602E+03  0.19500968056E+03 -0.43862019768E+02  0.33961685145E+03  0.88838341555E+02 0.  0.
          2    1    3    3  502    0 -0.41568565936E+02 -0.10218602128E+02 -0.34841928381E+02  0.55193527490E+02  0.00000000000E+00 0. -1.
         -1    1    3    3    0  502 -0.16200974697E+03 -0.53612395692E+02  0.28556061151E+02  0.17302281847E+03  0.00000000000E+00 0.  1.
         13    1    5    5    0    0 -0.21127653954E+02 -0.12941631633E+03 -0.10285350269E+04  0.10368602906E+04  0.00000000000E+00 0. -1.
        -13    1    5    5    0    0 -0.35091459161E+02 -0.17623664166E+01 -0.17363997585E+03  0.17715913088E+03  0.00000000000E+00 0.  1.
          4    1    6    6  503    0  0.20849956125E+03  0.19322797906E+03 -0.47279663816E+02  0.28817440126E+03  0.00000000000E+00 0. -1.
         -4    1    6    6    0  503  0.51297864775E+02  0.17817015041E+01  0.34176440479E+01  0.51442450190E+02  0.00000000000E+00 0.  1.
<mgrwt>
<rscale>  0 0.12675512E+04</rscale>
<asrwt>0</asrwt>
<pdfrwt beam="1">  1        2 0.23339812E+00 0.12675512E+04</pdfrwt>
<pdfrwt beam="2">  1       -1 0.40733055E-01 0.12675512E+04</pdfrwt>
<totfact> 0.81835433E+01</totfact>
</mgrwt>
</event>
<event>
12    7  0.1812154E-007  0.1643459E+04  0.7818608E-02  0.8794285E-01
         -1   -1    0    0    0  501 -0.00000000000E+00  0.00000000000E+00  0.37497931483E+03  0.37497931483E+03  0.00000000000E+00 0.  1.
          2   -1    0    0  501    0  0.00000000000E+00 -0.00000000000E+00 -0.18007387386E+04  0.18007387386E+04  0.00000000000E+00 0. -1.
         24    2    1    2    0    0  0.25142627130E+03 -0.38163182490E+03 -0.37072508646E+02  0.46580112560E+03  0.82087136844E+02 0.  0.
        254    2    1    2    0    0 -0.25142627130E+03  0.38163182490E+03 -0.13886869151E+04  0.17099169278E+04  0.88685203510E+03 0.  0.
         23    2    4    4    0    0 -0.10900126626E+03  0.33253289654E+02  0.96206862392E+02  0.17520189469E+03  0.91939579149E+02 0.  0.
         23    2    4    4    0    0 -0.14242500504E+03  0.34837853525E+03 -0.14848937775E+04  0.15347150331E+04  0.93745488105E+02 0.  0.
          2    1    3    3  502    0 -0.64039936206E+01 -0.10223695121E+02 -0.27375423092E+01  0.12370497731E+02  0.00000000000E+00 0. -1.
         -1    1    3    3    0  502  0.25783026492E+03 -0.37140812978E+03 -0.34334966337E+02  0.45343062787E+03  0.00000000000E+00 0.  1.
         13    1    5    5    0    0 -0.95037987072E+02  0.28373131689E+02  0.11462543953E+03  0.15157917065E+03  0.00000000000E+00 0. -1.
        -13    1    5    5    0    0 -0.13963279187E+02  0.48801579652E+01 -0.18418577136E+02  0.23622724041E+02  0.00000000000E+00 0.  1.
          3    1    6    6  503    0 -0.84269373506E+02  0.29374606066E+03 -0.12423528934E+04  0.12793860978E+04  0.00000000000E+00 0. -1.
         -3    1    6    6    0  503 -0.58155631538E+02  0.54632474588E+02 -0.24254088411E+03  0.25532893534E+03  0.00000000000E+00 0.  1.
<mgrwt>
<rscale>  0 0.16434595E+04</rscale>
<asrwt>0</asrwt>
<pdfrwt beam="1">  1        2 0.27703673E+00 0.16434595E+04</pdfrwt>
<pdfrwt beam="2">  1       -1 0.57689124E-01 0.16434595E+04</pdfrwt>
<totfact> 0.28564183E+01</totfact>
</mgrwt>
</event>
<event>
12    7  0.1544987E-007  0.1464427E+04  0.7818608E-02  0.8908459E-01
          2   -1    0    0  501    0  0.00000000000E+00  0.00000000000E+00  0.10727403764E+04  0.10727403764E+04  0.00000000000E+00 0. -1.
         -1   -1    0    0    0  501 -0.00000000000E+00 -0.00000000000E+00 -0.49978252497E+03  0.49978252497E+03  0.00000000000E+00 0.  1.
         24    2    1    2    0    0 -0.38955026966E+03  0.94213567649E+02  0.41230614695E+03  0.58033790709E+03  0.78550102902E+02 0.  0.
        254    2    1    2    0    0  0.38955026966E+03 -0.94213567649E+02  0.16065170449E+03  0.99218499429E+03  0.89330648929E+03 0.  0.
         23    2    4    4    0    0 -0.19957060977E+03 -0.27587533755E+03  0.31238384940E+02  0.35417539978E+03  0.92351215258E+02 0.  0.
         23    2    4    4    0    0  0.58912087943E+03  0.18166176990E+03  0.12941331955E+03  0.63800959451E+03  0.10121277675E+03 0.  0.
          2    1    3    3  502    0 -0.36674104977E+03  0.74187111604E+02  0.35650606642E+03  0.51681650565E+03  0.00000000000E+00 0. -1.
         -1    1    3    3    0  502 -0.22809219892E+02  0.20026456045E+02  0.55800080528E+02  0.63521401439E+02  0.00000000000E+00 0.  1.
         13    1    5    5    0    0 -0.20678787607E+03 -0.25974073207E+03  0.18748682354E+02  0.33253268512E+03  0.00000000000E+00 0. -1.
        -13    1    5    5    0    0  0.72172662986E+01 -0.16134605485E+02  0.12489702585E+02  0.21642714655E+02  0.00000000000E+00 0.  1.
          4    1    6    6  503    0  0.36422413450E+03  0.16229707516E+03  0.91634863906E+02  0.40914118473E+03  0.00000000000E+00 0.  1.
         -4    1    6    6    0  503  0.22489674494E+03  0.19364694745E+02  0.37778455644E+02  0.22886840978E+03  0.00000000000E+00 0. -1.
<mgrwt>
<rscale>  0 0.14644274E+04</rscale>
<asrwt>0</asrwt>
<pdfrwt beam="1">  1        2 0.16503698E+00 0.14644274E+04</pdfrwt>
<pdfrwt beam="2">  1       -1 0.76889619E-01 0.14644274E+04</pdfrwt>
<totfact> 0.42479559E+01</totfact>
</mgrwt>
</event>
<event>
12    7  0.1544987E-007  0.1824223E+04  0.7818608E-02  0.8693523E-01
          2   -1    0    0  501    0  0.00000000000E+00  0.00000000000E+00  0.11668102614E+04  0.11668102614E+04  0.00000000000E+00 0. -1.
         -1   -1    0    0    0  501 -0.00000000000E+00 -0.00000000000E+00 -0.71300994447E+03  0.71300994447E+03  0.00000000000E+00 0.  1.
         24    2    1    2    0    0 -0.26999017787E+03 -0.22696945415E+03 -0.43371395531E+03  0.56499427282E+03  0.81859049758E+02 0.  0.
        254    2    1    2    0    0  0.26999017787E+03  0.22696945415E+03  0.88751427226E+03  0.13148259331E+04  0.90370117934E+03 0.  0.
         23    2    4    4    0    0  0.44788311747E+03  0.28653909258E+02  0.92285779517E+03  0.10303440449E+04  0.92314718391E+02 0.  0.
         23    2    4    4    0    0 -0.17789293959E+03  0.19831554489E+03 -0.35343522910E+02  0.28448188822E+03  0.93305020274E+02 0.  0.
          4    1    3    3  502    0 -0.56305242836E+02 -0.55018254113E+02 -0.49737143976E+02  0.93118591846E+02  0.00000000000E+00 0. -1.
         -3    1    3    3    0  502 -0.21368493504E+03 -0.17195120004E+03 -0.38397681133E+03  0.47187568097E+03  0.00000000000E+00 0.  1.
         13    1    5    5    0    0  0.16454556834E+03  0.53876756963E+02  0.37493659894E+03  0.41298353747E+03  0.00000000000E+00 0.  1.
        -13    1    5    5    0    0  0.28333754913E+03 -0.25222847706E+02  0.54792119624E+03  0.61736050739E+03  0.00000000000E+00 0. -1.
          2    1    6    6  503    0 -0.17102265292E+03  0.20328585721E+03 -0.19327524736E+02  0.26635960798E+03  0.00000000000E+00 0. -1.
         -2    1    6    6    0  503 -0.68702866782E+01 -0.49703123122E+01 -0.16015998175E+02  0.18122280239E+02  0.00000000000E+00 0.  1.
<mgrwt>
<rscale>  0 0.18242229E+04</rscale>
<asrwt>0</asrwt>
<pdfrwt beam="1">  1        2 0.17950927E+00 0.18242229E+04</pdfrwt>
<pdfrwt beam="2">  1       -1 0.10969384E+00 0.18242229E+04</pdfrwt>
<totfact> 0.16372007E+01</totfact>
</mgrwt>
</event>
<event>
12    7  0.1544987E-007  0.1840650E+04  0.7818608E-02  0.8684976E-01
         -1   -1    0    0    0  501 -0.00000000000E+00  0.00000000000E+00  0.74702185483E+03  0.74702185483E+03  0.00000000000E+00 0.  1.
          2   -1    0    0  501    0  0.00000000000E+00 -0.00000000000E+00 -0.11338332518E+04  0.11338332518E+04  0.00000000000E+00 0. -1.
         24    2    1    2    0    0  0.29043273015E+03  0.62499008974E+03 -0.42275211248E+02  0.69498088386E+03  0.79040827639E+02 0.  0.
        254    2    1    2    0    0 -0.29043273015E+03 -0.62499008974E+03 -0.34453618575E+03  0.11858742228E+04  0.90145920929E+03 0.  0.
         23    2    4    4    0    0  0.19019735764E+03  0.63501254974E+02  0.88760358263E+02  0.23552848308E+03  0.85952433978E+02 0.  0.
         23    2    4    4    0    0 -0.48063008779E+03 -0.68849134471E+03 -0.43329654402E+03  0.95034573973E+03  0.10190935647E+03 0.  0.
          4    1    3    3  502    0  0.10855715138E+03  0.31030935602E+03 -0.42775640794E+02  0.33152120143E+03  0.00000000000E+00 0. -1.
         -3    1    3    3    0  502  0.18187557877E+03  0.31468073372E+03  0.50042954638E+00  0.36345968243E+03  0.00000000000E+00 0.  1.
         13    1    5    5    0    0  0.98911287426E+02 -0.12048684677E+02  0.42373897418E+02  0.10827816384E+03  0.00000000000E+00 0.  1.
        -13    1    5    5    0    0  0.91286070210E+02  0.75549939651E+02  0.46386460845E+02  0.12725031923E+03  0.00000000000E+00 0. -1.
          4    1    6    6  503    0 -0.46250447363E+03 -0.61203164568E+03 -0.39740135920E+03  0.86395657514E+03  0.00000000000E+00 0. -1.
         -4    1    6    6    0  503 -0.18125614156E+02 -0.76459699031E+02 -0.35895184822E+02  0.86389164586E+02  0.00000000000E+00 0.  1.
<mgrwt>
<rscale>  0 0.18406501E+04</rscale>
<asrwt>0</asrwt>
<pdfrwt beam="1">  1        2 0.17443588E+00 0.18406501E+04</pdfrwt>
<pdfrwt beam="2">  1       -1 0.11492644E+00 0.18406501E+04</pdfrwt>
<totfact> 0.15323412E+01</totfact>
</mgrwt>
</event>
<event>
12    7  0.1544987E-007  0.1811571E+04  0.7818608E-02  0.8700170E-01
         -1   -1    0    0    0  501 -0.00000000000E+00  0.00000000000E+00  0.28098754299E+03  0.28098754299E+03  0.00000000000E+00 0.  1.
          2   -1    0    0  501    0  0.00000000000E+00 -0.00000000000E+00 -0.29198703694E+04  0.29198703694E+04  0.00000000000E+00 0. -1.
         24    2    1    2    0    0 -0.50568003271E+03 -0.18902835981E+03 -0.27331591487E+03  0.61031814295E+03  0.79640630260E+02 0.  0.
        254    2    1    2    0    0  0.50568003271E+03  0.18902835981E+03 -0.23655669116E+04  0.25905397695E+04  0.90749405940E+03 0.  0.
         23    2    4    4    0    0  0.43975875004E+03 -0.60139898668E+02 -0.39447268305E+03  0.60063530728E+03  0.90274631176E+02 0.  0.
         23    2    4    4    0    0  0.65921282678E+02  0.24916825848E+03 -0.19710942285E+04  0.19899044622E+04  0.89871432806E+02 0.  0.
          2    1    3    3  502    0 -0.87892068611E+02 -0.13109373953E+02 -0.71730976328E+02  0.11420247097E+03  0.00000000000E+00 0. -1.
         -1    1    3    3    0  502 -0.41778796410E+03 -0.17591898586E+03 -0.20158493854E+03  0.49611567198E+03  0.00000000000E+00 0.  1.
         13    1    5    5    0    0  0.67360233231E+02 -0.29765563950E+02 -0.10369609034E+03  0.12718596216E+03  0.00000000000E+00 0. -1.
        -13    1    5    5    0    0  0.37239851680E+03 -0.30374334718E+02 -0.29077659270E+03  0.47344934512E+03  0.00000000000E+00 0.  1.
          3    1    6    6  503    0  0.83944564156E+01  0.17967724228E+02 -0.45593944742E+02  0.49720356089E+02  0.00000000000E+00 0. -1.
         -3    1    6    6    0  503  0.57526826262E+02  0.23120053425E+03 -0.19255002838E+04  0.19401841061E+04  0.00000000000E+00 0.  1.
<mgrwt>
<rscale>  0 0.18115708E+04</rscale>
<asrwt>0</asrwt>
<pdfrwt beam="1">  1        2 0.44921084E+00 0.18115708E+04</pdfrwt>
<pdfrwt beam="2">  1       -1 0.43228851E-01 0.18115708E+04</pdfrwt>
<totfact> 0.11105433E+01</totfact>
</mgrwt>
</event>
<event>
12    7  0.1544987E-007  0.1560219E+04  0.7818608E-02  0.8845367E-01
         -1   -1    0    0    0  501 -0.00000000000E+00  0.00000000000E+00  0.33350038227E+03  0.33350038227E+03  0.00000000000E+00 0.  1.
          2   -1    0    0  501    0  0.00000000000E+00 -0.00000000000E+00 -0.18247984743E+04  0.18247984743E+04  0.00000000000E+00 0. -1.
         24    2    1    2    0    0 -0.27591789203E+03 -0.14836083960E+03  0.67423810864E+02  0.33025324406E+03  0.79872480057E+02 0.  0.
        254    2    1    2    0    0  0.27591789203E+03  0.14836083960E+03 -0.15587219029E+04  0.18280456125E+04  0.90221680818E+03 0.  0.
         23    2    4    4    0    0 -0.15798479254E+03 -0.27098051785E+03 -0.39020996983E+03  0.50976070445E+03  0.95929763465E+02 0.  0.
         23    2    4    4    0    0  0.43390268458E+03  0.41934135745E+03 -0.11685119331E+04  0.13182849081E+04  0.91303052172E+02 0.  0.
          2    1    3    3  502    0 -0.19471162075E+03 -0.76506303987E+02  0.14798976647E+02  0.20972562913E+03  0.00000000000E+00 0. -1.
         -1    1    3    3    0  502 -0.81206271280E+02 -0.71854535617E+02  0.52624834216E+02  0.12052761493E+03  0.00000000000E+00 0.  1.
         13    1    5    5    0    0 -0.94453988914E+02 -0.17342301914E+03 -0.16957158756E+03  0.26029141918E+03  0.00000000000E+00 0. -1.
        -13    1    5    5    0    0 -0.63530803631E+02 -0.97557498708E+02 -0.22063838227E+03  0.24946928527E+03  0.00000000000E+00 0.  1.
          2    1    6    6  503    0  0.27875797076E+03  0.20657045151E+03 -0.66076053826E+03  0.74631216432E+03  0.00000000000E+00 0.  1.
         -2    1    6    6    0  503  0.15514471381E+03  0.21277090595E+03 -0.50775139483E+03  0.57197274375E+03  0.00000000000E+00 0. -1.
<mgrwt>
<rscale>  0 0.15602192E+04</rscale>
<asrwt>0</asrwt>
<pdfrwt beam="1">  1        2 0.28073822E+00 0.15602192E+04</pdfrwt>
<pdfrwt beam="2">  1       -1 0.51307752E-01 0.15602192E+04</pdfrwt>
<totfact> 0.34994513E+01</totfact>
</mgrwt>
</event>
<event>
12    7  0.1544987E-007  0.1408601E+04  0.7818608E-02  0.8947616E-01
          2   -1    0    0  501    0  0.00000000000E+00  0.00000000000E+00  0.40295201215E+03  0.40295201215E+03  0.00000000000E+00 0. -1.
         -1   -1    0    0    0  501 -0.00000000000E+00 -0.00000000000E+00 -0.12310134751E+04  0.12310134751E+04  0.00000000000E+00 0.  1.
         24    2    1    2    0    0  0.17726890532E+03  0.12279357761E+03 -0.64443441775E+03  0.68432334104E+03  0.80623748466E+02 0.  0.
        254    2    1    2    0    0 -0.17726890532E+03 -0.12279357761E+03 -0.18362704520E+03  0.94964214620E+03  0.90642086617E+03 0.  0.
         23    2    4    4    0    0 -0.36433666998E+03 -0.42280308154E+03 -0.92469929715E+02  0.57338091598E+03  0.93334516995E+02 0.  0.
         23    2    4    4    0    0  0.18706776466E+03  0.30000950393E+03 -0.91157115481E+02  0.37626123022E+03  0.90900179575E+02 0.  0.
          2    1    3    3  502    0  0.12519107665E+03  0.68918135287E+02 -0.30646185209E+03  0.33814402528E+03  0.00000000000E+00 0. -1.
         -1    1    3    3    0  502  0.52077828673E+02  0.53875442324E+02 -0.33797256565E+03  0.34617931576E+03  0.00000000000E+00 0.  1.
         13    1    5    5    0    0 -0.50493714169E+02 -0.10449838906E+03  0.38176069560E+01  0.11612106876E+03  0.00000000000E+00 0. -1.
        -13    1    5    5    0    0 -0.31384295581E+03 -0.31830469247E+03 -0.96287536671E+02  0.45725984722E+03  0.00000000000E+00 0.  1.
          3    1    6    6  503    0  0.12040400057E+02  0.25800287285E+02  0.17341194469E+02  0.33336812733E+02  0.00000000000E+00 0. -1.
         -3    1    6    6    0  503  0.17502736460E+03  0.27420921664E+03 -0.10849830995E+03  0.34292441749E+03  0.00000000000E+00 0.  1.
<mgrwt>
<rscale>  0 0.14086012E+04</rscale>
<asrwt>0</asrwt>
<pdfrwt beam="1">  1        2 0.61992617E-01 0.14086012E+04</pdfrwt>
<pdfrwt beam="2">  1       -1 0.18938669E+00 0.14086012E+04</pdfrwt>
<totfact> 0.15661636E+01</totfact>
</mgrwt>
</event>
<event>
12    7  0.1544987E-007  0.2488558E+04  0.7818608E-02  0.8407073E-01
         -1   -1    0    0    0  501 -0.00000000000E+00  0.00000000000E+00  0.14103729276E+04  0.14103729276E+04  0.00000000000E+00 0.  1.
          2   -1    0    0  501    0  0.00000000000E+00 -0.00000000000E+00 -0.10977449933E+04  0.10977449933E+04  0.00000000000E+00 0. -1.
         24    2    1    2    0    0 -0.29378458838E+03  0.74329879441E+03  0.86616824953E+03  0.11814217296E+04  0.81898623438E+02 0.  0.
        254    2    1    2    0    0  0.29378458838E+03 -0.74329879441E+03 -0.55354031522E+03  0.13266961913E+04  0.90272555147E+03 0.  0.
         23    2    4    4    0    0  0.58355303573E+03 -0.64633554173E+03 -0.47857016797E+03  0.99780858099E+03  0.91152512923E+02 0.  0.
         23    2    4    4    0    0 -0.28976844735E+03 -0.96963252677E+02 -0.74970147250E+02  0.32888761030E+03  0.95806637447E+02 0.  0.
          4    1    3    3  502    0 -0.63969716007E+02  0.14844952484E+03  0.12981984839E+03  0.20732240358E+03  0.00000000000E+00 0. -1.
         -1    1    3    3    0  502 -0.22981487237E+03  0.59484926957E+03  0.73634840115E+03  0.97409932601E+03  0.00000000000E+00 0.  1.
         13    1    5    5    0    0  0.52598619790E+03 -0.53681680021E+03 -0.40215071747E+03  0.85238427773E+03  0.00000000000E+00 0. -1.
        -13    1    5    5    0    0  0.57566837829E+02 -0.10951874152E+03 -0.76419450502E+02  0.14542430326E+03  0.00000000000E+00 0.  1.
          3    1    6    6  503    0 -0.21804107505E+03 -0.94032181450E+02 -0.92761238373E+02  0.25492863492E+03  0.00000000000E+00 0. -1.
         -3    1    6    6    0  503 -0.71727372300E+02 -0.29310712273E+01  0.17791091123E+02  0.73958975378E+02  0.00000000000E+00 0.  1.
<mgrwt>
<rscale>  0 0.24885577E+04</rscale>
<asrwt>0</asrwt>
<pdfrwt beam="1">  1        2 0.16888384E+00 0.24885577E+04</pdfrwt>
<pdfrwt beam="2">  1       -1 0.21698045E+00 0.24885577E+04</pdfrwt>
<totfact> 0.25646644E+00</totfact>
</mgrwt>
</event>
<event>
12    7  0.1544987E-007  0.1086854E+04  0.7818608E-02  0.9218101E-01
         -1   -1    0    0    0  501 -0.00000000000E+00  0.00000000000E+00  0.51355573753E+03  0.51355573753E+03  0.00000000000E+00 0.  1.
          2   -1    0    0  501    0  0.00000000000E+00 -0.00000000000E+00 -0.57503528112E+03  0.57503528112E+03  0.00000000000E+00 0. -1.
         24    2    1    2    0    0 -0.14838901927E+03 -0.22392698214E+02 -0.39194237812E+02  0.17504620182E+03  0.81143394799E+02 0.  0.
        254    2    1    2    0    0  0.14838901927E+03  0.22392698214E+02 -0.22285305774E+02  0.91354481683E+03  0.90085890324E+03 0.  0.
         23    2    4    4    0    0 -0.55516860148E+02 -0.24247577605E+02  0.41012045924E+03  0.42398659875E+03  0.88858190651E+02 0.  0.
         23    2    4    4    0    0  0.20390587942E+03  0.46640275819E+02 -0.43240576502E+03  0.48955821809E+03  0.94549353700E+02 0.  0.
          4    1    3    3  502    0 -0.95409010697E+02  0.22955423480E+01 -0.60313826522E+02  0.11289777016E+03  0.00000000000E+00 0. -1.
         -3    1    3    3    0  502 -0.52980008574E+02 -0.24688240562E+02  0.21119588709E+02  0.62148431660E+02  0.00000000000E+00 0.  1.
         13    1    5    5    0    0 -0.19483763037E+02  0.24377187451E+02  0.50909550782E+02  0.59713035854E+02  0.00000000000E+00 0.  1.
        -13    1    5    5    0    0 -0.36033097110E+02 -0.48624765056E+02  0.35921090846E+03  0.36427356289E+03  0.00000000000E+00 0. -1.
          4    1    6    6  503    0  0.21079020099E+03  0.51957372690E+02 -0.42775573060E+03  0.47969473884E+03  0.00000000000E+00 0. -1.
         -4    1    6    6    0  503 -0.68843215754E+01 -0.53170968710E+01 -0.46500344162E+01  0.98634792422E+01  0.00000000000E+00 0.  1.
<mgrwt>
<rscale>  0 0.10868536E+04</rscale>
<asrwt>0</asrwt>
<pdfrwt beam="1">  1        2 0.88466966E-01 0.10868536E+04</pdfrwt>
<pdfrwt beam="2">  1       -1 0.79008575E-01 0.10868536E+04</pdfrwt>
<totfact> 0.95023348E+01</totfact>
</mgrwt>
</event>
<event>
12    7  0.1544987E-007  0.1858666E+04  0.7818608E-02  0.8675709E-01
          2   -1    0    0  501    0  0.00000000000E+00  0.00000000000E+00  0.12608105035E+04  0.12608105035E+04  0.00000000000E+00 0. -1.
         -1   -1    0    0    0  501 -0.00000000000E+00 -0.00000000000E+00 -0.68500348151E+03  0.68500348151E+03  0.00000000000E+00 0.  1.
         24    2    1    2    0    0  0.58374079786E+03 -0.35246835129E+02  0.66196644782E+03  0.88705857776E+03  0.81717096488E+02 0.  0.
        254    2    1    2    0    0 -0.58374079786E+03  0.35246835129E+02 -0.86159425814E+02  0.10587554073E+04  0.87837572102E+03 0.  0.
         23    2    4    4    0    0 -0.78875115844E+03  0.17739849577E+01 -0.17544349994E+03  0.81320219302E+03  0.91574276364E+02 0.  0.
         23    2    4    4    0    0  0.20501036058E+03  0.33472850171E+02  0.89284074129E+02  0.24555321424E+03  0.95786509950E+02 0.  0.
          2    1    3    3  502    0  0.38257334561E+03 -0.20720216383E+02  0.49001284129E+03  0.62201629944E+03  0.00000000000E+00 0. -1.
         -1    1    3    3    0  502  0.20116745225E+03 -0.14526618746E+02  0.17195360653E+03  0.26504227832E+03  0.00000000000E+00 0.  1.
         13    1    5    5    0    0 -0.53524632815E+03 -0.40911950633E+02 -0.11074171144E+03  0.54811143589E+03  0.00000000000E+00 0.  1.
        -13    1    5    5    0    0 -0.25350483030E+03  0.42685935591E+02 -0.64701788501E+02  0.26509075713E+03  0.00000000000E+00 0. -1.
          3    1    6    6  503    0  0.18342700223E+03  0.28030016596E-01  0.92851701136E+02  0.20558916396E+03  0.00000000000E+00 0. -1.
         -3    1    6    6    0  503  0.21583358351E+02  0.33444820154E+02 -0.35676270068E+01  0.39964050287E+02  0.00000000000E+00 0.  1.
<mgrwt>
<rscale>  0 0.18586657E+04</rscale>
<asrwt>0</asrwt>
<pdfrwt beam="1">  1        2 0.19397085E+00 0.18586657E+04</pdfrwt>
<pdfrwt beam="2">  1       -1 0.10538515E+00 0.18586657E+04</pdfrwt>
<totfact> 0.15762687E+01</totfact>
</mgrwt>
</event>
<event>
12    7  0.1544987E-007  0.2554734E+04  0.7818608E-02  0.8383742E-01
         -1   -1    0    0    0  501 -0.00000000000E+00  0.00000000000E+00  0.54240226483E+03  0.54240226483E+03  0.00000000000E+00 0.  1.
          2   -1    0    0  501    0  0.00000000000E+00 -0.00000000000E+00 -0.30082228923E+04  0.30082228923E+04  0.00000000000E+00 0. -1.
         24    2    1    2    0    0 -0.62547424919E+03 -0.23650333188E+03  0.16311504569E+03  0.69296812567E+03  0.80289742037E+02 0.  0.
        254    2    1    2    0    0  0.62547424919E+03  0.23650333188E+03 -0.26289356731E+04  0.28576570314E+04  0.89874861524E+03 0.  0.
         23    2    4    4    0    0  0.18012705662E+03  0.45165245253E+03 -0.65570168988E+03  0.82144984730E+03  0.91648519471E+02 0.  0.
         23    2    4    4    0    0  0.44534719256E+03 -0.21514912065E+03 -0.19732339833E+04  0.20362071841E+04  0.88679636596E+02 0.  0.
          2    1    3    3  502    0 -0.28481308804E+03 -0.13047685588E+03  0.41413955027E+02  0.31600288086E+03  0.00000000000E+00 0. -1.
         -1    1    3    3    0  502 -0.34066116114E+03 -0.10602647600E+03  0.12170109067E+03  0.37696524481E+03  0.00000000000E+00 0.  1.
         13    1    5    5    0    0  0.78710341465E+01 -0.34683367491E+00 -0.27455014258E+02  0.28563110476E+02  0.00000000000E+00 0.  1.
        -13    1    5    5    0    0  0.17225602248E+03  0.45199928621E+03 -0.62824667562E+03  0.79288673683E+03  0.00000000000E+00 0. -1.
          1    1    6    6  503    0  0.37021825699E+03 -0.20447141697E+03 -0.17518525763E+04  0.18021813359E+04  0.00000000000E+00 0. -1.
         -1    1    6    6    0  503  0.75128935577E+02 -0.10677703679E+02 -0.22138140692E+03  0.23402584825E+03  0.00000000000E+00 0.  1.
<mgrwt>
<rscale>  0 0.25547344E+04</rscale>
<asrwt>0</asrwt>
<pdfrwt beam="1">  1        2 0.46280353E+00 0.25547344E+04</pdfrwt>
<pdfrwt beam="2">  1       -1 0.83446500E-01 0.25547344E+04</pdfrwt>
<totfact> 0.24752599E+00</totfact>
</mgrwt>
</event>
<event>
12    7  0.1544987E-007  0.2763636E+04  0.7818608E-02  0.8314648E-01
          2   -1    0    0  501    0  0.00000000000E+00  0.00000000000E+00  0.70202560652E+03  0.70202560652E+03  0.00000000000E+00 0. -1.
         -1   -1    0    0    0  501 -0.00000000000E+00 -0.00000000000E+00 -0.27198739172E+04  0.27198739172E+04  0.00000000000E+00 0.  1.
         24    2    1    2    0    0  0.14024306040E+03 -0.11785587410E+04 -0.47919797078E+03  0.12824307852E+04  0.79556280468E+02 0.  0.
        254    2    1    2    0    0 -0.14024306040E+03  0.11785587410E+04 -0.15386503399E+04  0.21394687385E+04  0.89510490596E+03 0.  0.
         23    2    4    4    0    0 -0.46095255747E+03  0.33463954182E+03 -0.65571762661E+03  0.87339816223E+03  0.91639842535E+02 0.  0.
         23    2    4    4    0    0  0.32070949708E+03  0.84391919915E+03 -0.88293271328E+03  0.12660705763E+04  0.91161020846E+02 0.  0.
          2    1    3    3  502    0  0.11362543087E+03 -0.10285515154E+04 -0.44416331321E+03  0.11261039060E+04  0.00000000000E+00 0. -1.
         -1    1    3    3    0  502  0.26617629530E+02 -0.15000722558E+03 -0.35034657568E+02  0.15632687919E+03  0.00000000000E+00 0.  1.
         13    1    5    5    0    0 -0.30357086895E+03  0.26795365615E+03 -0.43594294370E+03  0.59497956644E+03  0.00000000000E+00 0. -1.
        -13    1    5    5    0    0 -0.15738168852E+03  0.66685885665E+02 -0.21977468291E+03  0.27841859578E+03  0.00000000000E+00 0.  1.
          3    1    6    6  503    0  0.10928345240E+02  0.23837475694E+02 -0.51822332956E+02  0.58079326530E+02  0.00000000000E+00 0. -1.
         -3    1    6    6    0  503  0.30978115184E+03  0.82008172346E+03 -0.83111038032E+03  0.12079912497E+04  0.00000000000E+00 0.  1.
<mgrwt>
<rscale>  0 0.27636361E+04</rscale>
<asrwt>0</asrwt>
<pdfrwt beam="1">  1        2 0.10800394E+00 0.27636361E+04</pdfrwt>
<pdfrwt beam="2">  1       -1 0.41844215E+00 0.27636361E+04</pdfrwt>
<totfact> 0.21700615E-01</totfact>
</mgrwt>
</event>
<event>
12    7  0.1544987E-007  0.1183579E+04  0.7818608E-02  0.9127353E-01
         -1   -1    0    0    0  501 -0.00000000000E+00  0.00000000000E+00  0.19157077317E+03  0.19157077317E+03  0.00000000000E+00 0.  1.
          2   -1    0    0  501    0  0.00000000000E+00 -0.00000000000E+00 -0.18281214956E+04  0.18281214956E+04  0.00000000000E+00 0. -1.
         24    2    1    2    0    0  0.12592415515E+03 -0.10783331351E+03 -0.67603510114E+03  0.70067849986E+03  0.80261982517E+02 0.  0.
        254    2    1    2    0    0 -0.12592415515E+03  0.10783331351E+03 -0.96051562130E+03  0.13190137689E+04  0.88866312373E+03 0.  0.
         23    2    4    4    0    0 -0.31652474848E+03  0.23693236219E+03 -0.98929570806E+03  0.10693387166E+04  0.91947986137E+02 0.  0.
         23    2    4    4    0    0  0.19060059333E+03 -0.12909904868E+03  0.28780086758E+02  0.24967505233E+03  0.92272356718E+02 0.  0.
          4    1    3    3  502    0  0.10656930200E+03 -0.70912338782E+02 -0.60431539615E+03  0.61772378450E+03  0.00000000000E+00 0. -1.
         -3    1    3    3    0  502  0.19354853146E+02 -0.36920974731E+02 -0.71719704995E+02  0.82954715358E+02  0.00000000000E+00 0.  1.
         13    1    5    5    0    0 -0.16379837407E+03  0.17419477252E+03 -0.63264108399E+03  0.67631979660E+03  0.00000000000E+00 0.  1.
        -13    1    5    5    0    0 -0.15272637441E+03  0.62737589669E+02 -0.35665462407E+03  0.39301891999E+03  0.00000000000E+00 0. -1.
          1    1    6    6  503    0  0.90498202809E+02 -0.36461592196E+02 -0.28650686665E+02  0.10168694244E+03  0.00000000000E+00 0. -1.
         -1    1    6    6    0  503  0.10010239052E+03 -0.92637456484E+02  0.57430773423E+02  0.14798810989E+03  0.00000000000E+00 0.  1.
<mgrwt>
<rscale>  0 0.11835787E+04</rscale>
<asrwt>0</asrwt>
<pdfrwt beam="1">  1        2 0.28124947E+00 0.11835787E+04</pdfrwt>
<pdfrwt beam="2">  1       -1 0.29472426E-01 0.11835787E+04</pdfrwt>
<totfact> 0.98646983E+01</totfact>
</mgrwt>
</event>
<event>
12    7  0.1544987E-007  0.1002654E+04  0.7818608E-02  0.9305639E-01
          2   -1    0    0  501    0  0.00000000000E+00  0.00000000000E+00  0.58384294133E+03  0.58384294133E+03  0.00000000000E+00 0. -1.
         -1   -1    0    0    0  501 -0.00000000000E+00 -0.00000000000E+00 -0.43047291518E+03  0.43047291518E+03  0.00000000000E+00 0.  1.
         24    2    1    2    0    0 -0.50393832597E+02 -0.61661711719E+01 -0.19300414121E+02  0.94750628845E+02  0.77637720540E+02 0.  0.
        254    2    1    2    0    0  0.50393832597E+02  0.61661711719E+01  0.17267044027E+03  0.91956522767E+03  0.90178022098E+03 0.  0.
         23    2    4    4    0    0  0.15052502034E+03  0.41401560879E+03  0.19312385053E+03  0.48933681872E+03  0.89927717882E+02 0.  0.
         23    2    4    4    0    0 -0.10013118775E+03 -0.40784943762E+03 -0.20453410260E+02  0.43022840894E+03  0.91163168798E+02 0.  0.
          4    1    3    3  502    0 -0.22985970690E+02 -0.14793969250E+02  0.28175515763E+02  0.39256541662E+02  0.00000000000E+00 0. -1.
         -3    1    3    3    0  502 -0.27407861907E+02  0.86277980779E+01 -0.47475929884E+02  0.55494087183E+02  0.00000000000E+00 0.  1.
         13    1    5    5    0    0  0.63043128773E+02  0.77189964366E+02  0.24478133810E+02  0.10262507354E+03  0.00000000000E+00 0.  1.
        -13    1    5    5    0    0  0.87481891571E+02  0.33682564442E+03  0.16864571672E+03  0.38671174518E+03  0.00000000000E+00 0. -1.
          3    1    6    6  503    0 -0.10575997352E+03 -0.35647656529E+03 -0.42075516846E+02  0.37420724567E+03  0.00000000000E+00 0. -1.
         -3    1    6    6    0  503  0.56287857689E+01 -0.51372872331E+02  0.21622106587E+02  0.56021163269E+02  0.00000000000E+00 0.  1.
<mgrwt>
<rscale>  0 0.10026536E+04</rscale>
<asrwt>0</asrwt>
<pdfrwt beam="1">  1        2 0.89821991E-01 0.10026536E+04</pdfrwt>
<pdfrwt beam="2">  1       -1 0.66226602E-01 0.10026536E+04</pdfrwt>
<totfact> 0.13515858E+02</totfact>
</mgrwt>
</event>
<event>
12    7  0.1544987E-007  0.1567327E+04  0.7818608E-02  0.8840876E-01
          2   -1    0    0  501    0  0.00000000000E+00  0.00000000000E+00  0.29817011234E+04  0.29817011234E+04  0.00000000000E+00 0. -1.
         -1   -1    0    0    0  501 -0.00000000000E+00 -0.00000000000E+00 -0.20596568700E+03  0.20596568700E+03  0.00000000000E+00 0.  1.
         24    2    1    2    0    0 -0.17662927088E+03  0.15532014221E+03 -0.36929498051E+02  0.25035190602E+03  0.77395368831E+02 0.  0.
        254    2    1    2    0    0  0.17662927088E+03 -0.15532014221E+03  0.28126649344E+04  0.29373149044E+04  0.81327275138E+03 0.  0.
         23    2    4    4    0    0 -0.10615871993E+03 -0.36883869967E+03  0.80518298853E+03  0.89673202429E+03  0.92179271913E+02 0.  0.
         23    2    4    4    0    0  0.28278799081E+03  0.21351855746E+03  0.20074819459E+04  0.20405828801E+04  0.91845006537E+02 0.  0.
          2    1    3    3  502    0 -0.11512109265E+02  0.48696293944E+02 -0.16750253215E+02  0.52767686005E+02  0.00000000000E+00 0. -1.
         -1    1    3    3    0  502 -0.16511716161E+03  0.10662384827E+03 -0.20179244836E+02  0.19758422002E+03  0.00000000000E+00 0.  1.
         13    1    5    5    0    0 -0.46603530224E+02 -0.28585963731E+03  0.54421440787E+03  0.61648758545E+03  0.00000000000E+00 0. -1.
        -13    1    5    5    0    0 -0.59555189707E+02 -0.82979062366E+02  0.26096858066E+03  0.28024443884E+03  0.00000000000E+00 0.  1.
          1    1    6    6  503    0  0.24238461531E+03  0.19194045924E+03  0.18770314932E+04  0.19023245434E+04  0.00000000000E+00 0. -1.
         -1    1    6    6    0  503  0.40403375497E+02  0.21578098220E+02  0.13045045266E+03  0.13825833673E+03  0.00000000000E+00 0.  1.
<mgrwt>
<rscale>  0 0.15673265E+04</rscale>
<asrwt>0</asrwt>
<pdfrwt beam="1">  1        2 0.45872322E+00 0.15673265E+04</pdfrwt>
<pdfrwt beam="2">  1       -1 0.31687031E-01 0.15673265E+04</pdfrwt>
<totfact> 0.18243597E+01</totfact>
</mgrwt>
</event>
<event>
12    7  0.1544987E-007  0.1675722E+04  0.7818608E-02  0.8775333E-01
         -1   -1    0    0    0  501 -0.00000000000E+00  0.00000000000E+00  0.56061852792E+03  0.56061852792E+03  0.00000000000E+00 0.  1.
          2   -1    0    0  501    0  0.00000000000E+00 -0.00000000000E+00 -0.12522086028E+04  0.12522086028E+04  0.00000000000E+00 0. -1.
         24    2    1    2    0    0 -0.40500060962E+03 -0.36113362658E+03  0.89843505160E+01  0.54880511827E+03  0.81629340645E+02 0.  0.
        254    2    1    2    0    0  0.40500060962E+03  0.36113362658E+03 -0.70057442540E+03  0.12640220125E+04  0.90139011111E+03 0.  0.
         23    2    4    4    0    0  0.60932417219E+03  0.32611269330E+03 -0.21658071447E+03  0.72981318237E+03  0.89970215827E+02 0.  0.
         23    2    4    4    0    0 -0.20432356257E+03  0.35020933274E+02 -0.48399371093E+03  0.53420883008E+03  0.90302701670E+02 0.  0.
          2    1    3    3  502    0 -0.36481145083E+02 -0.28430229259E+02  0.23969807072E+02  0.52093219649E+02  0.00000000000E+00 0. -1.
         -1    1    3    3    0  502 -0.36851946454E+03 -0.33270339732E+03 -0.14985456556E+02  0.49671189863E+03  0.00000000000E+00 0.  1.
         13    1    5    5    0    0  0.46253026431E+03  0.28926935611E+03 -0.17320976461E+03  0.57237455249E+03  0.00000000000E+00 0. -1.
        -13    1    5    5    0    0  0.14679390788E+03  0.36843337193E+02 -0.43370949867E+02  0.15743862988E+03  0.00000000000E+00 0.  1.
          3    1    6    6  503    0 -0.17812103774E+03 -0.10972396317E+01 -0.34565578142E+03  0.38885244920E+03  0.00000000000E+00 0. -1.
         -3    1    6    6    0  503 -0.26202524828E+02  0.36118172906E+02 -0.13833792951E+03  0.14535638088E+03  0.00000000000E+00 0.  1.
<mgrwt>
<rscale>  0 0.16757223E+04</rscale>
<asrwt>0</asrwt>
<pdfrwt beam="1">  1        2 0.19264748E+00 0.16757223E+04</pdfrwt>
<pdfrwt beam="2">  1       -1 0.86249005E-01 0.16757223E+04</pdfrwt>
<totfact> 0.25424777E+01</totfact>
</mgrwt>
</event>
<event>
12    7  0.1544987E-007  0.1897716E+04  0.7818608E-02  0.8655994E-01
          2   -1    0    0  501    0  0.00000000000E+00  0.00000000000E+00  0.23013654626E+04  0.23013654626E+04  0.00000000000E+00 0. -1.
         -1   -1    0    0    0  501 -0.00000000000E+00 -0.00000000000E+00 -0.39121604013E+03  0.39121604013E+03  0.00000000000E+00 0.  1.
         24    2    1    2    0    0 -0.55199138906E+03 -0.16868536635E+03  0.10382147380E+03  0.59186740439E+03  0.79867888072E+02 0.  0.
        254    2    1    2    0    0  0.55199138906E+03  0.16868536635E+03  0.18063279486E+04  0.21007140983E+04  0.90389701756E+03 0.  0.
         23    2    4    4    0    0  0.76633523032E+03  0.25484351117E+03  0.12441817148E+04  0.14860696956E+04  0.90554405799E+02 0.  0.
         23    2    4    4    0    0 -0.21434384126E+03 -0.86158144819E+02  0.56214623388E+03  0.61464440270E+03  0.91721564041E+02 0.  0.
          2    1    3    3  502    0 -0.26598401238E+03 -0.51992147786E+02  0.19764489646E+02  0.27173758173E+03  0.00000000000E+00 0. -1.
         -1    1    3    3    0  502 -0.28600737667E+03 -0.11669321857E+03  0.84056984149E+02  0.32012982266E+03  0.00000000000E+00 0.  1.
         13    1    5    5    0    0  0.41932361490E+03  0.16663978865E+03  0.62575470476E+03  0.77147265907E+03  0.00000000000E+00 0.  1.
        -13    1    5    5    0    0  0.34701161542E+03  0.88203722520E+02  0.61842701002E+03  0.71459703653E+03  0.00000000000E+00 0. -1.
          3    1    6    6  503    0 -0.14652047107E+03 -0.30226146280E+02  0.26001064521E+03  0.29997900591E+03  0.00000000000E+00 0. -1.
         -3    1    6    6    0  503 -0.67823370191E+02 -0.55931998539E+02  0.30213558866E+03  0.31466539680E+03  0.00000000000E+00 0.  1.
<mgrwt>
<rscale>  0 0.18977156E+04</rscale>
<asrwt>0</asrwt>
<pdfrwt beam="1">  1        2 0.35405622E+00 0.18977156E+04</pdfrwt>
<pdfrwt beam="2">  1       -1 0.60187084E-01 0.18977156E+04</pdfrwt>
<totfact> 0.13514832E+01</totfact>
</mgrwt>
</event>
<event>
12    7  0.1544987E-007  0.3620732E+04  0.7818608E-02  0.8085759E-01
          2   -1    0    0  501    0  0.00000000000E+00  0.00000000000E+00  0.17194454087E+04  0.17194454087E+04  0.00000000000E+00 0. -1.
         -1   -1    0    0    0  501 -0.00000000000E+00 -0.00000000000E+00 -0.19060947918E+04  0.19060947918E+04  0.00000000000E+00 0.  1.
         24    2    1    2    0    0  0.12116958757E+04  0.11447224150E+04  0.22465018822E+03  0.16836828286E+04  0.75656182058E+02 0.  0.
        254    2    1    2    0    0 -0.12116958757E+04 -0.11447224150E+04 -0.41129957134E+03  0.19418573719E+04  0.90721905460E+03 0.  0.
         23    2    4    4    0    0 -0.89535540220E+03 -0.41329312950E+03 -0.54160090982E+03  0.11291399271E+04  0.95670905896E+02 0.  0.
         23    2    4    4    0    0 -0.31634047349E+03 -0.73142928545E+03  0.13030133848E+03  0.81271744485E+03  0.92038641738E+02 0.  0.
          2    1    3    3  502    0  0.10619184371E+04  0.98395316145E+03  0.21655203565E+03  0.14638064678E+04  0.00000000000E+00 0. -1.
         -1    1    3    3    0  502  0.14977743861E+03  0.16076925351E+03  0.80981525631E+01  0.21987636086E+03  0.00000000000E+00 0.  1.
         13    1    5    5    0    0 -0.81584673490E+03 -0.40486146028E+03 -0.49523725825E+03  0.10367153123E+04  0.00000000000E+00 0. -1.
        -13    1    5    5    0    0 -0.79508667295E+02 -0.84316692214E+01 -0.46363651570E+02  0.92424614729E+02  0.00000000000E+00 0.  1.
          2    1    6    6  503    0 -0.23023513522E+03 -0.62002856471E+03  0.10898406769E+03  0.67031422897E+03  0.00000000000E+00 0. -1.
         -2    1    6    6    0  503 -0.86105338270E+02 -0.11140072074E+03  0.21317270789E+02  0.14240321589E+03  0.00000000000E+00 0.  1.
<mgrwt>
<rscale>  0 0.36207325E+04</rscale>
<asrwt>0</asrwt>
<pdfrwt beam="1">  1        2 0.26453006E+00 0.36207325E+04</pdfrwt>
<pdfrwt beam="2">  1       -1 0.29324535E+00 0.36207325E+04</pdfrwt>
<totfact> 0.32354378E-01</totfact>
</mgrwt>
</event>
<event>
12    7  0.1544987E-007  0.2573864E+04  0.7818608E-02  0.8377133E-01
          2   -1    0    0  501    0  0.00000000000E+00  0.00000000000E+00  0.99355912819E+03  0.99355912819E+03  0.00000000000E+00 0. -1.
         -1   -1    0    0    0  501 -0.00000000000E+00 -0.00000000000E+00 -0.16669307052E+04  0.16669307052E+04  0.00000000000E+00 0.  1.
         24    2    1    2    0    0 -0.42491765274E+03 -0.10277757055E+04 -0.12607097816E+03  0.11220979220E+04  0.79573503551E+02 0.  0.
        254    2    1    2    0    0  0.42491765274E+03  0.10277757055E+04 -0.54730059888E+03  0.15383919114E+04  0.91117167163E+03 0.  0.
         23    2    4    4    0    0  0.40153328468E+03  0.41735212130E+03  0.15165274663E+03  0.60584767099E+03  0.92957372068E+02 0.  0.
         23    2    4    4    0    0  0.23384368055E+02  0.61042358423E+03 -0.69895334550E+03  0.93254424046E+03  0.89102190600E+02 0.  0.
          4    1    3    3  502    0 -0.54881164081E+02 -0.12252510804E+03  0.10422609995E+02  0.13465873559E+03  0.00000000000E+00 0. -1.
         -3    1    3    3    0  502 -0.37003648866E+03 -0.90525059749E+03 -0.13649358815E+03  0.98743918638E+03  0.00000000000E+00 0.  1.
         13    1    5    5    0    0  0.43163886269E+02  0.95711464269E+02  0.24994823883E+02  0.10792843319E+03  0.00000000000E+00 0. -1.
        -13    1    5    5    0    0  0.35836939841E+03  0.32164065703E+03  0.12665792274E+03  0.49791923780E+03  0.00000000000E+00 0.  1.
          3    1    6    6  503    0  0.20729845242E+02  0.10674516422E+03 -0.82563345323E+02  0.13653191040E+03  0.00000000000E+00 0. -1.
         -3    1    6    6    0  503  0.26545228131E+01  0.50367842001E+03 -0.61639000018E+03  0.79601233005E+03  0.00000000000E+00 0.  1.
<mgrwt>
<rscale>  0 0.25738642E+04</rscale>
<asrwt>0</asrwt>
<pdfrwt beam="1">  1        2 0.15285525E+00 0.25738642E+04</pdfrwt>
<pdfrwt beam="2">  1       -1 0.25645088E+00 0.25738642E+04</pdfrwt>
<totfact> 0.16262106E+00</totfact>
</mgrwt>
</event>
<event>
12    7  0.1544987E-007  0.2272296E+04  0.7818608E-02  0.8488925E-01
          2   -1    0    0  501    0  0.00000000000E+00  0.00000000000E+00  0.96548805882E+03  0.96548805882E+03  0.00000000000E+00 0. -1.
         -1   -1    0    0    0  501 -0.00000000000E+00 -0.00000000000E+00 -0.13369739146E+04  0.13369739146E+04  0.00000000000E+00 0.  1.
         24    2    1    2    0    0 -0.82543109529E+03  0.34742735454E+03 -0.49212980024E+03  0.10250328160E+04  0.80363386185E+02 0.  0.
        254    2    1    2    0    0  0.82543109529E+03 -0.34742735454E+03  0.12064394442E+03  0.12774291575E+04  0.90289979028E+03 0.  0.
         23    2    4    4    0    0  0.93862309185E+03 -0.45265268349E+03  0.22232004316E+03  0.10693545613E+04  0.90472182239E+02 0.  0.
         23    2    4    4    0    0 -0.11319199656E+03  0.10522532895E+03 -0.10167609874E+03  0.20807459617E+03  0.95248152631E+02 0.  0.
          2    1    3    3  502    0 -0.22365739247E+03  0.88629088980E+02 -0.17331616653E+03  0.29650672539E+03  0.00000000000E+00 0. -1.
         -1    1    3    3    0  502 -0.60177370281E+03  0.25879826556E+03 -0.31881363371E+03  0.72852609061E+03  0.00000000000E+00 0.  1.
         13    1    5    5    0    0  0.60108311458E+03 -0.25869985144E+03  0.10496434855E+03  0.66275488549E+03  0.00000000000E+00 0. -1.
        -13    1    5    5    0    0  0.33753997726E+03 -0.19395283205E+03  0.11735569461E+03  0.40659967581E+03  0.00000000000E+00 0.  1.
          4    1    6    6  503    0 -0.10892943021E+03  0.12053656258E+03 -0.79719386138E+02  0.18096923553E+03  0.00000000000E+00 0. -1.
         -4    1    6    6    0  503 -0.42625663551E+01 -0.15311233628E+02 -0.21956712602E+02  0.27105360640E+02  0.00000000000E+00 0.  1.
<mgrwt>
<rscale>  0 0.22722961E+04</rscale>
<asrwt>0</asrwt>
<pdfrwt beam="1">  1        2 0.14853662E+00 0.22722961E+04</pdfrwt>
<pdfrwt beam="2">  1       -1 0.20568829E+00 0.22722961E+04</pdfrwt>
<totfact> 0.37803150E+00</totfact>
</mgrwt>
</event>
<event>
12    7  0.1544987E-007  0.3641846E+04  0.7818608E-02  0.8080973E-01
          2   -1    0    0  501    0  0.00000000000E+00  0.00000000000E+00  0.23213589168E+04  0.23213589168E+04  0.00000000000E+00 0. -1.
         -1   -1    0    0    0  501 -0.00000000000E+00 -0.00000000000E+00 -0.14283702910E+04  0.14283702910E+04  0.00000000000E+00 0.  1.
         24    2    1    2    0    0 -0.14725756760E+04 -0.41887916804E+03  0.11864018288E+04  0.19383967267E+04  0.76770383577E+02 0.  0.
        254    2    1    2    0    0  0.14725756760E+04  0.41887916804E+03 -0.29341320297E+03  0.18113324812E+04  0.92243979258E+03 0.  0.
         23    2    4    4    0    0  0.12414022659E+04 -0.57940666839E+02 -0.14629555794E+03  0.12539840488E+04  0.81467157654E+02 0.  0.
         23    2    4    4    0    0  0.23117341005E+03  0.47681983487E+03 -0.14711764503E+03  0.55734843236E+03  0.90528300203E+02 0.  0.
          2    1    3    3  502    0 -0.12642375004E+04 -0.35064801130E+03  0.98334644184E+03  0.16395794308E+04  0.00000000000E+00 0. -1.
         -1    1    3    3    0  502 -0.20833817560E+03 -0.68231156731E+02  0.20305538691E+03  0.29881729588E+03  0.00000000000E+00 0.  1.
         13    1    5    5    0    0  0.11540758321E+04 -0.56924941826E+02 -0.15661361799E+03  0.11660442961E+04  0.00000000000E+00 0.  1.
        -13    1    5    5    0    0  0.87326433857E+02 -0.10157250124E+01  0.10318060048E+02  0.87939752732E+02  0.00000000000E+00 0. -1.
          1    1    6    6  503    0  0.75947972893E+02  0.25919694632E+03 -0.66797974524E+02  0.27823213504E+03  0.00000000000E+00 0.  1.
         -1    1    6    6    0  503  0.15522543716E+03  0.21762288856E+03 -0.80319670502E+02  0.27911629733E+03  0.00000000000E+00 0. -1.
<mgrwt>
<rscale>  0 0.36418457E+04</rscale>
<asrwt>0</asrwt>
<pdfrwt beam="1">  1        2 0.35713214E+00 0.36418457E+04</pdfrwt>
<pdfrwt beam="2">  1       -1 0.21974928E+00 0.36418457E+04</pdfrwt>
<totfact> 0.44973247E-01</totfact>
</mgrwt>
</event>
<event>
12    7  0.1544987E-007  0.1784493E+04  0.7818608E-02  0.8714590E-01
          2   -1    0    0  501    0  0.00000000000E+00  0.00000000000E+00  0.99263547797E+03  0.99263547797E+03  0.00000000000E+00 0. -1.
         -1   -1    0    0    0  501 -0.00000000000E+00 -0.00000000000E+00 -0.80200984111E+03  0.80200984111E+03  0.00000000000E+00 0.  1.
         24    2    1    2    0    0  0.23196166629E+03 -0.19781424829E+03  0.67332011869E+03  0.74336597867E+03  0.79349256757E+02 0.  0.
        254    2    1    2    0    0 -0.23196166629E+03  0.19781424829E+03 -0.48269448183E+03  0.10512793404E+04  0.88275568382E+03 0.  0.
         23    2    4    4    0    0 -0.52665884407E+03  0.14886896566E+03 -0.11150711809E+03  0.56653018093E+03  0.94821419240E+02 0.  0.
         23    2    4    4    0    0  0.29469717778E+03  0.48945282626E+02 -0.37118736374E+03  0.48474915947E+03  0.89216709904E+02 0.  0.
          2    1    3    3  502    0  0.11294524329E+03 -0.14414313287E+03  0.35893686383E+03  0.40295104287E+03  0.00000000000E+00 0. -1.
         -1    1    3    3    0  502  0.11901642300E+03 -0.53671115420E+02  0.31438325486E+03  0.34041493580E+03  0.00000000000E+00 0.  1.
         13    1    5    5    0    0 -0.21675888622E+03  0.77222570951E+02 -0.19348877318E+01  0.23011189455E+03  0.00000000000E+00 0. -1.
        -13    1    5    5    0    0 -0.30989995785E+03  0.71646394711E+02 -0.10957223036E+03  0.33641828639E+03  0.00000000000E+00 0.  1.
          1    1    6    6  503    0  0.89808398160E+02  0.49215922354E+02 -0.16410102352E+03  0.19343448843E+03  0.00000000000E+00 0. -1.
         -1    1    6    6    0  503  0.20488877962E+03 -0.27063972717E+00 -0.20708634022E+03  0.29131467105E+03  0.00000000000E+00 0.  1.
<mgrwt>
<rscale>  0 0.17844926E+04</rscale>
<asrwt>0</asrwt>
<pdfrwt beam="1">  1        2 0.15271315E+00 0.17844926E+04</pdfrwt>
<pdfrwt beam="2">  1       -1 0.12338613E+00 0.17844926E+04</pdfrwt>
<totfact> 0.15875442E+01</totfact>
</mgrwt>
</event>
<event>
12    7  0.1544987E-007  0.1722201E+04  0.7818608E-02  0.8748803E-01
         -1   -1    0    0    0  501 -0.00000000000E+00  0.00000000000E+00  0.93610783448E+03  0.93610783448E+03  0.00000000000E+00 0.  1.
          2   -1    0    0  501    0  0.00000000000E+00 -0.00000000000E+00 -0.79210303942E+03  0.79210303942E+03  0.00000000000E+00 0. -1.
         24    2    1    2    0    0 -0.39401572723E+03 -0.36467921826E+03 -0.25308650574E+03  0.59901404845E+03  0.80781961564E+02 0.  0.
        254    2    1    2    0    0  0.39401572723E+03  0.36467921826E+03  0.39709130080E+03  0.11291968255E+04  0.91058478129E+03 0.  0.
         23    2    4    4    0    0  0.42419252405E+03  0.12564929985E+03 -0.18709900057E+03  0.49038932888E+03  0.98735069036E+02 0.  0.
         23    2    4    4    0    0 -0.30176796818E+02  0.23902991841E+03  0.58419030137E+03  0.63880749657E+03  0.93545542398E+02 0.  0.
          2    1    3    3  502    0 -0.16936051966E+03 -0.14771932780E+03 -0.62982336414E+02  0.23338971727E+03  0.00000000000E+00 0. -1.
         -1    1    3    3    0  502 -0.22465520757E+03 -0.21695989046E+03 -0.19010416932E+03  0.36562433118E+03  0.00000000000E+00 0.  1.
         13    1    5    5    0    0  0.98606848114E+02  0.70777810385E+02 -0.31581999849E+02  0.12542022027E+03  0.00000000000E+00 0. -1.
        -13    1    5    5    0    0  0.32558567594E+03  0.54871489463E+02 -0.15551700072E+03  0.36496910862E+03  0.00000000000E+00 0.  1.
          4    1    6    6  503    0  0.16100791768E+02  0.50205487629E+02  0.60800899645E+02  0.80477176151E+02  0.00000000000E+00 0. -1.
         -4    1    6    6    0  503 -0.46277588586E+02  0.18882443078E+03  0.52338940172E+03  0.55833032042E+03  0.00000000000E+00 0.  1.
<mgrwt>
<rscale>  0 0.17222008E+04</rscale>
<asrwt>0</asrwt>
<pdfrwt beam="1">  1        2 0.12186201E+00 0.17222008E+04</pdfrwt>
<pdfrwt beam="2">  1       -1 0.14401659E+00 0.17222008E+04</pdfrwt>
<totfact> 0.14726913E+01</totfact>
</mgrwt>
</event>
<event>
12    7  0.1544987E-007  0.2019230E+04  0.7818608E-02  0.8597682E-01
          2   -1    0    0  501    0  0.00000000000E+00  0.00000000000E+00  0.15597465987E+04  0.15597465987E+04  0.00000000000E+00 0. -1.
         -1   -1    0    0    0  501 -0.00000000000E+00 -0.00000000000E+00 -0.65351812768E+03  0.65351812768E+03  0.00000000000E+00 0.  1.
         24    2    1    2    0    0  0.36783174558E+03 -0.63941750136E+03  0.66195684648E+01  0.74194365661E+03  0.79256777557E+02 0.  0.
        254    2    1    2    0    0 -0.36783174558E+03  0.63941750136E+03  0.89960890254E+03  0.14713210698E+04  0.90074112745E+03 0.  0.
         23    2    4    4    0    0 -0.99134053476E+02 -0.50996036051E+02  0.67726206651E+03  0.69236720813E+03  0.90886126012E+02 0.  0.
         23    2    4    4    0    0 -0.26869769211E+03  0.69041353741E+03  0.22234683603E+03  0.77895386163E+03  0.91987502810E+02 0.  0.
          2    1    3    3  502    0  0.16166139480E+03 -0.30356033497E+03  0.40995498355E+02  0.34635807255E+03  0.00000000000E+00 0. -1.
         -1    1    3    3    0  502  0.20617035078E+03 -0.33585716640E+03 -0.34375929890E+02  0.39558558406E+03  0.00000000000E+00 0.  1.
         13    1    5    5    0    0 -0.93883772687E+02 -0.49860808180E+02  0.67856395298E+03  0.68684008419E+03  0.00000000000E+00 0. -1.
        -13    1    5    5    0    0 -0.52502807892E+01 -0.11352278706E+01 -0.13018864645E+01  0.55271239401E+01  0.00000000000E+00 0.  1.
          1    1    6    6  503    0 -0.23481576205E+03  0.65231088301E+03  0.22200079188E+03  0.72796447839E+03  0.00000000000E+00 0. -1.
         -1    1    6    6    0  503 -0.33881930056E+02  0.38102654402E+02  0.34604414629E+00  0.50989383241E+02  0.00000000000E+00 0.  1.
<mgrwt>
<rscale>  0 0.20192302E+04</rscale>
<asrwt>0</asrwt>
<pdfrwt beam="1">  1        2 0.23996101E+00 0.20192302E+04</pdfrwt>
<pdfrwt beam="2">  1       -1 0.10054125E+00 0.20192302E+04</pdfrwt>
<totfact> 0.11686123E+01</totfact>
</mgrwt>
</event>
<event>
12    7  0.1544987E-007  0.1621733E+04  0.7818608E-02  0.8807307E-01
          2   -1    0    0  501    0  0.00000000000E+00  0.00000000000E+00  0.44408780775E+04  0.44408780775E+04  0.00000000000E+00 0. -1.
         -1   -1    0    0    0  501 -0.00000000000E+00 -0.00000000000E+00 -0.14805728020E+03  0.14805728020E+03  0.00000000000E+00 0.  1.
         24    2    1    2    0    0 -0.35289821368E+03 -0.42748490479E+03  0.13725919649E+04  0.14824974703E+04  0.80681809056E+02 0.  0.
        254    2    1    2    0    0  0.35289821368E+03  0.42748490479E+03  0.29202288324E+04  0.31064378874E+04  0.90273995238E+03 0.  0.
         23    2    4    4    0    0  0.54111970239E+03  0.40551930754E+02  0.21477204173E+04  0.22170984978E+04  0.91475496339E+02 0.  0.
         23    2    4    4    0    0 -0.18822148871E+03  0.38693297404E+03  0.77250841509E+03  0.88933938963E+03  0.94925462147E+02 0.  0.
          4    1    3    3  502    0 -0.17501749522E+03 -0.16070129863E+03  0.64549830178E+03  0.68784016211E+03  0.00000000000E+00 0. -1.
         -3    1    3    3    0  502 -0.17788071846E+03 -0.26678360616E+03  0.72709366313E+03  0.79465730820E+03  0.00000000000E+00 0.  1.
         13    1    5    5    0    0  0.48958397276E+03  0.86089452899E+01  0.19095679225E+04  0.19713488354E+04  0.00000000000E+00 0. -1.
        -13    1    5    5    0    0  0.51535729630E+02  0.31942985464E+02  0.23815249486E+03  0.24574966237E+03  0.00000000000E+00 0.  1.
          4    1    6    6  503    0 -0.14802434127E+03  0.28932627300E+03  0.65620552706E+03  0.73227494262E+03  0.00000000000E+00 0. -1.
         -4    1    6    6    0  503 -0.40197147436E+02  0.97606701041E+02  0.11630288803E+03  0.15706444701E+03  0.00000000000E+00 0.  1.
<mgrwt>
<rscale>  0 0.16217328E+04</rscale>
<asrwt>0</asrwt>
<pdfrwt beam="1">  1        2 0.68321191E+00 0.16217328E+04</pdfrwt>
<pdfrwt beam="2">  1       -1 0.22778047E-01 0.16217328E+04</pdfrwt>
<totfact> 0.25854755E+00</totfact>
</mgrwt>
</event>
<event>
12    7  0.1544987E-007  0.1342669E+04  0.7818608E-02  0.8996396E-01
         -1   -1    0    0    0  501 -0.00000000000E+00  0.00000000000E+00  0.19087067925E+03  0.19087067925E+03  0.00000000000E+00 0.  1.
          2   -1    0    0  501    0  0.00000000000E+00 -0.00000000000E+00 -0.23612327395E+04  0.23612327395E+04  0.00000000000E+00 0. -1.
         24    2    1    2    0    0  0.18387039277E+02  0.17228868339E+03 -0.76776761416E+01  0.19172946887E+03  0.81729853076E+02 0.  0.
        254    2    1    2    0    0 -0.18387039277E+02 -0.17228868339E+03 -0.21626843841E+04  0.23603739499E+04  0.92959128890E+03 0.  0.
         23    2    4    4    0    0 -0.19447268160E+03  0.28383608853E+03 -0.43177017960E+03  0.55951052910E+03  0.90796448931E+02 0.  0.
         23    2    4    4    0    0  0.17608564233E+03 -0.45612477192E+03 -0.17309142045E+04  0.18008634208E+04  0.89381854894E+02 0.  0.
          4    1    3    3  502    0  0.35818527966E+02  0.59269004419E+02  0.23618290002E+02  0.73168336410E+02  0.00000000000E+00 0. -1.
         -3    1    3    3    0  502 -0.17431488690E+02  0.11301967897E+03 -0.31295966144E+02  0.11856113246E+03  0.00000000000E+00 0.  1.
         13    1    5    5    0    0 -0.76798344776E+02  0.12458012998E+03 -0.25529809543E+03  0.29427081417E+03  0.00000000000E+00 0.  1.
        -13    1    5    5    0    0 -0.11767433683E+03  0.15925595855E+03 -0.17647208418E+03  0.26523971493E+03  0.00000000000E+00 0. -1.
          2    1    6    6  503    0  0.15369325774E+03 -0.41121703777E+03 -0.14324547872E+04  0.14982148668E+04  0.00000000000E+00 0. -1.
         -2    1    6    6    0  503  0.22392384590E+02 -0.44907734148E+02 -0.29845941729E+03  0.30264855401E+03  0.00000000000E+00 0.  1.
<mgrwt>
<rscale>  0 0.13426691E+04</rscale>
<asrwt>0</asrwt>
<pdfrwt beam="1">  1        2 0.36326657E+00 0.13426691E+04</pdfrwt>
<pdfrwt beam="2">  1       -1 0.29364721E-01 0.13426691E+04</pdfrwt>
<totfact> 0.49489434E+01</totfact>
</mgrwt>
</event>
<event>
12    7  0.1544987E-007  0.1486380E+04  0.7818608E-02  0.8893561E-01
          2   -1    0    0  501    0  0.00000000000E+00  0.00000000000E+00  0.59099166292E+03  0.59099166292E+03  0.00000000000E+00 0. -1.
         -1   -1    0    0    0  501 -0.00000000000E+00 -0.00000000000E+00 -0.93458405027E+03  0.93458405027E+03  0.00000000000E+00 0.  1.
         24    2    1    2    0    0  0.39216059581E+03 -0.26361032165E+02  0.13883590674E+03  0.42487473424E+03  0.82208843056E+02 0.  0.
        254    2    1    2    0    0 -0.39216059581E+03  0.26361032165E+02 -0.48242829409E+03  0.11007009789E+04  0.90792111397E+03 0.  0.
         23    2    4    4    0    0 -0.12488453596E+03 -0.30073431355E+03  0.11988480596E+03  0.35805314016E+03  0.88274627225E+02 0.  0.
         23    2    4    4    0    0 -0.26727605985E+03  0.32709534571E+03 -0.60231310004E+03  0.74264783878E+03  0.10157206610E+03 0.  0.
          4    1    3    3  502    0  0.35523577477E+03 -0.47211215928E+02  0.13213477985E+03  0.38194365374E+03  0.00000000000E+00 0. -1.
         -3    1    3    3    0  502  0.36924821041E+02  0.20850183763E+02  0.67011268899E+01  0.42931080506E+02  0.00000000000E+00 0.  1.
         13    1    5    5    0    0 -0.98018881312E+02 -0.13160808168E+03  0.39021861261E+02  0.16867452064E+03  0.00000000000E+00 0. -1.
        -13    1    5    5    0    0 -0.26865654645E+02 -0.16912623187E+03  0.80862944698E+02  0.18937861952E+03  0.00000000000E+00 0.  1.
          1    1    6    6  503    0 -0.12087130125E+03  0.21297291152E+03 -0.39126184742E+03  0.46157682541E+03  0.00000000000E+00 0. -1.
         -1    1    6    6    0  503 -0.14640475860E+03  0.11412243419E+03 -0.21105125262E+03  0.28107101337E+03  0.00000000000E+00 0.  1.
<mgrwt>
<rscale>  0 0.14863800E+04</rscale>
<asrwt>0</asrwt>
<pdfrwt beam="1">  1        2 0.90921794E-01 0.14863800E+04</pdfrwt>
<pdfrwt beam="2">  1       -1 0.14378216E+00 0.14863800E+04</pdfrwt>
<totfact> 0.21816530E+01</totfact>
</mgrwt>
</event>
<event>
12    7  0.1544987E-007  0.1528193E+04  0.7818608E-02  0.8865918E-01
         -1   -1    0    0    0  501 -0.00000000000E+00  0.00000000000E+00  0.13639634075E+04  0.13639634075E+04  0.00000000000E+00 0.  1.
          2   -1    0    0  501    0  0.00000000000E+00 -0.00000000000E+00 -0.42804925041E+03  0.42804925041E+03  0.00000000000E+00 0. -1.
         24    2    1    2    0    0  0.30438880123E+03  0.26199409639E+03  0.64982323097E+03  0.76889473795E+03  0.87380991568E+02 0.  0.
        254    2    1    2    0    0 -0.30438880123E+03 -0.26199409639E+03  0.28609092607E+03  0.10231179199E+04  0.89645346294E+03 0.  0.
         23    2    4    4    0    0  0.25457046768E+03  0.82128497372E+02 -0.41472791833E+02  0.28407578706E+03  0.86184959458E+02 0.  0.
         23    2    4    4    0    0 -0.55895926890E+03 -0.34412259376E+03  0.32756371791E+03  0.73904213286E+03  0.89607259877E+02 0.  0.
          2    1    3    3  502    0  0.17038378659E+03  0.11607531026E+03  0.40043987380E+03  0.45039560934E+03  0.00000000000E+00 0. -1.
         -1    1    3    3    0  502  0.13400501464E+03  0.14591878613E+03  0.24938335717E+03  0.31849912862E+03  0.00000000000E+00 0.  1.
         13    1    5    5    0    0  0.40660497574E+02 -0.18433795525E+02 -0.53731224524E+01  0.44966113077E+02  0.00000000000E+00 0.  1.
        -13    1    5    5    0    0  0.21390997010E+03  0.10056229290E+03 -0.36099669381E+02  0.23910967398E+03  0.00000000000E+00 0. -1.
          2    1    6    6  503    0 -0.36785976249E+01 -0.18209805049E+02  0.10654053472E+02  0.21415833764E+02  0.00000000000E+00 0.  1.
         -2    1    6    6    0  503 -0.55528067128E+03 -0.32591278871E+03  0.31690966444E+03  0.71762629909E+03  0.00000000000E+00 0. -1.
<mgrwt>
<rscale>  0 0.15281931E+04</rscale>
<asrwt>0</asrwt>
<pdfrwt beam="1">  1        2 0.65853731E-01 0.15281931E+04</pdfrwt>
<pdfrwt beam="2">  1       -1 0.20984052E+00 0.15281931E+04</pdfrwt>
<totfact> 0.10464102E+01</totfact>
</mgrwt>
</event>
<event>
12    7  0.1544987E-007  0.1257820E+04  0.7818608E-02  0.9063700E-01
          2   -1    0    0  501    0  0.00000000000E+00  0.00000000000E+00  0.70443675141E+03  0.70443675141E+03  0.00000000000E+00 0. -1.
         -3   -1    0    0    0  501 -0.00000000000E+00 -0.00000000000E+00 -0.56148066942E+03  0.56148066942E+03  0.00000000000E+00 0.  1.
         24    2    1    2    0    0  0.30001610762E+03  0.48107448643E+01  0.75858405572E+02  0.31957276417E+03  0.79620636812E+02 0.  0.
        254    2    1    2    0    0 -0.30001610762E+03 -0.48107448643E+01  0.67097676423E+02  0.94634465666E+03  0.89500463849E+03 0.  0.
         23    2    4    4    0    0 -0.55021676046E+03  0.21482479452E+03  0.65034454583E+02  0.60097123041E+03  0.89714902128E+02 0.  0.
         23    2    4    4    0    0  0.25020065284E+03 -0.21963553939E+03  0.20632218406E+01  0.34537342625E+03  0.91860817720E+02 0.  0.
          4    1    3    3  502    0  0.27819307153E+03  0.26309326403E+02  0.63623288361E+02  0.28658591822E+03  0.00000000000E+00 0. -1.
         -3    1    3    3    0  502  0.21823036093E+02 -0.21498581539E+02  0.12235117211E+02  0.32986845949E+02  0.00000000000E+00 0.  1.
         13    1    5    5    0    0 -0.51878619198E+03  0.18864664855E+03  0.79221832728E+02  0.55767622308E+03  0.00000000000E+00 0.  1.
        -13    1    5    5    0    0 -0.31430568474E+02  0.26178145976E+02 -0.14187378146E+02  0.43295007333E+02  0.00000000000E+00 0. -1.
          3    1    6    6  503    0  0.48256999476E+02 -0.12180031367E+02  0.23552409745E+02  0.55061848565E+02  0.00000000000E+00 0. -1.
         -3    1    6    6    0  503  0.20194365336E+03 -0.20745550802E+03 -0.21489187904E+02  0.29031157769E+03  0.00000000000E+00 0.  1.
<mgrwt>
<rscale>  0 0.12578197E+04</rscale>
<asrwt>0</asrwt>
<pdfrwt beam="1">  1        2 0.10837488E+00 0.12578197E+04</pdfrwt>
<pdfrwt beam="2">  1       -3 0.86381642E-01 0.12578197E+04</pdfrwt>
<totfact> 0.30928916E+01</totfact>
</mgrwt>
</event>
<event>
12    7  0.1544987E-007  0.1977757E+04  0.7818608E-02  0.8617091E-01
          2   -1    0    0  501    0  0.00000000000E+00  0.00000000000E+00  0.26288985475E+04  0.26288985475E+04  0.00000000000E+00 0. -1.
         -1   -1    0    0    0  501 -0.00000000000E+00 -0.00000000000E+00 -0.37197359340E+03  0.37197359340E+03  0.00000000000E+00 0.  1.
         24    2    1    2    0    0  0.53918606767E+03 -0.48530695833E+03  0.71404185469E+03  0.10210568046E+04  0.80354020512E+02 0.  0.
        254    2    1    2    0    0 -0.53918606767E+03  0.48530695833E+03  0.15428830994E+04  0.19798153363E+04  0.10064472405E+04 0.  0.
         23    2    4    4    0    0 -0.29698908299E+03  0.57084154039E+03  0.31369390988E+03  0.72092308277E+03  0.85227005846E+02 0.  0.
         23    2    4    4    0    0 -0.24219698468E+03 -0.85534582065E+02  0.12291891895E+04  0.12588922535E+04  0.89039868617E+02 0.  0.
          4    1    3    3  502    0  0.29252685299E+03 -0.30779039380E+03  0.38544903809E+03  0.57347872428E+03  0.00000000000E+00 0. -1.
         -3    1    3    3    0  502  0.24665921468E+03 -0.17751656453E+03  0.32859281660E+03  0.44757808033E+03  0.00000000000E+00 0.  1.
         13    1    5    5    0    0 -0.21921343069E+03  0.48694597444E+03  0.27073719035E+03  0.59872325531E+03  0.00000000000E+00 0. -1.
        -13    1    5    5    0    0 -0.77775652308E+02  0.83895565956E+02  0.42956719532E+02  0.12219982746E+03  0.00000000000E+00 0.  1.
          1    1    6    6  503    0 -0.96480228647E+02 -0.80706992304E+02  0.54143928368E+03  0.55585839118E+03  0.00000000000E+00 0. -1.
         -1    1    6    6    0  503 -0.14571675603E+03 -0.48275897612E+01  0.68774990580E+03  0.70303386230E+03  0.00000000000E+00 0.  1.
<mgrwt>
<rscale>  0 0.19777572E+04</rscale>
<asrwt>0</asrwt>
<pdfrwt beam="1">  1        2 0.40444592E+00 0.19777572E+04</pdfrwt>
<pdfrwt beam="2">  1       -1 0.57226708E-01 0.19777572E+04</pdfrwt>
<totfact> 0.95958076E+00</totfact>
</mgrwt>
</event>
<event>
12    7  0.1544987E-007  0.1360977E+04  0.7818608E-02  0.8982560E-01
          2   -1    0    0  501    0  0.00000000000E+00  0.00000000000E+00  0.28132480104E+04  0.28132480104E+04  0.00000000000E+00 0. -1.
         -1   -1    0    0    0  501 -0.00000000000E+00 -0.00000000000E+00 -0.16460144145E+03  0.16460144145E+03  0.00000000000E+00 0.  1.
         24    2    1    2    0    0  0.80960749864E+02  0.36335918921E+03  0.60823909508E+03  0.71744499962E+03  0.78663761053E+02 0.  0.
        254    2    1    2    0    0 -0.80960749864E+02 -0.36335918921E+03  0.20404074739E+04  0.22604044522E+04  0.89865515346E+03 0.  0.
         23    2    4    4    0    0  0.57894103636E+02 -0.53595100251E+03  0.19157232662E+04  0.19922323196E+04  0.91644847533E+02 0.  0.
         23    2    4    4    0    0 -0.13885485350E+03  0.17259181330E+03  0.12468420761E+03  0.26817213262E+03  0.85449030014E+02 0.  0.
          2    1    3    3  502    0  0.34433160424E+02  0.38871516558E+02  0.99600035776E+02  0.11232454969E+03  0.00000000000E+00 0. -1.
         -1    1    3    3    0  502  0.46527589440E+02  0.32448767265E+03  0.50863905930E+03  0.60512044993E+03  0.00000000000E+00 0.  1.
         13    1    5    5    0    0  0.20818612155E+02 -0.28102959420E+03  0.11628419466E+04  0.11965000795E+04  0.00000000000E+00 0. -1.
        -13    1    5    5    0    0  0.37075491481E+02 -0.25492140831E+03  0.75288131961E+03  0.79573224008E+03  0.00000000000E+00 0.  1.
          1    1    6    6  503    0 -0.55684567470E+02  0.62602920227E+02  0.95828430360E+02  0.12729094524E+03  0.00000000000E+00 0. -1.
         -1    1    6    6    0  503 -0.83170286031E+02  0.10998889307E+03  0.28855777251E+02  0.14088118738E+03  0.00000000000E+00 0.  1.
<mgrwt>
<rscale>  0 0.13609771E+04</rscale>
<asrwt>0</asrwt>
<pdfrwt beam="1">  1        2 0.43280735E+00 0.13609771E+04</pdfrwt>
<pdfrwt beam="2">  1       -1 0.25323301E-01 0.13609771E+04</pdfrwt>
<totfact> 0.34831352E+01</totfact>
</mgrwt>
</event>
<event>
12    7  0.1544987E-007  0.2093734E+04  0.7818608E-02  0.8564009E-01
          2   -1    0    0  501    0  0.00000000000E+00  0.00000000000E+00  0.81122129900E+03  0.81122129900E+03  0.00000000000E+00 0. -1.
         -1   -1    0    0    0  501 -0.00000000000E+00 -0.00000000000E+00 -0.13509634549E+04  0.13509634549E+04  0.00000000000E+00 0.  1.
         24    2    1    2    0    0 -0.74589771885E+03 -0.39026836772E+02  0.20413999327E+03  0.77837655403E+03  0.79438164868E+02 0.  0.
        254    2    1    2    0    0  0.74589771885E+03  0.39026836772E+02 -0.74388214921E+03  0.13838081999E+04  0.89648088729E+03 0.  0.
         23    2    4    4    0    0  0.64692602364E+02 -0.28149627733E+03 -0.50559152632E+03  0.58892723585E+03  0.88245173704E+02 0.  0.
         23    2    4    4    0    0  0.68120511648E+03  0.32052311410E+03 -0.23829062289E+03  0.79488096407E+03  0.90982683481E+02 0.  0.
          2    1    3    3  502    0 -0.21613128814E+03  0.13262097540E+01  0.94446091350E+02  0.23586978763E+03  0.00000000000E+00 0. -1.
         -1    1    3    3    0  502 -0.52976643071E+03 -0.40353046526E+02  0.10969390192E+03  0.54250676640E+03  0.00000000000E+00 0.  1.
         13    1    5    5    0    0  0.50599477441E+02 -0.58330106014E+02 -0.15353260057E+03  0.17185740549E+03  0.00000000000E+00 0.  1.
        -13    1    5    5    0    0  0.14093124923E+02 -0.22316617131E+03 -0.35205892575E+03  0.41706983035E+03  0.00000000000E+00 0. -1.
          3    1    6    6  503    0  0.45329085728E+03  0.22249169344E+03 -0.11521386837E+03  0.51792797801E+03  0.00000000000E+00 0. -1.
         -3    1    6    6    0  503  0.22791425920E+03  0.98031420662E+02 -0.12307675452E+03  0.27695298606E+03  0.00000000000E+00 0.  1.
<mgrwt>
<rscale>  0 0.20937338E+04</rscale>
<asrwt>0</asrwt>
<pdfrwt beam="1">  1        2 0.12480328E+00 0.20937338E+04</pdfrwt>
<pdfrwt beam="2">  1       -1 0.20784053E+00 0.20937338E+04</pdfrwt>
<totfact> 0.47299845E+00</totfact>
</mgrwt>
</event>
<event>
12    7  0.1544987E-007  0.1369602E+04  0.7818608E-02  0.8976121E-01
          2   -1    0    0  501    0  0.00000000000E+00  0.00000000000E+00  0.40685018712E+03  0.40685018712E+03  0.00000000000E+00 0. -1.
         -1   -1    0    0    0  501 -0.00000000000E+00 -0.00000000000E+00 -0.11526412372E+04  0.11526412372E+04  0.00000000000E+00 0.  1.
         24    2    1    2    0    0 -0.14727112462E+03 -0.35547942297E+03 -0.20425242173E+03  0.44272422834E+03  0.78938496798E+02 0.  0.
        254    2    1    2    0    0  0.14727112462E+03  0.35547942297E+03 -0.54153862840E+03  0.11167671960E+04  0.89769175097E+03 0.  0.
         23    2    4    4    0    0 -0.13579624782E+03  0.57144115534E+03 -0.24441363496E+03  0.64334984976E+03  0.95788252392E+02 0.  0.
         23    2    4    4    0    0  0.28306737244E+03 -0.21596173237E+03 -0.29712499344E+03  0.47341734626E+03  0.95258148338E+02 0.  0.
          2    1    3    3  502    0 -0.88197654456E+02 -0.29185173782E+03 -0.14500849117E+03  0.33761475920E+03  0.00000000000E+00 0. -1.
         -1    1    3    3    0  502 -0.59073470165E+02 -0.63627685151E+02 -0.59243930554E+02  0.10510946914E+03  0.00000000000E+00 0.  1.
         13    1    5    5    0    0  0.10387922779E+01  0.17935675491E+03 -0.61957700352E+02  0.18975953535E+03  0.00000000000E+00 0.  1.
        -13    1    5    5    0    0 -0.13683504010E+03  0.39208440042E+03 -0.18245593461E+03  0.45359031441E+03  0.00000000000E+00 0. -1.
          2    1    6    6  503    0  0.26648506743E+03 -0.21518462127E+03 -0.25170217730E+03  0.42505611212E+03  0.00000000000E+00 0. -1.
         -2    1    6    6    0  503  0.16582305011E+02 -0.77711109683E+00 -0.45422816142E+02  0.48361234138E+02  0.00000000000E+00 0.  1.
<mgrwt>
<rscale>  0 0.13696018E+04</rscale>
<asrwt>0</asrwt>
<pdfrwt beam="1">  1        2 0.62592337E-01 0.13696018E+04</pdfrwt>
<pdfrwt beam="2">  1       -1 0.17732942E+00 0.13696018E+04</pdfrwt>
<totfact> 0.18938855E+01</totfact>
</mgrwt>
</event>
<event>
12    7  0.1544987E-007  0.2649053E+04  0.7818608E-02  0.8351727E-01
          2   -1    0    0  501    0  0.00000000000E+00  0.00000000000E+00  0.13374363490E+04  0.13374363490E+04  0.00000000000E+00 0. -1.
         -1   -1    0    0    0  501 -0.00000000000E+00 -0.00000000000E+00 -0.13117408403E+04  0.13117408403E+04  0.00000000000E+00 0.  1.
         24    2    1    2    0    0 -0.10132809654E+04 -0.30931069680E+03  0.56731855512E+03  0.12043042825E+04  0.78019482965E+02 0.  0.
        254    2    1    2    0    0  0.10132809654E+04  0.30931069680E+03 -0.54162304641E+03  0.14448729068E+04  0.81968943537E+03 0.  0.
         23    2    4    4    0    0  0.50621361607E+03  0.15670656313E+03 -0.70151909958E+03  0.88433523675E+03  0.95449420394E+02 0.  0.
         23    2    4    4    0    0  0.50706734937E+03  0.15260413367E+03  0.15989605317E+03  0.56053767009E+03  0.90721625678E+02 0.  0.
          2    1    3    3  502    0 -0.59171806755E+03 -0.15196211558E+03  0.35731670562E+03  0.70774146703E+03  0.00000000000E+00 0. -1.
         -1    1    3    3    0  502 -0.42156289788E+03 -0.15734858122E+03  0.21000184950E+03  0.49656281544E+03  0.00000000000E+00 0.  1.
         13    1    5    5    0    0  0.95026927028E+02  0.58852971307E+02 -0.10583185881E+03  0.15392911171E+03  0.00000000000E+00 0.  1.
        -13    1    5    5    0    0  0.41118668904E+03  0.97853591823E+02 -0.59568724077E+03  0.73040612504E+03  0.00000000000E+00 0. -1.
          4    1    6    6  503    0  0.42548116621E+03  0.15763389306E+03  0.15149811414E+03  0.47836632995E+03  0.00000000000E+00 0. -1.
         -4    1    6    6    0  503  0.81586183155E+02 -0.50297593830E+01  0.83979390364E+01  0.82171340146E+02  0.00000000000E+00 0.  1.
<mgrwt>
<rscale>  0 0.26490526E+04</rscale>
<asrwt>0</asrwt>
<pdfrwt beam="1">  1        2 0.20575944E+00 0.26490526E+04</pdfrwt>
<pdfrwt beam="2">  1       -1 0.20180628E+00 0.26490526E+04</pdfrwt>
<totfact> 0.23079577E+00</totfact>
</mgrwt>
</event>
<event>
12    7  0.1544987E-007  0.1673571E+04  0.7818608E-02  0.8776583E-01
          2   -1    0    0  501    0  0.00000000000E+00  0.00000000000E+00  0.25962997275E+04  0.25962997275E+04  0.00000000000E+00 0. -1.
         -1   -1    0    0    0  501 -0.00000000000E+00 -0.00000000000E+00 -0.26969548490E+03  0.26969548490E+03  0.00000000000E+00 0.  1.
         24    2    1    2    0    0 -0.50455331975E+03 -0.29349594159E+03  0.88119471553E+03  0.10600103225E+04  0.80023977003E+02 0.  0.
        254    2    1    2    0    0  0.50455331975E+03  0.29349594159E+03  0.14454095271E+04  0.18059848899E+04  0.91195328905E+03 0.  0.
         23    2    4    4    0    0  0.13056934814E+03  0.10786910773E+03  0.13558602666E+04  0.13693076326E+04  0.89231335316E+02 0.  0.
         23    2    4    4    0    0  0.37398397162E+03  0.18562683386E+03  0.89549260501E+02  0.43667725729E+03  0.91359862634E+02 0.  0.
          4    1    3    3  502    0 -0.21149923180E+03 -0.10890241400E+03  0.29291038257E+03  0.37734354777E+03  0.00000000000E+00 0. -1.
         -3    1    3    3    0  502 -0.29305408796E+03 -0.18459352759E+03  0.58828433297E+03  0.68266677472E+03  0.00000000000E+00 0.  1.
         13    1    5    5    0    0  0.52800686648E+02 -0.20673806332E+01  0.26936392010E+03  0.27449791989E+03  0.00000000000E+00 0.  1.
        -13    1    5    5    0    0  0.77768661490E+02  0.10993648836E+03  0.10864963465E+04  0.10948097127E+04  0.00000000000E+00 0. -1.
          1    1    6    6  503    0  0.36441921347E+03  0.17949540705E+03  0.10298940748E+03  0.41907849187E+03  0.00000000000E+00 0. -1.
         -1    1    6    6    0  503  0.95647581514E+01  0.61314268087E+01 -0.13440146984E+02  0.17598765416E+02  0.00000000000E+00 0.  1.
<mgrwt>
<rscale>  0 0.16735714E+04</rscale>
<asrwt>0</asrwt>
<pdfrwt beam="1">  1        2 0.39943071E+00 0.16735714E+04</pdfrwt>
<pdfrwt beam="2">  1       -1 0.41491615E-01 0.16735714E+04</pdfrwt>
<totfact> 0.18952917E+01</totfact>
</mgrwt>
</event>
<event>
12    7  0.1544987E-007  0.3413022E+04  0.7818608E-02  0.8134718E-01
         -1   -1    0    0    0  501 -0.00000000000E+00  0.00000000000E+00  0.19319131204E+04  0.19319131204E+04  0.00000000000E+00 0.  1.
          2   -1    0    0  501    0  0.00000000000E+00 -0.00000000000E+00 -0.15074071915E+04  0.15074071915E+04  0.00000000000E+00 0. -1.
         24    2    1    2    0    0  0.10497326964E+04  0.86259413888E+03 -0.59295416546E+03  0.14846043186E+04  0.80299179638E+02 0.  0.
        254    2    1    2    0    0 -0.10497326964E+04 -0.86259413888E+03  0.10174600943E+04  0.19547159933E+04  0.96937205893E+03 0.  0.
         23    2    4    4    0    0 -0.12895456408E+03 -0.70488557697E+03  0.53683011149E+03  0.90019058981E+03  0.93078317379E+02 0.  0.
         23    2    4    4    0    0 -0.92077813232E+03 -0.15770856192E+03  0.48062998281E+03  0.10545254035E+04  0.91182710866E+02 0.  0.
          4    1    3    3  502    0  0.58250168633E+03  0.50131166021E+03 -0.37417040971E+03  0.85476610295E+03  0.00000000000E+00 0. -1.
         -3    1    3    3    0  502  0.46723101006E+03  0.36128247868E+03 -0.21878375575E+03  0.62983821569E+03  0.00000000000E+00 0.  1.
         13    1    5    5    0    0 -0.24500074703E+02 -0.34867612176E+03  0.29263944214E+03  0.45586525931E+03  0.00000000000E+00 0.  1.
        -13    1    5    5    0    0 -0.10445448937E+03 -0.35620945521E+03  0.24419066935E+03  0.44432533050E+03  0.00000000000E+00 0. -1.
          4    1    6    6  503    0 -0.19838490368E+03  0.28188777783E+01  0.92639212087E+02  0.21896698312E+03  0.00000000000E+00 0. -1.
         -4    1    6    6    0  503 -0.72239322864E+03 -0.16052743970E+03  0.38799077072E+03  0.83555842036E+03  0.00000000000E+00 0.  1.
<mgrwt>
<rscale>  0 0.34130220E+04</rscale>
<asrwt>0</asrwt>
<pdfrwt beam="1">  1        2 0.23190880E+00 0.34130220E+04</pdfrwt>
<pdfrwt beam="2">  1       -1 0.29721740E+00 0.34130220E+04</pdfrwt>
<totfact> 0.40773450E-01</totfact>
</mgrwt>
</event>
<event>
12    7  0.1544987E-007  0.3045506E+04  0.7818608E-02  0.8230854E-01
         -1   -1    0    0    0  501 -0.00000000000E+00  0.00000000000E+00  0.18446980667E+04  0.18446980667E+04  0.00000000000E+00 0.  1.
          2   -1    0    0  501    0  0.00000000000E+00 -0.00000000000E+00 -0.12569951877E+04  0.12569951877E+04  0.00000000000E+00 0. -1.
         24    2    1    2    0    0 -0.31442570278E+03 -0.86275829124E+03  0.13331421185E+04  0.16206479054E+04  0.77565027078E+02 0.  0.
        254    2    1    2    0    0  0.31442570278E+03  0.86275829124E+03 -0.74543923954E+03  0.14810453490E+04  0.89140354181E+03 0.  0.
         23    2    4    4    0    0 -0.18077972632E+03  0.55502359944E+03 -0.65957221977E+03  0.88528934549E+03  0.89270413666E+02 0.  0.
         23    2    4    4    0    0  0.49520542910E+03  0.30773469180E+03 -0.85867019771E+02  0.59575600354E+03  0.87309868397E+02 0.  0.
          4    1    3    3  502    0 -0.28312586747E+03 -0.74266664883E+03  0.11922734056E+04  0.14329095861E+04  0.00000000000E+00 0. -1.
         -3    1    3    3    0  502 -0.31299835308E+02 -0.12009164242E+03  0.14086871287E+03  0.18773831930E+03  0.00000000000E+00 0.  1.
         13    1    5    5    0    0 -0.17501379879E+03  0.42776337779E+03 -0.49591949245E+03  0.67789931416E+03  0.00000000000E+00 0.  1.
        -13    1    5    5    0    0 -0.57659275282E+01  0.12726022165E+03 -0.16365272732E+03  0.20739003133E+03  0.00000000000E+00 0. -1.
          1    1    6    6  503    0  0.12369987097E+03  0.95562725479E+02  0.12357443016E+02  0.15680114469E+03  0.00000000000E+00 0. -1.
         -1    1    6    6    0  503  0.37150555814E+03  0.21217196632E+03 -0.98224462787E+02  0.43895485885E+03  0.00000000000E+00 0.  1.
<mgrwt>
<rscale>  0 0.30455059E+04</rscale>
<asrwt>0</asrwt>
<pdfrwt beam="1">  1        2 0.19338388E+00 0.30455059E+04</pdfrwt>
<pdfrwt beam="2">  1       -1 0.28379970E+00 0.30455059E+04</pdfrwt>
<totfact> 0.71576350E-01</totfact>
</mgrwt>
</event>
<event>
12    7  0.1544987E-007  0.1693904E+04  0.7818608E-02  0.8764849E-01
          4   -1    0    0  501    0  0.00000000000E+00  0.00000000000E+00  0.66069954078E+03  0.66069954078E+03  0.00000000000E+00 0. -1.
         -3   -1    0    0    0  501 -0.00000000000E+00 -0.00000000000E+00 -0.10857099265E+04  0.10857099265E+04  0.00000000000E+00 0.  1.
         24    2    1    2    0    0  0.53943940701E+03 -0.37024770345E+02 -0.43228374838E+03  0.69691074449E+03  0.80309645847E+02 0.  0.
        254    2    1    2    0    0 -0.53943940701E+03  0.37024770345E+02  0.72733626169E+01  0.10494987228E+04  0.89946037153E+03 0.  0.
         23    2    4    4    0    0  0.21543956316E+03  0.14281506976E+03  0.57743802185E+02  0.28012775496E+03  0.91251645921E+02 0.  0.
         23    2    4    4    0    0 -0.75487897017E+03 -0.10579029942E+03 -0.50470439568E+02  0.76937096787E+03  0.91381474415E+02 0.  0.
          2    1    3    3  502    0  0.75065086670E+02 -0.20829747266E+02 -0.94398170044E+02  0.12239142174E+03  0.00000000000E+00 0. -1.
         -1    1    3    3    0  502  0.46437432034E+03 -0.16195023079E+02 -0.33788557833E+03  0.57451932275E+03  0.00000000000E+00 0.  1.
         13    1    5    5    0    0  0.42373707991E+01  0.33032972890E+02 -0.56987150588E+01  0.33787689512E+02  0.00000000000E+00 0. -1.
        -13    1    5    5    0    0  0.21120219236E+03  0.10978209688E+03  0.63442517243E+02  0.24634006545E+03  0.00000000000E+00 0.  1.
          2    1    6    6  503    0 -0.47183168818E+03 -0.22711516851E+02 -0.42329979541E+02  0.47427078989E+03  0.00000000000E+00 0. -1.
         -2    1    6    6    0  503 -0.28304728199E+03 -0.83078782569E+02 -0.81404600270E+01  0.29510017798E+03  0.00000000000E+00 0.  1.
<mgrwt>
<rscale>  0 0.16939044E+04</rscale>
<asrwt>0</asrwt>
<pdfrwt beam="1">  1        4 0.10164608E+00 0.16939044E+04</pdfrwt>
<pdfrwt beam="2">  1       -3 0.16703229E+00 0.16939044E+04</pdfrwt>
<totfact> 0.41964608E-01</totfact>
</mgrwt>
</event>
<event>
12    7  0.1544987E-007  0.1621488E+04  0.7818608E-02  0.8807455E-01
         -1   -1    0    0    0  501 -0.00000000000E+00  0.00000000000E+00  0.32340986696E+03  0.32340986696E+03  0.00000000000E+00 0.  1.
          2   -1    0    0  501    0  0.00000000000E+00 -0.00000000000E+00 -0.20324247748E+04  0.20324247748E+04  0.00000000000E+00 0. -1.
         24    2    1    2    0    0 -0.84186171101E+02  0.25772254089E+03  0.11143288929E+03  0.30402454565E+03  0.80656159423E+02 0.  0.
        254    2    1    2    0    0  0.84186171101E+02 -0.25772254089E+03 -0.18204477972E+04  0.20518100962E+04  0.90685515325E+03 0.  0.
         23    2    4    4    0    0  0.16408552647E+03  0.31030727718E+03 -0.61990709607E+03  0.71820750843E+03  0.91228017320E+02 0.  0.
         23    2    4    4    0    0 -0.79899355365E+02 -0.56802981807E+03 -0.12005407011E+04  0.13336025877E+04  0.90311160887E+02 0.  0.
          2    1    3    3  502    0  0.16967724692E+01  0.49260678773E+02  0.50298163659E+02  0.70422998924E+02  0.00000000000E+00 0. -1.
         -1    1    3    3    0  502 -0.85882943570E+02  0.20846186212E+03  0.61134725633E+02  0.23360154673E+03  0.00000000000E+00 0.  1.
         13    1    5    5    0    0  0.14984034932E+03  0.31341383608E+03 -0.60274745882E+03  0.69569020551E+03  0.00000000000E+00 0.  1.
        -13    1    5    5    0    0  0.14245177146E+02 -0.31065589051E+01 -0.17159637247E+02  0.22517302916E+02  0.00000000000E+00 0. -1.
          1    1    6    6  503    0  0.18328858004E+02 -0.15495448114E+03 -0.33109197975E+03  0.36601740030E+03  0.00000000000E+00 0. -1.
         -1    1    6    6    0  503 -0.98228213369E+02 -0.41307533693E+03 -0.86944872135E+03  0.96758518743E+03  0.00000000000E+00 0.  1.
<mgrwt>
<rscale>  0 0.16214885E+04</rscale>
<asrwt>0</asrwt>
<pdfrwt beam="1">  1        2 0.31268074E+00 0.16214885E+04</pdfrwt>
<pdfrwt beam="2">  1       -1 0.49755363E-01 0.16214885E+04</pdfrwt>
<totfact> 0.28322495E+01</totfact>
</mgrwt>
</event>
<event>
12    7  0.1544987E-007  0.1737704E+04  0.7818608E-02  0.8740148E-01
         -1   -1    0    0    0  501 -0.00000000000E+00  0.00000000000E+00  0.67551363245E+03  0.67551363245E+03  0.00000000000E+00 0.  1.
          2   -1    0    0  501    0  0.00000000000E+00 -0.00000000000E+00 -0.11175260386E+04  0.11175260386E+04  0.00000000000E+00 0. -1.
         24    2    1    2    0    0  0.61191548506E+03 -0.11450355099E+02 -0.21118772406E+02  0.61758422075E+03  0.79953709594E+02 0.  0.
        254    2    1    2    0    0 -0.61191548506E+03  0.11450355099E+02 -0.42089363379E+03  0.11754554504E+04  0.91102820665E+03 0.  0.
         23    2    4    4    0    0 -0.50264432527E+03 -0.40228934299E+03 -0.17850524807E+03  0.67414549675E+03  0.90111009245E+02 0.  0.
         23    2    4    4    0    0 -0.10927115979E+03  0.41373969809E+03 -0.24238838572E+03  0.50130995360E+03  0.97153568673E+02 0.  0.
          4    1    3    3  502    0  0.30040867199E+03  0.94780489312E+01 -0.47392162962E+02  0.30427162327E+03  0.00000000000E+00 0. -1.
         -1    1    3    3    0  502  0.31150681307E+03 -0.20928404030E+02  0.26273390556E+02  0.31331259747E+03  0.00000000000E+00 0.  1.
         13    1    5    5    0    0 -0.41432516654E+02 -0.28942563660E+02 -0.40897704502E+02  0.65014980282E+02  0.00000000000E+00 0.  1.
        -13    1    5    5    0    0 -0.46121180862E+03 -0.37334677933E+03 -0.13760754357E+03  0.60913051647E+03  0.00000000000E+00 0. -1.
          4    1    6    6  503    0 -0.76031178177E+02  0.36975254420E+03 -0.18049457564E+03  0.41842081191E+03  0.00000000000E+00 0. -1.
         -4    1    6    6    0  503 -0.33239981611E+02  0.43987153891E+02 -0.61893810076E+02  0.82889141693E+02  0.00000000000E+00 0.  1.
<mgrwt>
<rscale>  0 0.17377043E+04</rscale>
<asrwt>0</asrwt>
<pdfrwt beam="1">  1        2 0.17192708E+00 0.17377043E+04</pdfrwt>
<pdfrwt beam="2">  1       -1 0.10392518E+00 0.17377043E+04</pdfrwt>
<totfact> 0.20054729E+01</totfact>
</mgrwt>
</event>
<event>
12    7  0.1544987E-007  0.1472427E+04  0.7818608E-02  0.8902998E-01
         -1   -1    0    0    0  501 -0.00000000000E+00  0.00000000000E+00  0.16658795377E+03  0.16658795377E+03  0.00000000000E+00 0.  1.
          2   -1    0    0  501    0  0.00000000000E+00 -0.00000000000E+00 -0.32536001121E+04  0.32536001121E+04  0.00000000000E+00 0. -1.
         24    2    1    2    0    0 -0.72891536513E+02  0.12800891006E+03  0.30947505405E+02  0.17146914629E+03  0.82124678919E+02 0.  0.
        254    2    1    2    0    0  0.72891536513E+02 -0.12800891006E+03 -0.31179596637E+04  0.32487189196E+04  0.90044583213E+03 0.  0.
         23    2    4    4    0    0  0.31264702119E+03 -0.20774731030E+03 -0.58141493433E+03  0.69801140019E+03  0.90936704061E+02 0.  0.
         23    2    4    4    0    0 -0.23975548468E+03  0.79738400239E+02 -0.25365447294E+04  0.25507075194E+04  0.90602319279E+02 0.  0.
          4    1    3    3  502    0  0.83584719433E+01  0.62821639708E+02  0.21284896453E+02  0.66854089522E+02  0.00000000000E+00 0. -1.
         -3    1    3    3    0  502 -0.81250008456E+02  0.65187270353E+02  0.96626089517E+01  0.10461505677E+03  0.00000000000E+00 0.  1.
         13    1    5    5    0    0  0.31056558287E+03 -0.18115185455E+03 -0.53943217305E+03  0.64827004018E+03  0.00000000000E+00 0. -1.
        -13    1    5    5    0    0  0.20814383226E+01 -0.26595455745E+02 -0.41982761274E+02  0.49741360013E+02  0.00000000000E+00 0.  1.
          2    1    6    6  503    0 -0.19390715128E+03  0.77437633337E+02 -0.23184924590E+04  0.23278753946E+04  0.00000000000E+00 0. -1.
         -2    1    6    6    0  503 -0.45848333398E+02  0.23007669024E+01 -0.21805227042E+03  0.22283212479E+03  0.00000000000E+00 0.  1.
<mgrwt>
<rscale>  0 0.14724274E+04</rscale>
<asrwt>0</asrwt>
<pdfrwt beam="1">  1        2 0.50055383E+00 0.14724274E+04</pdfrwt>
<pdfrwt beam="2">  1       -1 0.25628918E-01 0.14724274E+04</pdfrwt>
<totfact> 0.17891856E+01</totfact>
</mgrwt>
</event>
<event>
12    7  0.1544987E-007  0.2255079E+04  0.7818608E-02  0.8495846E-01
         -1   -1    0    0    0  501 -0.00000000000E+00  0.00000000000E+00  0.55769242326E+03  0.55769242326E+03  0.00000000000E+00 0.  1.
          2   -1    0    0  501    0  0.00000000000E+00 -0.00000000000E+00 -0.22796529554E+04  0.22796529554E+04  0.00000000000E+00 0. -1.
         24    2    1    2    0    0 -0.84055974775E+03  0.32800800604E+03 -0.37231120070E+03  0.97951421496E+03  0.81868953614E+02 0.  0.
        254    2    1    2    0    0  0.84055974775E+03 -0.32800800604E+03 -0.13496493315E+04  0.18578311637E+04  0.90324602045E+03 0.  0.
         23    2    4    4    0    0  0.56883851147E+03  0.49941427341E+02 -0.19511267800E+03  0.60958908375E+03  0.86362582252E+02 0.  0.
         23    2    4    4    0    0  0.27172123628E+03 -0.37794943338E+03 -0.11545366535E+04  0.12482420800E+04  0.92060858174E+02 0.  0.
          2    1    3    3  502    0 -0.41118212274E+03  0.14404857215E+03 -0.22074525757E+03  0.48841498537E+03  0.00000000000E+00 0. -1.
         -1    1    3    3    0  502 -0.42937762501E+03  0.18395943389E+03 -0.15156594314E+03  0.49109922958E+03  0.00000000000E+00 0.  1.
         13    1    5    5    0    0  0.43322366897E+03  0.69032645572E+02 -0.12741264961E+03  0.45681750929E+03  0.00000000000E+00 0.  1.
        -13    1    5    5    0    0  0.13561484250E+03 -0.19091218230E+02 -0.67700028384E+02  0.15277157446E+03  0.00000000000E+00 0. -1.
          4    1    6    6  503    0  0.13488427860E+03 -0.11654977220E+03 -0.47838145893E+03  0.51051585505E+03  0.00000000000E+00 0. -1.
         -4    1    6    6    0  503  0.13683695768E+03 -0.26139966117E+03 -0.67615519454E+03  0.73772622493E+03  0.00000000000E+00 0.  1.
<mgrwt>
<rscale>  0 0.22550789E+04</rscale>
<asrwt>0</asrwt>
<pdfrwt beam="1">  1        2 0.35071584E+00 0.22550789E+04</pdfrwt>
<pdfrwt beam="2">  1       -1 0.85798834E-01 0.22550789E+04</pdfrwt>
<totfact> 0.64664964E+00</totfact>
</mgrwt>
</event>
<event>
12    7  0.1544987E-007  0.1692118E+04  0.7818608E-02  0.8765872E-01
         -1   -1    0    0    0  501 -0.00000000000E+00  0.00000000000E+00  0.33579627488E+03  0.33579627488E+03  0.00000000000E+00 0.  1.
          2   -1    0    0  501    0  0.00000000000E+00 -0.00000000000E+00 -0.21316972752E+04  0.21316972752E+04  0.00000000000E+00 0. -1.
         24    2    1    2    0    0 -0.48031754527E+03 -0.17801782296E+03 -0.11211938494E+04  0.12353839379E+04  0.81869020428E+02 0.  0.
        254    2    1    2    0    0  0.48031754527E+03  0.17801782296E+03 -0.67470715090E+03  0.12321096122E+04  0.89468936917E+03 0.  0.
         23    2    4    4    0    0  0.18262155862E+03  0.22718848347E+03  0.15703206159E+03  0.34271705098E+03  0.88491061521E+02 0.  0.
         23    2    4    4    0    0  0.29769598665E+03 -0.49170660510E+02 -0.83173921249E+03  0.88939256118E+03  0.90489535119E+02 0.  0.
          2    1    3    3  502    0 -0.41533202396E+03 -0.15527609280E+03 -0.89293589212E+03  0.99696833578E+03  0.00000000000E+00 0. -1.
         -1    1    3    3    0  502 -0.64985521310E+02 -0.22741730158E+02 -0.22825795728E+03  0.23841560212E+03  0.00000000000E+00 0.  1.
         13    1    5    5    0    0  0.84384730948E+02  0.58035611647E+02  0.21242295632E+02  0.10459517274E+03  0.00000000000E+00 0.  1.
        -13    1    5    5    0    0  0.98236827672E+02  0.16915287182E+03  0.13578976596E+03  0.23812187824E+03  0.00000000000E+00 0. -1.
          3    1    6    6  503    0  0.27647556794E+03 -0.29578369990E+02 -0.67520217421E+03  0.73021339052E+03  0.00000000000E+00 0. -1.
         -3    1    6    6    0  503  0.21220418709E+02 -0.19592290520E+02 -0.15653703828E+03  0.15917917066E+03  0.00000000000E+00 0.  1.
<mgrwt>
<rscale>  0 0.16921182E+04</rscale>
<asrwt>0</asrwt>
<pdfrwt beam="1">  1        2 0.32795342E+00 0.16921182E+04</pdfrwt>
<pdfrwt beam="2">  1       -1 0.51660966E-01 0.16921182E+04</pdfrwt>
<totfact> 0.23071678E+01</totfact>
</mgrwt>
</event>
<event>
12    7  0.2057058E-007  0.1579235E+04  0.7818608E-02  0.8833407E-01
         -1   -1    0    0    0  501 -0.00000000000E+00  0.00000000000E+00  0.39153208480E+03  0.39153208480E+03  0.00000000000E+00 0.  1.
          2   -1    0    0  501    0  0.00000000000E+00 -0.00000000000E+00 -0.15924522502E+04  0.15924522502E+04  0.00000000000E+00 0. -1.
         24    2    1    2    0    0 -0.43053990045E+03  0.36258668114E+02 -0.25266299060E+02  0.44100425991E+03  0.84658576036E+02 0.  0.
        254    2    1    2    0    0  0.43053990045E+03 -0.36258668114E+02 -0.11756538663E+04  0.15429800751E+04  0.90108057453E+03 0.  0.
         23    2    4    4    0    0  0.23189270154E+03  0.40066188153E+03 -0.36453522815E+03  0.59601342594E+03  0.89676658093E+02 0.  0.
         23    2    4    4    0    0  0.19864719891E+03 -0.43692054964E+03 -0.81111863816E+03  0.94696664912E+03  0.92044082085E+02 0.  0.
          4    1    3    3  502    0 -0.19725243225E+02  0.19989916659E+02  0.58695560001E+01  0.28690306307E+02  0.00000000000E+00 0. -1.
         -3    1    3    3    0  502 -0.41081465722E+03  0.16268751455E+02 -0.31135855060E+02  0.41231395360E+03  0.00000000000E+00 0.  1.
         13    1    5    5    0    0  0.20292139094E+03  0.36622914296E+03 -0.35732898710E+03  0.55044062448E+03  0.00000000000E+00 0. -1.
        -13    1    5    5    0    0  0.28971310606E+02  0.34432738564E+02 -0.72062410469E+01  0.45572801464E+02  0.00000000000E+00 0.  1.
          3    1    6    6  503    0  0.16573944590E+03 -0.37340878588E+03 -0.61611308092E+03  0.73925571609E+03  0.00000000000E+00 0. -1.
         -3    1    6    6    0  503  0.32907753008E+02 -0.63511763761E+02 -0.19500555724E+03  0.20771093303E+03  0.00000000000E+00 0.  1.
<mgrwt>
<rscale>  0 0.15792354E+04</rscale>
<asrwt>0</asrwt>
<pdfrwt beam="1">  1        2 0.24499266E+00 0.15792354E+04</pdfrwt>
<pdfrwt beam="2">  1       -1 0.60235705E-01 0.15792354E+04</pdfrwt>
<totfact> 0.34437041E+01</totfact>
</mgrwt>
</event>
<event>
12    7  0.1544987E-007  0.1624795E+04  0.7818608E-02  0.8805459E-01
         -1   -1    0    0    0  501 -0.00000000000E+00  0.00000000000E+00  0.25436060804E+03  0.25436060804E+03  0.00000000000E+00 0.  1.
          2   -1    0    0  501    0  0.00000000000E+00 -0.00000000000E+00 -0.25947011619E+04  0.25947011619E+04  0.00000000000E+00 0. -1.
         24    2    1    2    0    0  0.15258536740E+03 -0.28454875976E+03 -0.16169447432E+04  0.16506333813E+04  0.76354213578E+02 0.  0.
        254    2    1    2    0    0 -0.15258536740E+03  0.28454875976E+03 -0.72339581067E+03  0.11984283886E+04  0.89926570754E+03 0.  0.
         23    2    4    4    0    0  0.29718135711E+03  0.13896239761E+03 -0.13545091992E+02  0.34078073440E+03  0.91218048969E+02 0.  0.
         23    2    4    4    0    0 -0.44976672451E+03  0.14558636215E+03 -0.70985071868E+03  0.85764765423E+03  0.90476299009E+02 0.  0.
          2    1    3    3  502    0  0.15115696528E+03 -0.28901462184E+03 -0.15742434156E+04  0.16076754061E+04  0.00000000000E+00 0. -1.
         -1    1    3    3    0  502  0.14284021253E+01  0.44658620847E+01 -0.42701327531E+02  0.42957975159E+02  0.00000000000E+00 0.  1.
         13    1    5    5    0    0  0.57436803007E+02  0.67361311106E+02 -0.18882169161E+02  0.90515572614E+02  0.00000000000E+00 0.  1.
        -13    1    5    5    0    0  0.23974455410E+03  0.71601086504E+02  0.53370771686E+01  0.25026516178E+03  0.00000000000E+00 0. -1.
          2    1    6    6  503    0 -0.41521145801E+03  0.14979714794E+03 -0.61823111342E+03  0.75963770970E+03  0.00000000000E+00 0. -1.
         -2    1    6    6    0  503 -0.34555266498E+02 -0.42107857930E+01 -0.91619605262E+02  0.98009944536E+02  0.00000000000E+00 0.  1.
<mgrwt>
<rscale>  0 0.16247951E+04</rscale>
<asrwt>0</asrwt>
<pdfrwt beam="1">  1        2 0.39918479E+00 0.16247951E+04</pdfrwt>
<pdfrwt beam="2">  1       -1 0.39132401E-01 0.16247951E+04</pdfrwt>
<totfact> 0.21235503E+01</totfact>
</mgrwt>
</event>
<event>
12    7  0.1544987E-007  0.2071663E+04  0.7818608E-02  0.8573830E-01
         -1   -1    0    0    0  501 -0.00000000000E+00  0.00000000000E+00  0.14517094917E+04  0.14517094917E+04  0.00000000000E+00 0.  1.
          2   -1    0    0  501    0  0.00000000000E+00 -0.00000000000E+00 -0.73909189795E+03  0.73909189795E+03  0.00000000000E+00 0. -1.
         24    2    1    2    0    0 -0.18128830132E+03 -0.86360560582E+02 -0.56895502765E+03  0.60955165880E+03  0.86716818655E+02 0.  0.
        254    2    1    2    0    0  0.18128830132E+03  0.86360560582E+02  0.12815726214E+04  0.15812497309E+04  0.90421166369E+03 0.  0.
         23    2    4    4    0    0  0.52160339124E+03 -0.74587459160E+02  0.66417579259E+03  0.85229231890E+03  0.87403241211E+02 0.  0.
         23    2    4    4    0    0 -0.34031508992E+03  0.16094801974E+03  0.61739682883E+03  0.72895741196E+03  0.92094726861E+02 0.  0.
          4    1    3    3  502    0 -0.99980880748E+02 -0.43835740203E+02 -0.42534667517E+03  0.43913271651E+03  0.00000000000E+00 0. -1.
         -3    1    3    3    0  502 -0.81307420567E+02 -0.42524820379E+02 -0.14360835248E+03  0.17041894229E+03  0.00000000000E+00 0.  1.
         13    1    5    5    0    0  0.94598929322E+02  0.45746717511E+01  0.16841316792E+03  0.19321718397E+03  0.00000000000E+00 0.  1.
        -13    1    5    5    0    0  0.42700446191E+03 -0.79162130911E+02  0.49576262467E+03  0.65907513493E+03  0.00000000000E+00 0. -1.
          2    1    6    6  503    0 -0.33006623857E+03  0.15462118144E+03  0.61734321754E+03  0.71691288162E+03  0.00000000000E+00 0. -1.
         -2    1    6    6    0  503 -0.10248851356E+02  0.63268383058E+01  0.53611295299E-01  0.12044530346E+02  0.00000000000E+00 0.  1.
<mgrwt>
<rscale>  0 0.20716628E+04</rscale>
<asrwt>0</asrwt>
<pdfrwt beam="1">  1        2 0.11370645E+00 0.20716628E+04</pdfrwt>
<pdfrwt beam="2">  1       -1 0.22333992E+00 0.20716628E+04</pdfrwt>
<totfact> 0.42112555E+00</totfact>
</mgrwt>
</event>
<event>
12    7  0.1544987E-007  0.1919678E+04  0.7818608E-02  0.8645123E-01
          2   -1    0    0  501    0  0.00000000000E+00  0.00000000000E+00  0.20177702767E+04  0.20177702767E+04  0.00000000000E+00 0. -1.
         -1   -1    0    0    0  501 -0.00000000000E+00 -0.00000000000E+00 -0.45658868499E+03  0.45658868499E+03  0.00000000000E+00 0.  1.
         24    2    1    2    0    0 -0.46475936398E+03 -0.57256047585E+03  0.45056763092E+03  0.86778474134E+03  0.78818794389E+02 0.  0.
        254    2    1    2    0    0  0.46475936398E+03  0.57256047585E+03  0.11106139608E+04  0.16065742204E+04  0.89654369146E+03 0.  0.
         23    2    4    4    0    0 -0.23129841523E+03 -0.69846374865E+01  0.21517428049E+03  0.32950793318E+03  0.93422507959E+02 0.  0.
         23    2    4    4    0    0  0.69605777922E+03  0.57954511334E+03  0.89543968029E+03  0.12770662872E+04  0.93365466824E+02 0.  0.
          2    1    3    3  502    0 -0.11019314257E+03 -0.10891559117E+03  0.12754501997E+03  0.20068100754E+03  0.00000000000E+00 0. -1.
         -1    1    3    3    0  502 -0.35456622141E+03 -0.46364488468E+03  0.32302261095E+03  0.66710373380E+03  0.00000000000E+00 0.  1.
         13    1    5    5    0    0 -0.50882651590E+02  0.27598252995E+02  0.19416203235E+02  0.61054866712E+02  0.00000000000E+00 0.  1.
        -13    1    5    5    0    0 -0.18041576364E+03 -0.34582890481E+02  0.19575807725E+03  0.26845306647E+03  0.00000000000E+00 0. -1.
          4    1    6    6  503    0  0.43379566530E+03  0.38418976650E+03  0.51348552721E+03  0.77424017112E+03  0.00000000000E+00 0. -1.
         -4    1    6    6    0  503  0.26226211392E+03  0.19535534684E+03  0.38195415308E+03  0.50282611606E+03  0.00000000000E+00 0.  1.
<mgrwt>
<rscale>  0 0.19196782E+04</rscale>
<asrwt>0</asrwt>
<pdfrwt beam="1">  1        2 0.31042619E+00 0.19196782E+04</pdfrwt>
<pdfrwt beam="2">  1       -1 0.70244414E-01 0.19196782E+04</pdfrwt>
<totfact> 0.14243937E+01</totfact>
</mgrwt>
</event>
<event>
12    7  0.1544987E-007  0.1260641E+04  0.7818608E-02  0.9061373E-01
         -1   -1    0    0    0  501 -0.00000000000E+00  0.00000000000E+00  0.27842036264E+03  0.27842036264E+03  0.00000000000E+00 0.  1.
          2   -1    0    0  501    0  0.00000000000E+00 -0.00000000000E+00 -0.14269940235E+04  0.14269940235E+04  0.00000000000E+00 0. -1.
         24    2    1    2    0    0  0.26789706409E+03  0.12919429785E+03 -0.29626104122E+03  0.42743627407E+03  0.80443522441E+02 0.  0.
        254    2    1    2    0    0 -0.26789706409E+03 -0.12919429785E+03 -0.85231261968E+03  0.12779781121E+04  0.90461663141E+03 0.  0.
         23    2    4    4    0    0  0.30164641485E+03 -0.72802941961E+01 -0.49813040997E+03  0.59035811406E+03  0.96670756807E+02 0.  0.
         23    2    4    4    0    0 -0.56954347894E+03 -0.12191400365E+03 -0.35418220971E+03  0.68761999806E+03  0.90185505282E+02 0.  0.
          2    1    3    3  502    0  0.18679148445E+03  0.88291118695E+02 -0.25352459261E+03  0.32704907791E+03  0.00000000000E+00 0. -1.
         -1    1    3    3    0  502  0.81105579640E+02  0.40903179150E+02 -0.42736448612E+02  0.10038719616E+03  0.00000000000E+00 0.  1.
         13    1    5    5    0    0  0.30628964062E+03  0.17520941582E+01 -0.47635405857E+03  0.56632994173E+03  0.00000000000E+00 0.  1.
        -13    1    5    5    0    0 -0.46432257735E+01 -0.90323883543E+01 -0.21776351405E+02  0.24028172329E+02  0.00000000000E+00 0. -1.
          2    1    6    6  503    0 -0.33187015549E+03 -0.10109961821E+03 -0.17073960565E+03  0.38666645296E+03  0.00000000000E+00 0. -1.
         -2    1    6    6    0  503 -0.23767332345E+03 -0.20814385435E+02 -0.18344260406E+03  0.30095354510E+03  0.00000000000E+00 0.  1.
<mgrwt>
<rscale>  0 0.12606414E+04</rscale>
<asrwt>0</asrwt>
<pdfrwt beam="1">  1        2 0.21953754E+00 0.12606414E+04</pdfrwt>
<pdfrwt beam="2">  1       -1 0.42833902E-01 0.12606414E+04</pdfrwt>
<totfact> 0.83936642E+01</totfact>
</mgrwt>
</event>
<event>
12    7  0.1544987E-007  0.2555669E+04  0.7818608E-02  0.8383417E-01
          2   -1    0    0  501    0  0.00000000000E+00  0.00000000000E+00  0.15165062835E+04  0.15165062835E+04  0.00000000000E+00 0. -1.
         -1   -1    0    0    0  501 -0.00000000000E+00 -0.00000000000E+00 -0.10767259265E+04  0.10767259265E+04  0.00000000000E+00 0.  1.
         24    2    1    2    0    0 -0.10715791358E+03  0.41244390915E+03  0.12410716828E+04  0.13145641477E+04  0.78912483480E+02 0.  0.
        254    2    1    2    0    0  0.10715791358E+03 -0.41244390915E+03 -0.80129132578E+03  0.12786680623E+04  0.90073937858E+03 0.  0.
         23    2    4    4    0    0 -0.36207443977E+03 -0.24934972725E+02 -0.38180429357E+03  0.53425157054E+03  0.89053743545E+02 0.  0.
         23    2    4    4    0    0  0.46923235335E+03 -0.38750893643E+03 -0.41948703221E+03  0.74441649176E+03  0.88568424198E+02 0.  0.
          2    1    3    3  502    0 -0.19825029274E+02  0.23194262074E+03  0.67892546755E+03  0.71772571473E+03  0.00000000000E+00 0. -1.
         -1    1    3    3    0  502 -0.87332884310E+02  0.18050128841E+03  0.56214621525E+03  0.59683843301E+03  0.00000000000E+00 0.  1.
         13    1    5    5    0    0 -0.16122408837E+03 -0.55550562875E+02 -0.17506326513E+03  0.24438948117E+03  0.00000000000E+00 0. -1.
        -13    1    5    5    0    0 -0.20085035140E+03  0.30615590150E+02 -0.20674102844E+03  0.28986208938E+03  0.00000000000E+00 0.  1.
          3    1    6    6  503    0  0.42530816583E+03 -0.31685763562E+03 -0.37921654976E+03  0.65199002200E+03  0.00000000000E+00 0. -1.
         -3    1    6    6    0  503  0.43924187518E+02 -0.70651300811E+02 -0.40270482451E+02  0.92426469760E+02  0.00000000000E+00 0.  1.
<mgrwt>
<rscale>  0 0.25556695E+04</rscale>
<asrwt>0</asrwt>
<pdfrwt beam="1">  1        2 0.23330866E+00 0.25556695E+04</pdfrwt>
<pdfrwt beam="2">  1       -1 0.16565014E+00 0.25556695E+04</pdfrwt>
<totfact> 0.33293292E+00</totfact>
</mgrwt>
</event>
<event>
12    7  0.1544987E-007  0.2975464E+04  0.7818608E-02  0.8250772E-01
         -1   -1    0    0    0  501 -0.00000000000E+00  0.00000000000E+00  0.52409468957E+03  0.52409468957E+03  0.00000000000E+00 0.  1.
          2   -1    0    0  501    0  0.00000000000E+00 -0.00000000000E+00 -0.42231792370E+04  0.42231792370E+04  0.00000000000E+00 0. -1.
         24    2    1    2    0    0 -0.85586003538E+03  0.69289517926E+03 -0.29109613220E+04  0.31132269941E+04  0.76722677676E+02 0.  0.
        254    2    1    2    0    0  0.85586003538E+03 -0.69289517926E+03 -0.78812322547E+03  0.16340469325E+04  0.91453323032E+03 0.  0.
         23    2    4    4    0    0  0.10398561384E+04 -0.60466451376E+03 -0.68733426222E+03  0.13882012858E+04  0.88059406625E+02 0.  0.
         23    2    4    4    0    0 -0.18399610302E+03 -0.88230665497E+02 -0.10078896325E+03  0.24584564667E+03  0.92964781569E+02 0.  0.
          4    1    3    3  502    0 -0.76193164787E+03  0.59356844437E+03 -0.24976633943E+04  0.26779069747E+04  0.00000000000E+00 0. -1.
         -3    1    3    3    0  502 -0.93928387516E+02  0.99326734893E+02 -0.41329792769E+03  0.43532001939E+03  0.00000000000E+00 0.  1.
         13    1    5    5    0    0  0.86461596224E+03 -0.46327712639E+03 -0.56229457008E+03  0.11306465591E+04  0.00000000000E+00 0. -1.
        -13    1    5    5    0    0  0.17524017616E+03 -0.14138738737E+03 -0.12503969213E+03  0.25755472672E+03  0.00000000000E+00 0.  1.
          2    1    6    6  503    0 -0.58126474414E+02 -0.73633233988E+02 -0.65153132265E+02  0.11421677118E+03  0.00000000000E+00 0. -1.
         -2    1    6    6    0  503 -0.12586962860E+03 -0.14597431508E+02 -0.35635830987E+02  0.13162887548E+03  0.00000000000E+00 0.  1.
<mgrwt>
<rscale>  0 0.29754635E+04</rscale>
<asrwt>0</asrwt>
<pdfrwt beam="1">  1        2 0.64971987E+00 0.29754635E+04</pdfrwt>
<pdfrwt beam="2">  1       -1 0.80629953E-01 0.29754635E+04</pdfrwt>
<totfact> 0.33166967E-01</totfact>
</mgrwt>
</event>
<event>
12    7  0.1544987E-007  0.2052852E+04  0.7818608E-02  0.8582302E-01
          2   -1    0    0  501    0  0.00000000000E+00  0.00000000000E+00  0.17979434137E+04  0.17979434137E+04  0.00000000000E+00 0. -1.
         -1   -1    0    0    0  501 -0.00000000000E+00 -0.00000000000E+00 -0.58597522109E+03  0.58597522109E+03  0.00000000000E+00 0.  1.
         24    2    1    2    0    0  0.73035451828E+03  0.36815765125E+03  0.36478706845E+03  0.89892644449E+03  0.77726242352E+02 0.  0.
        254    2    1    2    0    0 -0.73035451828E+03 -0.36815765125E+03  0.84718112413E+03  0.14849921903E+04  0.90472546636E+03 0.  0.
         23    2    4    4    0    0 -0.53753851650E+03  0.21058850138E+03  0.54110553340E+03  0.79643641724E+03  0.90667495851E+02 0.  0.
         23    2    4    4    0    0 -0.19281600179E+03 -0.57874615263E+03  0.30607559073E+03  0.68855577301E+03  0.91113476367E+02 0.  0.
          2    1    3    3  502    0  0.71167581013E+03  0.35191498389E+03  0.33929274926E+03  0.86339225402E+03  0.00000000000E+00 0. -1.
         -1    1    3    3    0  502  0.18678708155E+02  0.16242667366E+02  0.25494319191E+02  0.35534190472E+02  0.00000000000E+00 0.  1.
         13    1    5    5    0    0 -0.39911239023E+03  0.11817702278E+03  0.35830777536E+03  0.54921850900E+03  0.00000000000E+00 0.  1.
        -13    1    5    5    0    0 -0.13842612627E+03  0.92411478595E+02  0.18279775804E+03  0.24721790824E+03  0.00000000000E+00 0. -1.
          1    1    6    6  503    0 -0.27867130965E+02 -0.20273191602E+02  0.17604951685E+02  0.38697720989E+02  0.00000000000E+00 0. -1.
         -1    1    6    6    0  503 -0.16494887082E+03 -0.55847296103E+03  0.28847063904E+03  0.64985805202E+03  0.00000000000E+00 0.  1.
<mgrwt>
<rscale>  0 0.20528520E+04</rscale>
<asrwt>0</asrwt>
<pdfrwt beam="1">  1        2 0.27660668E+00 0.20528520E+04</pdfrwt>
<pdfrwt beam="2">  1       -1 0.90150035E-01 0.20528520E+04</pdfrwt>
<totfact> 0.10967936E+01</totfact>
</mgrwt>
</event>
<event>
12    7  0.1544987E-007  0.2883249E+04  0.7818608E-02  0.8277879E-01
          2   -1    0    0  501    0  0.00000000000E+00  0.00000000000E+00  0.35313793962E+04  0.35313793962E+04  0.00000000000E+00 0. -1.
         -1   -1    0    0    0  501 -0.00000000000E+00 -0.00000000000E+00 -0.58851826433E+03  0.58851826433E+03  0.00000000000E+00 0.  1.
         24    2    1    2    0    0 -0.83639722044E+02 -0.34167381372E+03  0.31185104655E+04  0.31393054107E+04  0.79964618380E+02 0.  0.
        254    2    1    2    0    0  0.83639722044E+02  0.34167381372E+03 -0.17564933367E+03  0.98059224979E+03  0.89831613246E+03 0.  0.
         23    2    4    4    0    0  0.45277102816E+03  0.10317512890E+03 -0.23218666256E+03  0.52791632115E+03  0.95594375907E+02 0.  0.
         23    2    4    4    0    0 -0.36913130612E+03  0.23849868482E+03  0.56537328895E+02  0.45267592863E+03  0.92625498593E+02 0.  0.
          4    1    3    3  502    0 -0.21367474796E+02 -0.22573926088E+03  0.21417281294E+04  0.21536977882E+04  0.00000000000E+00 0. -1.
         -3    1    3    3    0  502 -0.62272247247E+02 -0.11593455284E+03  0.97678233616E+03  0.98560762252E+03  0.00000000000E+00 0.  1.
         13    1    5    5    0    0  0.40079981221E+03  0.57538705031E+02 -0.20077421629E+03  0.45195295991E+03  0.00000000000E+00 0. -1.
        -13    1    5    5    0    0  0.51971215948E+02  0.45636423868E+02 -0.31412446276E+02  0.75963361245E+02  0.00000000000E+00 0.  1.
          3    1    6    6  503    0 -0.18219388304E+03  0.17227953823E+03  0.27789554153E+02  0.25228378788E+03  0.00000000000E+00 0. -1.
         -3    1    6    6    0  503 -0.18693742307E+03  0.66219146592E+02  0.28747774742E+02  0.20039214075E+03  0.00000000000E+00 0.  1.
<mgrwt>
<rscale>  0 0.28832491E+04</rscale>
<asrwt>0</asrwt>
<pdfrwt beam="1">  1        2 0.54328913E+00 0.28832491E+04</pdfrwt>
<pdfrwt beam="2">  1       -1 0.90541273E-01 0.28832491E+04</pdfrwt>
<totfact> 0.90414335E-01</totfact>
</mgrwt>
</event>
<event>
12    7  0.1544987E-007  0.1085467E+04  0.7818608E-02  0.9219473E-01
          2   -1    0    0  501    0  0.00000000000E+00  0.00000000000E+00  0.63750122516E+03  0.63750122516E+03  0.00000000000E+00 0. -1.
         -1   -1    0    0    0  501 -0.00000000000E+00 -0.00000000000E+00 -0.46205383180E+03  0.46205383180E+03  0.00000000000E+00 0.  1.
         24    2    1    2    0    0 -0.38501281731E+00  0.11345441001E+03 -0.63973070091E+02  0.15281992880E+03  0.79933256888E+02 0.  0.
        254    2    1    2    0    0  0.38501281731E+00 -0.11345441001E+03  0.23942046345E+03  0.94673512817E+03  0.90890769235E+03 0.  0.
         23    2    4    4    0    0 -0.10799089931E+02 -0.46870899801E+03 -0.50612246450E+02  0.48044558228E+03  0.91987025587E+02 0.  0.
         23    2    4    4    0    0  0.11184102749E+02  0.35525458801E+03  0.29003270990E+03  0.46628954589E+03  0.83522819285E+02 0.  0.
          2    1    3    3  502    0 -0.24831313555E+02  0.43424211108E+02  0.65758627606E+01  0.50452930680E+02  0.00000000000E+00 0. -1.
         -1    1    3    3    0  502  0.24446300737E+02  0.70030198898E+02 -0.70548932851E+02  0.10236699812E+03  0.00000000000E+00 0.  1.
         13    1    5    5    0    0 -0.50208567203E+02 -0.30605737320E+03 -0.25215977678E+02  0.31117175553E+03  0.00000000000E+00 0.  1.
        -13    1    5    5    0    0  0.39409477271E+02 -0.16265162481E+03 -0.25396268772E+02  0.16927382674E+03  0.00000000000E+00 0. -1.
          4    1    6    6  503    0  0.19321838768E+02  0.17822778275E+02  0.32094206521E+02  0.41485213885E+02  0.00000000000E+00 0.  1.
         -4    1    6    6    0  503 -0.81377360194E+01  0.33743180973E+03  0.25793850338E+03  0.42480433201E+03  0.00000000000E+00 0. -1.
<mgrwt>
<rscale>  0 0.10854674E+04</rscale>
<asrwt>0</asrwt>
<pdfrwt beam="1">  1        2 0.98077111E-01 0.10854674E+04</pdfrwt>
<pdfrwt beam="2">  1       -1 0.71085205E-01 0.10854674E+04</pdfrwt>
<totfact> 0.10455553E+02</totfact>
</mgrwt>
</event>
<event>
12    7  0.1544987E-007  0.1728872E+04  0.7818608E-02  0.8745067E-01
         -1   -1    0    0    0  501 -0.00000000000E+00  0.00000000000E+00  0.40988300227E+03  0.40988300227E+03  0.00000000000E+00 0.  1.
          2   -1    0    0  501    0  0.00000000000E+00 -0.00000000000E+00 -0.18230811289E+04  0.18230811289E+04  0.00000000000E+00 0. -1.
         24    2    1    2    0    0 -0.53999024704E+03  0.30909874019E+03 -0.60076578788E+03  0.86955272686E+03  0.89838270344E+02 0.  0.
        254    2    1    2    0    0  0.53999024704E+03 -0.30909874019E+03 -0.81243233873E+03  0.13634114043E+04  0.90095108316E+03 0.  0.
         23    2    4    4    0    0  0.24417061546E+03  0.30448958151E+03 -0.37485595813E+03  0.54866549109E+03  0.90463457070E+02 0.  0.
         23    2    4    4    0    0  0.29581963158E+03 -0.61358832170E+03 -0.43757638060E+03  0.81474591320E+03  0.91312273283E+02 0.  0.
          4    1    3    3  502    0 -0.49910752002E+03  0.29058077351E+03 -0.58481622166E+03  0.82192184276E+03  0.00000000000E+00 0. -1.
         -3    1    3    3    0  502 -0.40882727016E+02  0.18517966680E+02 -0.15949566220E+02  0.47630884107E+02  0.00000000000E+00 0.  1.
         13    1    5    5    0    0  0.55268904970E+02  0.21047947392E+02 -0.43084115067E+02  0.73170410120E+02  0.00000000000E+00 0.  1.
        -13    1    5    5    0    0  0.18890171049E+03  0.28344163412E+03 -0.33177184306E+03  0.47549508097E+03  0.00000000000E+00 0. -1.
          1    1    6    6  503    0  0.19371956224E+03 -0.46488671796E+03 -0.35615749365E+03  0.61684284029E+03  0.00000000000E+00 0. -1.
         -1    1    6    6    0  503  0.10210006934E+03 -0.14870160374E+03 -0.81418886953E+02  0.19790307291E+03  0.00000000000E+00 0.  1.
<mgrwt>
<rscale>  0 0.17288724E+04</rscale>
<asrwt>0</asrwt>
<pdfrwt beam="1">  1        2 0.28047402E+00 0.17288724E+04</pdfrwt>
<pdfrwt beam="2">  1       -1 0.63058923E-01 0.17288724E+04</pdfrwt>
<totfact> 0.23107877E+01</totfact>
</mgrwt>
</event>
<event>
12    7  0.1544987E-007  0.1676199E+04  0.7818608E-02  0.8775057E-01
         -1   -1    0    0    0  501 -0.00000000000E+00  0.00000000000E+00  0.45440683685E+03  0.45440683685E+03  0.00000000000E+00 0.  1.
          2   -1    0    0  501    0  0.00000000000E+00 -0.00000000000E+00 -0.15457743884E+04  0.15457743884E+04  0.00000000000E+00 0. -1.
         24    2    1    2    0    0  0.59109087443E+03 -0.24927435424E+03 -0.22443349273E+03  0.68398940488E+03  0.77103747059E+02 0.  0.
        254    2    1    2    0    0 -0.59109087443E+03  0.24927435424E+03 -0.86693405883E+03  0.13161918204E+04  0.75449328705E+03 0.  0.
         23    2    4    4    0    0 -0.14791061155E+03 -0.13691940896E+03 -0.64420568769E+03  0.68104900660E+03  0.90566593102E+02 0.  0.
         23    2    4    4    0    0 -0.44318026287E+03  0.38619376319E+03 -0.22272837115E+03  0.63514281380E+03  0.90797017963E+02 0.  0.
          2    1    3    3  502    0  0.18159363996E+03 -0.76778430505E+02 -0.31886274202E+02  0.19971958328E+03  0.00000000000E+00 0. -1.
         -1    1    3    3    0  502  0.40949723447E+03 -0.17249592373E+03 -0.19254721853E+03  0.48426982159E+03  0.00000000000E+00 0.  1.
         13    1    5    5    0    0 -0.18689835763E+02  0.86615494126E+01 -0.12231770549E+03  0.12404012849E+03  0.00000000000E+00 0.  1.
        -13    1    5    5    0    0 -0.12922077579E+03 -0.14558095837E+03 -0.52188798219E+03  0.55700887811E+03  0.00000000000E+00 0. -1.
          4    1    6    6  503    0 -0.17459082493E+03  0.18770968949E+03 -0.13553897699E+03  0.28997878881E+03  0.00000000000E+00 0. -1.
         -4    1    6    6    0  503 -0.26858943794E+03  0.19848407370E+03 -0.87189394161E+02  0.34516402498E+03  0.00000000000E+00 0.  1.
<mgrwt>
<rscale>  0 0.16761986E+04</rscale>
<asrwt>0</asrwt>
<pdfrwt beam="1">  1        2 0.23781145E+00 0.16761986E+04</pdfrwt>
<pdfrwt beam="2">  1       -1 0.69908744E-01 0.16761986E+04</pdfrwt>
<totfact> 0.26878448E+01</totfact>
</mgrwt>
</event>
<event>
12    7  0.1544987E-007  0.2349026E+04  0.7818608E-02  0.8458838E-01
          2   -1    0    0  501    0  0.00000000000E+00  0.00000000000E+00  0.29764593210E+04  0.29764593210E+04  0.00000000000E+00 0. -1.
         -1   -1    0    0    0  501 -0.00000000000E+00 -0.00000000000E+00 -0.46346368119E+03  0.46346368119E+03  0.00000000000E+00 0.  1.
         24    2    1    2    0    0  0.26072245967E+03  0.64707958231E+03  0.29887918129E+02  0.70353252324E+03  0.85886767249E+02 0.  0.
        254    2    1    2    0    0 -0.26072245967E+03 -0.64707958231E+03  0.24831077217E+04  0.27363904789E+04  0.91395881142E+03 0.  0.
         23    2    4    4    0    0  0.15345689334E+03 -0.78350533654E+02  0.15610711570E+04  0.15732212162E+04  0.91618849010E+02 0.  0.
         23    2    4    4    0    0 -0.41417935301E+03 -0.56872904866E+03  0.92203656462E+03  0.11631692627E+04  0.88397058947E+02 0.  0.
          4    1    3    3  502    0  0.35031637985E+01  0.66035836913E+02 -0.98553158798E+01  0.66859039512E+02  0.00000000000E+00 0. -1.
         -3    1    3    3    0  502  0.25721929587E+03  0.58104374540E+03  0.39743234009E+02  0.63667348373E+03  0.00000000000E+00 0.  1.
         13    1    5    5    0    0  0.15925135875E+03 -0.85202477229E+02  0.15361982966E+04  0.15467791258E+04  0.00000000000E+00 0.  1.
        -13    1    5    5    0    0 -0.57944654108E+01  0.68519435754E+01  0.24872860411E+02  0.26442090409E+02  0.00000000000E+00 0. -1.
          4    1    6    6  503    0 -0.41699497547E+02 -0.53839877909E+02  0.51630541363E+02  0.85459308155E+02  0.00000000000E+00 0. -1.
         -4    1    6    6    0  503 -0.37247985546E+03 -0.51488917075E+03  0.87040602326E+03  0.10777099546E+04  0.00000000000E+00 0.  1.
<mgrwt>
<rscale>  0 0.23490260E+04</rscale>
<asrwt>0</asrwt>
<pdfrwt beam="1">  1        2 0.45791681E+00 0.23490260E+04</pdfrwt>
<pdfrwt beam="2">  1       -1 0.71302107E-01 0.23490260E+04</pdfrwt>
<totfact> 0.36772811E+00</totfact>
</mgrwt>
</event>
<event>
12    7  0.1544987E-007  0.1489568E+04  0.7818608E-02  0.8891420E-01
          2   -1    0    0  501    0  0.00000000000E+00  0.00000000000E+00  0.18130269448E+04  0.18130269448E+04  0.00000000000E+00 0. -1.
         -1   -1    0    0    0  501 -0.00000000000E+00 -0.00000000000E+00 -0.30595440350E+03  0.30595440350E+03  0.00000000000E+00 0.  1.
         24    2    1    2    0    0 -0.41128953008E+01  0.29590730929E+03 -0.36506908063E+02  0.30760546732E+03  0.75566643373E+02 0.  0.
        254    2    1    2    0    0  0.41128953008E+01 -0.29590730929E+03  0.15435794494E+04  0.18113758810E+04  0.90048154567E+03 0.  0.
         23    2    4    4    0    0 -0.11027940837E+02 -0.84718007628E+02 -0.94741156139E+02  0.15690381059E+03  0.91346389168E+02 0.  0.
         23    2    4    4    0    0  0.15140836138E+02 -0.21118930167E+03  0.16383206055E+04  0.16544720704E+04  0.91396166417E+02 0.  0.
          2    1    3    3  502    0 -0.10300369206E+02  0.43319998567E+01  0.63185469803E+01  0.12836972559E+02  0.00000000000E+00 0. -1.
         -1    1    3    3    0  502  0.61874739056E+01  0.29157530944E+03 -0.42825455043E+02  0.29476849476E+03  0.00000000000E+00 0.  1.
         13    1    5    5    0    0 -0.26645002515E+02 -0.99770789233E+02 -0.75704669999E+02  0.12804438138E+03  0.00000000000E+00 0. -1.
        -13    1    5    5    0    0  0.15617061678E+02  0.15052781605E+02 -0.19036486140E+02  0.28859429206E+02  0.00000000000E+00 0.  1.
          2    1    6    6  503    0  0.16920945629E+02 -0.22048746027E+03  0.15743996969E+04  0.15898539066E+04  0.00000000000E+00 0. -1.
         -2    1    6    6    0  503 -0.17801094908E+01  0.92981586034E+01  0.63920908588E+02  0.64618163839E+02  0.00000000000E+00 0.  1.
<mgrwt>
<rscale>  0 0.14895685E+04</rscale>
<asrwt>0</asrwt>
<pdfrwt beam="1">  1        2 0.27892722E+00 0.14895685E+04</pdfrwt>
<pdfrwt beam="2">  1       -1 0.47069909E-01 0.14895685E+04</pdfrwt>
<totfact> 0.42075013E+01</totfact>
</mgrwt>
</event>
<event>
12    7  0.1544987E-007  0.1761837E+04  0.7818608E-02  0.8726862E-01
         -1   -1    0    0    0  501 -0.00000000000E+00  0.00000000000E+00  0.11573547967E+04  0.11573547967E+04  0.00000000000E+00 0.  1.
          2   -1    0    0  501    0  0.00000000000E+00 -0.00000000000E+00 -0.67050931430E+03  0.67050931430E+03  0.00000000000E+00 0. -1.
         24    2    1    2    0    0  0.47535410253E+03  0.25639006138E+03  0.57031660002E+03  0.78943519790E+03  0.79053912417E+02 0.  0.
        254    2    1    2    0    0 -0.47535410253E+03 -0.25639006138E+03 -0.83471117620E+02  0.10384289131E+04  0.88298912433E+03 0.  0.
         23    2    4    4    0    0  0.77607977755E+02 -0.42948977265E+03 -0.74977554968E+02  0.45178383142E+03  0.89456881027E+02 0.  0.
         23    2    4    4    0    0 -0.55296208028E+03  0.17309971127E+03 -0.84935626521E+01  0.58664508166E+03  0.91376906063E+02 0.  0.
          4    1    3    3  502    0  0.30903576091E+03  0.12489842443E+03  0.36503509203E+03  0.49432108629E+03  0.00000000000E+00 0. -1.
         -3    1    3    3    0  502  0.16631834162E+03  0.13149163695E+03  0.20528150799E+03  0.29511411161E+03  0.00000000000E+00 0.  1.
         13    1    5    5    0    0  0.54431947930E+02 -0.29379525328E+03 -0.93037304722E+02  0.31294476809E+03  0.00000000000E+00 0. -1.
        -13    1    5    5    0    0  0.23176029825E+02 -0.13569451937E+03  0.18059749754E+02  0.13883906333E+03  0.00000000000E+00 0.  1.
          3    1    6    6  503    0 -0.27984162498E+03  0.65662053960E+02  0.36406482488E+02  0.28973828254E+03  0.00000000000E+00 0. -1.
         -3    1    6    6    0  503 -0.27312045530E+03  0.10743765731E+03 -0.44900045140E+02  0.29690679912E+03  0.00000000000E+00 0.  1.
<mgrwt>
<rscale>  0 0.17618367E+04</rscale>
<asrwt>0</asrwt>
<pdfrwt beam="1">  1        2 0.10315528E+00 0.17618367E+04</pdfrwt>
<pdfrwt beam="2">  1       -1 0.17805458E+00 0.17618367E+04</pdfrwt>
<totfact> 0.10053431E+01</totfact>
</mgrwt>
</event>
<event>
12    7  0.1544987E-007  0.2099718E+04  0.7818608E-02  0.8561368E-01
         -1   -1    0    0    0  501 -0.00000000000E+00  0.00000000000E+00  0.88229812543E+03  0.88229812543E+03  0.00000000000E+00 0.  1.
          2   -1    0    0  501    0  0.00000000000E+00 -0.00000000000E+00 -0.12492422372E+04  0.12492422372E+04  0.00000000000E+00 0. -1.
         24    2    1    2    0    0  0.44437143903E+03 -0.41279323782E+03  0.45415704464E+03  0.76208011428E+03  0.81506112473E+02 0.  0.
        254    2    1    2    0    0 -0.44437143903E+03  0.41279323782E+03 -0.82110115639E+03  0.13694602483E+04  0.91288007413E+03 0.  0.
         23    2    4    4    0    0 -0.43468984265E+03 -0.17200879542E+03 -0.21582972384E+03  0.52263582914E+03  0.89573741679E+02 0.  0.
         23    2    4    4    0    0 -0.96815963791E+01  0.58480203324E+03 -0.60527143255E+03  0.84682441920E+03  0.93117874251E+02 0.  0.
          2    1    3    3  502    0  0.26017460989E+02 -0.13051953518E+02  0.44268821627E+02  0.52981037506E+02  0.00000000000E+00 0. -1.
         -1    1    3    3    0  502  0.41835397804E+03 -0.39974128430E+03  0.40988822301E+03  0.70909907677E+03  0.00000000000E+00 0.  1.
         13    1    5    5    0    0 -0.30065498783E+03 -0.10120634642E+03 -0.18726879159E+03  0.36838260894E+03  0.00000000000E+00 0. -1.
        -13    1    5    5    0    0 -0.13403485482E+03 -0.70802449003E+02 -0.28560932252E+02  0.15425322020E+03  0.00000000000E+00 0.  1.
          1    1    6    6  503    0 -0.26888825998E+02  0.54847358014E+03 -0.53994611979E+03  0.77012212626E+03  0.00000000000E+00 0. -1.
         -1    1    6    6    0  503  0.17207229619E+02  0.36328453101E+02 -0.65325312757E+02  0.76702292943E+02  0.00000000000E+00 0.  1.
<mgrwt>
<rscale>  0 0.20997182E+04</rscale>
<asrwt>0</asrwt>
<pdfrwt beam="1">  1        2 0.19219111E+00 0.20997182E+04</pdfrwt>
<pdfrwt beam="2">  1       -1 0.13573817E+00 0.20997182E+04</pdfrwt>
<totfact> 0.84496935E+00</totfact>
</mgrwt>
</event>
<event>
12    7  0.1544987E-007  0.1507017E+04  0.7818608E-02  0.8879800E-01
          2   -1    0    0  501    0  0.00000000000E+00  0.00000000000E+00  0.22346275167E+04  0.22346275167E+04  0.00000000000E+00 0. -1.
         -1   -1    0    0    0  501 -0.00000000000E+00 -0.00000000000E+00 -0.25408032700E+03  0.25408032700E+03  0.00000000000E+00 0.  1.
         24    2    1    2    0    0 -0.40834578792E+03 -0.45511538265E+02  0.10370943694E+04  0.11184017531E+04  0.80250655938E+02 0.  0.
        254    2    1    2    0    0  0.40834578792E+03  0.45511538265E+02  0.94345282031E+03  0.13703060906E+04  0.90488561435E+03 0.  0.
         23    2    4    4    0    0  0.63444245412E+03 -0.95320985093E+02  0.85968264562E+03  0.10766260586E+04  0.92011418360E+02 0.  0.
         23    2    4    4    0    0 -0.22609666620E+03  0.14083252336E+03  0.83770174692E+02  0.29368003195E+03  0.90978112190E+02 0.  0.
          4    1    3    3  502    0 -0.20014582074E+03 -0.95622864772E+01  0.60693935488E+03  0.63915973542E+03  0.00000000000E+00 0. -1.
         -3    1    3    3    0  502 -0.20819996718E+03 -0.35949251788E+02  0.43015501451E+03  0.47924201772E+03  0.00000000000E+00 0.  1.
         13    1    5    5    0    0  0.44031260008E+03 -0.66511872970E+02  0.66389267766E+03  0.79940759471E+03  0.00000000000E+00 0. -1.
        -13    1    5    5    0    0  0.19412985405E+03 -0.28809112123E+02  0.19578996796E+03  0.27721846390E+03  0.00000000000E+00 0.  1.
          3    1    6    6  503    0 -0.18502651165E+03  0.14589426608E+03  0.51463201424E+02  0.24118127620E+03  0.00000000000E+00 0. -1.
         -3    1    6    6    0  503 -0.41070154550E+02 -0.50617427185E+01  0.32306973268E+02  0.52498755755E+02  0.00000000000E+00 0.  1.
<mgrwt>
<rscale>  0 0.15070168E+04</rscale>
<asrwt>0</asrwt>
<pdfrwt beam="1">  1        2 0.34378884E+00 0.15070168E+04</pdfrwt>
<pdfrwt beam="2">  1       -1 0.39089283E-01 0.15070168E+04</pdfrwt>
<totfact> 0.34538510E+01</totfact>
</mgrwt>
</event>
<event>
12    7  0.1544987E-007  0.1439436E+04  0.7818608E-02  0.8925758E-01
          2   -1    0    0  501    0  0.00000000000E+00  0.00000000000E+00  0.24207760926E+04  0.24207760926E+04  0.00000000000E+00 0. -1.
         -1   -1    0    0    0  501 -0.00000000000E+00 -0.00000000000E+00 -0.21397836604E+03  0.21397836604E+03  0.00000000000E+00 0.  1.
         24    2    1    2    0    0 -0.16504440177E+03 -0.24463645363E+03  0.12562107110E+04  0.12928641236E+04  0.79659541882E+02 0.  0.
        254    2    1    2    0    0  0.16504440177E+03  0.24463645363E+03  0.95058701551E+03  0.13418903350E+04  0.89998185989E+03 0.  0.
         23    2    4    4    0    0 -0.12344405402E+03  0.10781789263E+03  0.99050391576E+03  0.10081588484E+04  0.91777578987E+02 0.  0.
         23    2    4    4    0    0  0.28848845580E+03  0.13681856100E+03 -0.39916900241E+02  0.33373148662E+03  0.88534956243E+02 0.  0.
          2    1    3    3  502    0 -0.16589562079E+03 -0.23867131072E+03  0.12525070899E+04  0.12857913368E+04  0.00000000000E+00 0. -1.
         -1    1    3    3    0  502  0.85121901494E+00 -0.59651429141E+01  0.37036211425E+01  0.70727868174E+01  0.00000000000E+00 0.  1.
         13    1    5    5    0    0 -0.10243766012E+03  0.34128838073E+02  0.66850069238E+03  0.67716425445E+03  0.00000000000E+00 0. -1.
        -13    1    5    5    0    0 -0.21006393899E+02  0.73689054556E+02  0.32200322338E+03  0.33099459393E+03  0.00000000000E+00 0.  1.
          1    1    6    6  503    0  0.32655685670E+02  0.42740062042E+02  0.14636879045E+02  0.55743564096E+02  0.00000000000E+00 0. -1.
         -1    1    6    6    0  503  0.25583277013E+03  0.94078498959E+02 -0.54553779286E+02  0.27798792253E+03  0.00000000000E+00 0.  1.
<mgrwt>
<rscale>  0 0.14394356E+04</rscale>
<asrwt>0</asrwt>
<pdfrwt beam="1">  1        2 0.37242707E+00 0.14394356E+04</pdfrwt>
<pdfrwt beam="2">  1       -1 0.32919750E-01 0.14394356E+04</pdfrwt>
<totfact> 0.37115862E+01</totfact>
</mgrwt>
</event>
<event>
12    7  0.1544987E-007  0.1330531E+04  0.7818608E-02  0.9005698E-01
          2   -1    0    0  501    0  0.00000000000E+00  0.00000000000E+00  0.91737907731E+03  0.91737907731E+03  0.00000000000E+00 0. -1.
         -1   -1    0    0    0  501 -0.00000000000E+00 -0.00000000000E+00 -0.48243745703E+03  0.48243745703E+03  0.00000000000E+00 0.  1.
         24    2    1    2    0    0 -0.22378186204E+03 -0.86061399183E+02 -0.18895337846E+03  0.31537123186E+03  0.79188057474E+02 0.  0.
        254    2    1    2    0    0  0.22378186204E+03  0.86061399183E+02  0.62389499874E+03  0.10844453025E+04  0.85398580691E+03 0.  0.
         23    2    4    4    0    0 -0.30431763189E+03  0.52597826219E+02  0.10432505256E+03  0.33783889938E+03  0.88744875571E+02 0.  0.
         23    2    4    4    0    0  0.52809949393E+03  0.33463572964E+02  0.51956994618E+03  0.74660640309E+03  0.86367273651E+02 0.  0.
          4    1    3    3  502    0 -0.73177022272E+02  0.99530407325E+01 -0.57860132420E+02  0.93817559828E+02  0.00000000000E+00 0. -1.
         -3    1    3    3    0  502 -0.15060483976E+03 -0.96014439916E+02 -0.13109324604E+03  0.22155367203E+03  0.00000000000E+00 0.  1.
         13    1    5    5    0    0 -0.13772230284E+03  0.66972076866E+02  0.36778699926E+02  0.15749718901E+03  0.00000000000E+00 0. -1.
        -13    1    5    5    0    0 -0.16659532906E+03 -0.14374250647E+02  0.67546352638E+02  0.18034171037E+03  0.00000000000E+00 0.  1.
          1    1    6    6  503    0  0.31846873474E+03 -0.98851413173E+00  0.36172634622E+03  0.48194321420E+03  0.00000000000E+00 0. -1.
         -1    1    6    6    0  503  0.20963075919E+03  0.34452087095E+02  0.15784359996E+03  0.26466318889E+03  0.00000000000E+00 0.  1.
<mgrwt>
<rscale>  0 0.13305308E+04</rscale>
<asrwt>0</asrwt>
<pdfrwt beam="1">  1        2 0.14113524E+00 0.13305308E+04</pdfrwt>
<pdfrwt beam="2">  1       -1 0.74221148E-01 0.13305308E+04</pdfrwt>
<totfact> 0.58231150E+01</totfact>
</mgrwt>
</event>
<event>
12    7  0.1544987E-007  0.1935931E+04  0.7818608E-02  0.8637175E-01
          2   -1    0    0  501    0  0.00000000000E+00  0.00000000000E+00  0.80684635723E+03  0.80684635723E+03  0.00000000000E+00 0. -1.
         -1   -1    0    0    0  501 -0.00000000000E+00 -0.00000000000E+00 -0.11612580288E+04  0.11612580288E+04  0.00000000000E+00 0.  1.
         24    2    1    2    0    0 -0.11457470298E+03  0.26186394754E+03 -0.85203118638E+03  0.90230939906E+03  0.80653700995E+02 0.  0.
        254    2    1    2    0    0  0.11457470298E+03 -0.26186394754E+03  0.49761951481E+03  0.10657949870E+04  0.89810560803E+03 0.  0.
         23    2    4    4    0    0  0.28893926316E+02 -0.56306556611E+03  0.46820471265E+03  0.73827439176E+03  0.89194920608E+02 0.  0.
         23    2    4    4    0    0  0.85680776668E+02  0.30120161858E+03  0.29414802156E+02  0.32752059522E+03  0.91328523387E+02 0.  0.
          4    1    3    3  502    0  0.12160622685E+02  0.21391264692E+02 -0.56695679522E+02  0.61805072815E+02  0.00000000000E+00 0. -1.
         -3    1    3    3    0  502 -0.12673532567E+03  0.24047268285E+03 -0.79533550686E+03  0.84050432624E+03  0.00000000000E+00 0.  1.
         13    1    5    5    0    0  0.18461221910E+02 -0.18413183473E+03  0.20844089613E+03  0.27873456272E+03  0.00000000000E+00 0. -1.
        -13    1    5    5    0    0  0.10432704406E+02 -0.37893373138E+03  0.25976381652E+03  0.45953982904E+03  0.00000000000E+00 0.  1.
          2    1    6    6  503    0  0.41277145794E+02  0.32891091825E+02  0.16323760068E+02  0.55245740371E+02  0.00000000000E+00 0. -1.
         -2    1    6    6    0  503  0.44403630874E+02  0.26831052675E+03  0.13091042088E+02  0.27227485485E+03  0.00000000000E+00 0.  1.
<mgrwt>
<rscale>  0 0.19359306E+04</rscale>
<asrwt>0</asrwt>
<pdfrwt beam="1">  1        2 0.12413021E+00 0.19359306E+04</pdfrwt>
<pdfrwt beam="2">  1       -1 0.17865508E+00 0.19359306E+04</pdfrwt>
<totfact> 0.77241060E+00</totfact>
</mgrwt>
</event>
<event>
12    7  0.1544987E-007  0.1147421E+04  0.7818608E-02  0.9160166E-01
         -1   -1    0    0    0  501 -0.00000000000E+00  0.00000000000E+00  0.76953567960E+03  0.76953567960E+03  0.00000000000E+00 0.  1.
          2   -1    0    0  501    0  0.00000000000E+00 -0.00000000000E+00 -0.42771741827E+03  0.42771741827E+03  0.00000000000E+00 0. -1.
         24    2    1    2    0    0 -0.16460513380E+03  0.12890524025E+03  0.82403083708E+02  0.23781451797E+03  0.77807876959E+02 0.  0.
        254    2    1    2    0    0  0.16460513380E+03 -0.12890524025E+03  0.25941517762E+03  0.95943857989E+03  0.89973037249E+03 0.  0.
         23    2    4    4    0    0  0.59366020031E+02 -0.12557794273E+03 -0.32178178876E+03  0.36212085409E+03  0.91070573474E+02 0.  0.
         23    2    4    4    0    0  0.10523911377E+03 -0.33272975205E+01  0.58119696638E+03  0.59731772581E+03  0.88950603511E+02 0.  0.
          4    1    3    3  502    0 -0.79925032329E+02  0.25593635788E+02  0.64995023299E+01  0.84174155868E+02  0.00000000000E+00 0. -1.
         -3    1    3    3    0  502 -0.84680101471E+02  0.10331160446E+03  0.75903581378E+02  0.15364036210E+03  0.00000000000E+00 0.  1.
         13    1    5    5    0    0  0.23174236408E+01 -0.93257850204E+02 -0.13443094622E+03  0.16362785942E+03  0.00000000000E+00 0.  1.
        -13    1    5    5    0    0  0.57048596390E+02 -0.32320092523E+02 -0.18735084254E+03  0.19849299467E+03  0.00000000000E+00 0. -1.
          4    1    6    6  503    0 -0.51589636371E+01 -0.23396527642E+02  0.71199838803E+02  0.75122762576E+02  0.00000000000E+00 0. -1.
         -4    1    6    6    0  503  0.11039807741E+03  0.20069230122E+02  0.50999712757E+03  0.52219496323E+03  0.00000000000E+00 0.  1.
<mgrwt>
<rscale>  0 0.11474211E+04</rscale>
<asrwt>0</asrwt>
<pdfrwt beam="1">  1        2 0.65802680E-01 0.11474211E+04</pdfrwt>
<pdfrwt beam="2">  1       -1 0.11839010E+00 0.11474211E+04</pdfrwt>
<totfact> 0.53449501E+01</totfact>
</mgrwt>
</event>
<event>
12    7  0.1544987E-007  0.2387756E+04  0.7818608E-02  0.8444102E-01
         -1   -1    0    0    0  501 -0.00000000000E+00  0.00000000000E+00  0.59412557232E+03  0.59412557232E+03  0.00000000000E+00 0.  1.
          2   -1    0    0  501    0  0.00000000000E+00 -0.00000000000E+00 -0.23990635372E+04  0.23990635372E+04  0.00000000000E+00 0. -1.
         24    2    1    2    0    0  0.59919908734E+03  0.19095154055E+02 -0.18113765584E+04  0.19095876956E+04  0.77691436967E+02 0.  0.
        254    2    1    2    0    0 -0.59919908734E+03 -0.19095154055E+02  0.64385936042E+01  0.10836014139E+04  0.90263303594E+03 0.  0.
         23    2    4    4    0    0  0.20366829694E+03  0.68925029354E+02  0.12188434856E+03  0.26286003365E+03  0.89488368036E+02 0.  0.
         23    2    4    4    0    0 -0.80286738428E+03 -0.88020183409E+02 -0.11544575496E+03  0.82074138027E+03  0.89135298917E+02 0.  0.
          4    1    3    3  502    0  0.38647933003E+03  0.24694104276E+02 -0.10543732934E+04  0.11232449035E+04  0.00000000000E+00 0. -1.
         -3    1    3    3    0  502  0.21271975731E+03 -0.55989502215E+01 -0.75700326500E+03  0.78634279205E+03  0.00000000000E+00 0.  1.
         13    1    5    5    0    0  0.39595390710E+02  0.50775621127E+02  0.55252200581E+02  0.84845532206E+02  0.00000000000E+00 0.  1.
        -13    1    5    5    0    0  0.16407290623E+03  0.18149408227E+02  0.66632147979E+02  0.17801450144E+03  0.00000000000E+00 0. -1.
          2    1    6    6  503    0 -0.68185564296E+03 -0.51024230214E+02 -0.11954805285E+03  0.69413422827E+03  0.00000000000E+00 0. -1.
         -2    1    6    6    0  503 -0.12101174132E+03 -0.36995953195E+02  0.41022978929E+01  0.12660715200E+03  0.00000000000E+00 0.  1.
<mgrwt>
<rscale>  0 0.23877563E+04</rscale>
<asrwt>0</asrwt>
<pdfrwt beam="1">  1        2 0.36908670E+00 0.23877563E+04</pdfrwt>
<pdfrwt beam="2">  1       -1 0.91403934E-01 0.23877563E+04</pdfrwt>
<totfact> 0.47569892E+00</totfact>
</mgrwt>
</event>
<event>
12    7  0.1544987E-007  0.1181199E+04  0.7818608E-02  0.9129474E-01
         -1   -1    0    0    0  501 -0.00000000000E+00  0.00000000000E+00  0.92669069828E+02  0.92669069828E+02  0.00000000000E+00 0.  1.
          2   -1    0    0  501    0  0.00000000000E+00 -0.00000000000E+00 -0.37640177973E+04  0.37640177973E+04  0.00000000000E+00 0. -1.
         24    2    1    2    0    0 -0.93245827853E+02 -0.19279780861E+02 -0.70941862477E+02  0.14292521039E+03  0.79551075109E+02 0.  0.
        254    2    1    2    0    0  0.93245827853E+02  0.19279780861E+02 -0.36004068650E+04  0.37137616567E+04  0.90555483279E+03 0.  0.
         23    2    4    4    0    0  0.13146109338E+03  0.39612889842E+02 -0.74161375671E+02  0.18604240749E+03  0.10129495363E+03 0.  0.
         23    2    4    4    0    0 -0.38215265523E+02 -0.20333108981E+02 -0.35262454893E+04  0.35277192492E+04  0.92314726253E+02 0.  0.
          2    1    3    3  502    0 -0.31400906705E+02 -0.35949456604E+02 -0.62009659206E+02  0.78253295183E+02  0.00000000000E+00 0. -1.
         -3    1    3    3    0  502 -0.61844921148E+02  0.16669675743E+02 -0.89322032702E+01  0.64671915207E+02  0.00000000000E+00 0.  1.
         13    1    5    5    0    0  0.93918130655E+01  0.28915548837E+02 -0.53841121016E+02  0.61831880365E+02  0.00000000000E+00 0.  1.
        -13    1    5    5    0    0  0.12206928031E+03  0.10697341005E+02 -0.20320254654E+02  0.12421052713E+03  0.00000000000E+00 0. -1.
          1    1    6    6  503    0  0.23369004990E+02 -0.36086486710E+01 -0.20005770499E+04  0.20007167879E+04  0.00000000000E+00 0. -1.
         -1    1    6    6    0  503 -0.61584270512E+02 -0.16724460310E+02 -0.15256684394E+04  0.15270024613E+04  0.00000000000E+00 0.  1.
<mgrwt>
<rscale>  0 0.11811994E+04</rscale>
<asrwt>0</asrwt>
<pdfrwt beam="1">  1        2 0.57907954E+00 0.11811994E+04</pdfrwt>
<pdfrwt beam="2">  1       -1 0.14256783E-01 0.11811994E+04</pdfrwt>
<totfact> 0.21759966E+01</totfact>
</mgrwt>
</event>
<event>
12    7  0.1544987E-007  0.1153814E+04  0.7818608E-02  0.9154272E-01
          2   -1    0    0  501    0  0.00000000000E+00  0.00000000000E+00  0.10742300422E+04  0.10742300422E+04  0.00000000000E+00 0. -1.
         -1   -1    0    0    0  501 -0.00000000000E+00 -0.00000000000E+00 -0.30982329504E+03  0.30982329504E+03  0.00000000000E+00 0.  1.
         24    2    1    2    0    0  0.19629113920E+03  0.98555007478E+02  0.14556616923E+03  0.27539906176E+03  0.80073920622E+02 0.  0.
        254    2    1    2    0    0 -0.19629113920E+03 -0.98555007478E+02  0.61884057794E+03  0.11086542755E+04  0.89325659294E+03 0.  0.
         23    2    4    4    0    0 -0.28654477362E+03 -0.13951193764E+03 -0.12271818998E+03  0.35358530306E+03  0.91604172154E+02 0.  0.
         23    2    4    4    0    0  0.90253634414E+02  0.40956930164E+02  0.74155876792E+03  0.75506897243E+03  0.10196351406E+03 0.  0.
          4    1    3    3  502    0  0.21991831713E+02 -0.14141853055E+02  0.14069010314E+02  0.29691239805E+02  0.00000000000E+00 0. -1.
         -3    1    3    3    0  502  0.17429930749E+03  0.11269686053E+03  0.13149715892E+03  0.24570782195E+03  0.00000000000E+00 0.  1.
         13    1    5    5    0    0 -0.90805503009E+02 -0.88689013679E+02 -0.68403109033E+02  0.14418864674E+03  0.00000000000E+00 0. -1.
        -13    1    5    5    0    0 -0.19573927061E+03 -0.50822923963E+02 -0.54315080942E+02  0.20939665632E+03  0.00000000000E+00 0.  1.
          4    1    6    6  503    0  0.90352679643E+02  0.35153741509E+02  0.34221802830E+03  0.35568605701E+03  0.00000000000E+00 0.  1.
         -4    1    6    6    0  503 -0.99045229368E-01  0.58031886550E+01  0.39934073962E+03  0.39938291542E+03  0.00000000000E+00 0. -1.
<mgrwt>
<rscale>  0 0.11538137E+04</rscale>
<asrwt>0</asrwt>
<pdfrwt beam="1">  1        2 0.16526616E+00 0.11538137E+04</pdfrwt>
<pdfrwt beam="2">  1       -1 0.47665123E-01 0.11538137E+04</pdfrwt>
<totfact> 0.11207163E+02</totfact>
</mgrwt>
</event>
<event>
12    7  0.1544987E-007  0.1527769E+04  0.7818608E-02  0.8866194E-01
         -1   -1    0    0    0  501 -0.00000000000E+00  0.00000000000E+00  0.55804224445E+03  0.55804224445E+03  0.00000000000E+00 0.  1.
          2   -1    0    0  501    0  0.00000000000E+00 -0.00000000000E+00 -0.10456550035E+04  0.10456550035E+04  0.00000000000E+00 0. -1.
         24    2    1    2    0    0  0.38743172053E+02  0.49929782727E+02  0.33987324852E+03  0.35427221692E+03  0.77465876576E+02 0.  0.
        254    2    1    2    0    0 -0.38743172053E+02 -0.49929782727E+02 -0.82748600752E+03  0.12494250310E+04  0.93398918561E+03 0.  0.
         23    2    4    4    0    0 -0.47618472341E+03 -0.22486273488E+02 -0.38077009156E+03  0.61691617523E+03  0.91335542520E+02 0.  0.
         23    2    4    4    0    0  0.43744155136E+03 -0.27443509239E+02 -0.44671591596E+03  0.63250885576E+03  0.91673802106E+02 0.  0.
          2    1    3    3  502    0 -0.85958155653E+01 -0.10183254910E+02  0.13197447065E+02  0.18755248195E+02  0.00000000000E+00 0. -1.
         -1    1    3    3    0  502  0.47338987618E+02  0.60113037637E+02  0.32667580146E+03  0.33551696872E+03  0.00000000000E+00 0.  1.
         13    1    5    5    0    0 -0.17884345907E+03 -0.43845628186E+02 -0.18001656182E+03  0.25751385301E+03  0.00000000000E+00 0.  1.
        -13    1    5    5    0    0 -0.29734126434E+03  0.21359354698E+02 -0.20075352974E+03  0.35940232222E+03  0.00000000000E+00 0. -1.
          1    1    6    6  503    0  0.23192770287E+03 -0.53437531421E+02 -0.27280541384E+03  0.36203428421E+03  0.00000000000E+00 0. -1.
         -1    1    6    6    0  503  0.20551384848E+03  0.25994022181E+02 -0.17391050212E+03  0.27047457155E+03  0.00000000000E+00 0.  1.
<mgrwt>
<rscale>  0 0.15277692E+04</rscale>
<asrwt>0</asrwt>
<pdfrwt beam="1">  1        2 0.16087000E+00 0.15277692E+04</pdfrwt>
<pdfrwt beam="2">  1       -1 0.85852653E-01 0.15277692E+04</pdfrwt>
<totfact> 0.34718375E+01</totfact>
</mgrwt>
</event>
<event>
12    7  0.1544987E-007  0.2171809E+04  0.7818608E-02  0.8530254E-01
         -1   -1    0    0    0  501 -0.00000000000E+00  0.00000000000E+00  0.11027017707E+04  0.11027017707E+04  0.00000000000E+00 0.  1.
          2   -1    0    0  501    0  0.00000000000E+00 -0.00000000000E+00 -0.10693632982E+04  0.10693632982E+04  0.00000000000E+00 0. -1.
         24    2    1    2    0    0 -0.25264459910E+03 -0.26261083806E+03 -0.80521796111E+03  0.88709054964E+03  0.75894220062E+02 0.  0.
        254    2    1    2    0    0  0.25264459910E+03  0.26261083806E+03  0.83855643360E+03  0.12849745193E+04  0.90287810764E+03 0.  0.
         23    2    4    4    0    0  0.47308561880E+03  0.40117120529E+01  0.79428150391E+03  0.92904256712E+03  0.91710890998E+02 0.  0.
         23    2    4    4    0    0 -0.22044101969E+03  0.25859912600E+03  0.44274929693E+02  0.35593195220E+03  0.96226472794E+02 0.  0.
          4    1    3    3  502    0 -0.18235692446E+03 -0.20263160105E+03 -0.51765948628E+03  0.58505124337E+03  0.00000000000E+00 0. -1.
         -3    1    3    3    0  502 -0.70287674645E+02 -0.59979237012E+02 -0.28755847483E+03  0.30203930626E+03  0.00000000000E+00 0.  1.
         13    1    5    5    0    0  0.47107386634E+03  0.12310955286E+02  0.78896879203E+03  0.91898525666E+03  0.00000000000E+00 0. -1.
        -13    1    5    5    0    0  0.20117524584E+01 -0.82992432333E+01  0.53127118843E+01  0.10057310464E+02  0.00000000000E+00 0.  1.
          1    1    6    6  503    0 -0.17816411874E+03  0.13861136573E+03  0.22329938364E+02  0.22683516056E+03  0.00000000000E+00 0. -1.
         -1    1    6    6    0  503 -0.42276900950E+02  0.11998776027E+03  0.21944991329E+02  0.12909679164E+03  0.00000000000E+00 0.  1.
<mgrwt>
<rscale>  0 0.21718092E+04</rscale>
<asrwt>0</asrwt>
<pdfrwt beam="1">  1        2 0.16451743E+00 0.21718092E+04</pdfrwt>
<pdfrwt beam="2">  1       -1 0.16964643E+00 0.21718092E+04</pdfrwt>
<totfact> 0.58868760E+00</totfact>
</mgrwt>
</event>
<event>
12    7  0.1544987E-007  0.3051445E+04  0.7818608E-02  0.8229191E-01
         -1   -1    0    0    0  501 -0.00000000000E+00  0.00000000000E+00  0.19149689009E+04  0.19149689009E+04  0.00000000000E+00 0.  1.
          2   -1    0    0  501    0  0.00000000000E+00 -0.00000000000E+00 -0.12155963928E+04  0.12155963928E+04  0.00000000000E+00 0. -1.
         24    2    1    2    0    0  0.16009506610E+03 -0.10521516724E+04 -0.59942056510E+03  0.12240413288E+04  0.79489551876E+02 0.  0.
        254    2    1    2    0    0 -0.16009506610E+03  0.10521516724E+04  0.12987930732E+04  0.19065239649E+04  0.90294884120E+03 0.  0.
         23    2    4    4    0    0  0.75387663364E+02  0.11210661967E+04  0.11287844242E+04  0.15953825150E+04  0.92835207608E+02 0.  0.
         23    2    4    4    0    0 -0.23548272947E+03 -0.68914524313E+02  0.17000864907E+03  0.31114144991E+03  0.87776611680E+02 0.  0.
          2    1    3    3  502    0  0.80689109424E+02 -0.54269192293E+03 -0.35447777808E+03  0.65320728007E+03  0.00000000000E+00 0. -1.
         -1    1    3    3    0  502  0.79405956678E+02 -0.50945974945E+03 -0.24494278702E+03  0.57083404872E+03  0.00000000000E+00 0.  1.
         13    1    5    5    0    0  0.72713115791E+02  0.98437403653E+03  0.10308205848E+04  0.14271897278E+04  0.00000000000E+00 0. -1.
        -13    1    5    5    0    0  0.26745475726E+01  0.13669216016E+03  0.97963839399E+02  0.16819278725E+03  0.00000000000E+00 0.  1.
          3    1    6    6  503    0 -0.12995014649E+03  0.45104216588E+01  0.66256633147E+02  0.14593603364E+03  0.00000000000E+00 0. -1.
         -3    1    6    6    0  503 -0.10553258297E+03 -0.73424945972E+02  0.10375201592E+03  0.16520541628E+03  0.00000000000E+00 0.  1.
<mgrwt>
<rscale>  0 0.30514451E+04</rscale>
<asrwt>0</asrwt>
<pdfrwt beam="1">  1        2 0.18701483E+00 0.30514451E+04</pdfrwt>
<pdfrwt beam="2">  1       -1 0.29461060E+00 0.30514451E+04</pdfrwt>
<totfact> 0.64426973E-01</totfact>
</mgrwt>
</event>
<event>
12    7  0.1544987E-007  0.2465961E+04  0.7818608E-02  0.8415213E-01
         -1   -1    0    0    0  501 -0.00000000000E+00  0.00000000000E+00  0.11474979993E+04  0.11474979993E+04  0.00000000000E+00 0.  1.
          2   -1    0    0  501    0  0.00000000000E+00 -0.00000000000E+00 -0.13248310751E+04  0.13248310751E+04  0.00000000000E+00 0. -1.
         24    2    1    2    0    0 -0.59039174603E+03 -0.30646728428E+03  0.76054408698E+03  0.10134465871E+04  0.78498831629E+02 0.  0.
        254    2    1    2    0    0  0.59039174603E+03  0.30646728428E+03 -0.93787716283E+03  0.14588824873E+04  0.89790864189E+03 0.  0.
         23    2    4    4    0    0  0.70943522360E+03  0.29070737411E+03 -0.10258298847E+04  0.12842398193E+04  0.95581626233E+02 0.  0.
         23    2    4    4    0    0 -0.11904347757E+03  0.15759910170E+02  0.87952721825E+02  0.17464266808E+03  0.91349088202E+02 0.  0.
          2    1    3    3  502    0 -0.27294441393E+03 -0.13382193065E+03  0.28969933909E+03  0.41991983674E+03  0.00000000000E+00 0. -1.
         -1    1    3    3    0  502 -0.31744733211E+03 -0.17264535362E+03  0.47084474790E+03  0.59352675037E+03  0.00000000000E+00 0.  1.
         13    1    5    5    0    0  0.45995687715E+03  0.16409293263E+03 -0.58392993963E+03  0.76122335341E+03  0.00000000000E+00 0. -1.
        -13    1    5    5    0    0  0.24947834645E+03  0.12661444147E+03 -0.44189994503E+03  0.52301646586E+03  0.00000000000E+00 0.  1.
          2    1    6    6  503    0 -0.13118805499E+03  0.11436263719E+02  0.92551020062E+02  0.16095584865E+03  0.00000000000E+00 0. -1.
         -2    1    6    6    0  503  0.12144577419E+02  0.43236464511E+01 -0.45982982372E+01  0.13686819426E+02  0.00000000000E+00 0.  1.
<mgrwt>
<rscale>  0 0.24659611E+04</rscale>
<asrwt>0</asrwt>
<pdfrwt beam="1">  1        2 0.20382017E+00 0.24659611E+04</pdfrwt>
<pdfrwt beam="2">  1       -1 0.17653815E+00 0.24659611E+04</pdfrwt>
<totfact> 0.35922857E+00</totfact>
</mgrwt>
</event>
<event>
12    7  0.1544987E-007  0.1794356E+04  0.7818608E-02  0.8709307E-01
          2   -1    0    0  501    0  0.00000000000E+00  0.00000000000E+00  0.64029046101E+03  0.64029046101E+03  0.00000000000E+00 0. -1.
         -1   -1    0    0    0  501 -0.00000000000E+00 -0.00000000000E+00 -0.12571293709E+04  0.12571293709E+04  0.00000000000E+00 0.  1.
         24    2    1    2    0    0  0.15426423825E+03 -0.22456069422E+03  0.41651107363E+03  0.50415183381E+03  0.80390524855E+02 0.  0.
        254    2    1    2    0    0 -0.15426423825E+03  0.22456069422E+03 -0.10333499836E+04  0.13932679981E+04  0.89395669109E+03 0.  0.
         23    2    4    4    0    0  0.29661949945E+03 -0.13574607021E+03 -0.27728141967E+03  0.43760899227E+03  0.90589852583E+02 0.  0.
         23    2    4    4    0    0 -0.45088373770E+03  0.36030676443E+03 -0.75606856390E+03  0.95565900588E+03  0.92343666776E+02 0.  0.
          2    1    3    3  502    0  0.12391797879E+03 -0.11056440570E+03  0.24083833528E+03  0.29254616220E+03  0.00000000000E+00 0. -1.
         -1    1    3    3    0  502  0.30346259456E+02 -0.11399628852E+03  0.17567273835E+03  0.21160567161E+03  0.00000000000E+00 0.  1.
         13    1    5    5    0    0  0.22431127184E+02  0.50203281374E+01  0.58925770651E-01  0.22986140033E+02  0.00000000000E+00 0.  1.
        -13    1    5    5    0    0  0.27418837226E+03 -0.14076639834E+03 -0.27734034544E+03  0.41462285223E+03  0.00000000000E+00 0. -1.
          4    1    6    6  503    0 -0.11172812163E+03  0.72897020160E+02 -0.11870202201E+03  0.17857020675E+03  0.00000000000E+00 0. -1.
         -4    1    6    6    0  503 -0.33915561607E+03  0.28740974427E+03 -0.63736654189E+03  0.77708879913E+03  0.00000000000E+00 0.  1.
<mgrwt>
<rscale>  0 0.17943555E+04</rscale>
<asrwt>0</asrwt>
<pdfrwt beam="1">  1        2 0.98506224E-01 0.17943555E+04</pdfrwt>
<pdfrwt beam="2">  1       -1 0.19340452E+00 0.17943555E+04</pdfrwt>
<totfact> 0.82630663E+00</totfact>
</mgrwt>
</event>
<event>
12    7  0.1544987E-007  0.1558699E+04  0.7818608E-02  0.8846330E-01
         -1   -1    0    0    0  501 -0.00000000000E+00  0.00000000000E+00  0.36412366328E+03  0.36412366328E+03  0.00000000000E+00 0.  1.
          2   -1    0    0  501    0  0.00000000000E+00 -0.00000000000E+00 -0.16680754456E+04  0.16680754456E+04  0.00000000000E+00 0. -1.
         24    2    1    2    0    0  0.36850267697E+03  0.48201290422E+02 -0.91408778314E+03  0.99098713002E+03  0.91550146055E+02 0.  0.
        254    2    1    2    0    0 -0.36850267697E+03 -0.48201290422E+02 -0.38986399922E+03  0.10412119789E+04  0.89107287009E+03 0.  0.
         23    2    4    4    0    0 -0.52161638487E+03  0.76389078060E+02 -0.55329823303E+03  0.76976242552E+03  0.92066893420E+02 0.  0.
         23    2    4    4    0    0  0.15311370790E+03 -0.12459036848E+03  0.16343423381E+03  0.27144955339E+03  0.89484880215E+02 0.  0.
          4    1    3    3  502    0  0.34533644009E+03  0.60238620697E+02 -0.88501668217E+03  0.95191411167E+03  0.00000000000E+00 0. -1.
         -3    1    3    3    0  502  0.23166236876E+02 -0.12037330275E+02 -0.29071100975E+02  0.39073018350E+02  0.00000000000E+00 0.  1.
         13    1    5    5    0    0 -0.50113290542E+03  0.68359544172E+02 -0.49604017114E+03  0.70842294397E+03  0.00000000000E+00 0. -1.
        -13    1    5    5    0    0 -0.20483479455E+02  0.80295338873E+01 -0.57258061892E+02  0.61339481549E+02  0.00000000000E+00 0.  1.
          4    1    6    6  503    0  0.88236860687E+02 -0.28806964140E+02  0.11025816535E+03  0.14412649927E+03  0.00000000000E+00 0.  1.
         -4    1    6    6    0  503  0.64876847216E+02 -0.95783404341E+02  0.53176068461E+02  0.12732305411E+03  0.00000000000E+00 0. -1.
<mgrwt>
<rscale>  0 0.15586991E+04</rscale>
<asrwt>0</asrwt>
<pdfrwt beam="1">  1        2 0.25662699E+00 0.15586991E+04</pdfrwt>
<pdfrwt beam="2">  1       -1 0.56019025E-01 0.15586991E+04</pdfrwt>
<totfact> 0.36093671E+01</totfact>
</mgrwt>
</event>
<event>
12    7  0.1544987E-007  0.1668116E+04  0.7818608E-02  0.8779761E-01
          2   -1    0    0  501    0  0.00000000000E+00  0.00000000000E+00  0.13199578945E+04  0.13199578945E+04  0.00000000000E+00 0. -1.
         -1   -1    0    0    0  501 -0.00000000000E+00 -0.00000000000E+00 -0.52702638452E+03  0.52702638452E+03  0.00000000000E+00 0.  1.
         24    2    1    2    0    0 -0.22950319736E+03  0.43328037552E+03 -0.76288262879E+02  0.50609084506E+03  0.99521068063E+02 0.  0.
        254    2    1    2    0    0  0.22950319736E+03 -0.43328037552E+03  0.86921977288E+03  0.13408934340E+04  0.89557165338E+03 0.  0.
         23    2    4    4    0    0 -0.89514260552E+02 -0.62451797580E+03  0.57070623318E+03  0.85533460808E+03  0.88635107348E+02 0.  0.
         23    2    4    4    0    0  0.31901745791E+03  0.19123760028E+03  0.29851353970E+03  0.48555882591E+03  0.91176103350E+02 0.  0.
          2    1    3    3  502    0 -0.18236257307E+03  0.26918980499E+03 -0.17834779698E+02  0.32563374907E+03  0.00000000000E+00 0. -1.
         -3    1    3    3    0  502 -0.47140624286E+02  0.16409057053E+03 -0.58453483181E+02  0.18045709598E+03  0.00000000000E+00 0.  1.
         13    1    5    5    0    0  0.75857971842E+01 -0.28165877003E+02  0.49171468427E+02  0.57172495604E+02  0.00000000000E+00 0.  1.
        -13    1    5    5    0    0 -0.97100057737E+02 -0.59635209879E+03  0.52153476475E+03  0.79816211247E+03  0.00000000000E+00 0. -1.
          3    1    6    6  503    0  0.29028302708E+03  0.14002992785E+03  0.23372501343E+03  0.39812058275E+03  0.00000000000E+00 0. -1.
         -3    1    6    6    0  503  0.28734430830E+02  0.51207672430E+02  0.64788526274E+02  0.87438243164E+02  0.00000000000E+00 0.  1.
<mgrwt>
<rscale>  0 0.16681159E+04</rscale>
<asrwt>0</asrwt>
<pdfrwt beam="1">  1        2 0.20307044E+00 0.16681159E+04</pdfrwt>
<pdfrwt beam="2">  1       -1 0.81080983E-01 0.16681159E+04</pdfrwt>
<totfact> 0.26529951E+01</totfact>
</mgrwt>
</event>
<event>
12    7  0.1544987E-007  0.2518782E+04  0.7818608E-02  0.8396325E-01
         -1   -1    0    0    0  501 -0.00000000000E+00  0.00000000000E+00  0.11300316820E+04  0.11300316820E+04  0.00000000000E+00 0.  1.
          2   -1    0    0  501    0  0.00000000000E+00 -0.00000000000E+00 -0.14035585417E+04  0.14035585417E+04  0.00000000000E+00 0. -1.
         24    2    1    2    0    0  0.25692367215E+03 -0.86870116457E+03 -0.73484673395E+03  0.11691818141E+04  0.79592119086E+02 0.  0.
        254    2    1    2    0    0 -0.25692367215E+03  0.86870116457E+03  0.46131987428E+03  0.13644084095E+04  0.91002351342E+03 0.  0.
         23    2    4    4    0    0 -0.22565089141E+03  0.41645905937E+03  0.69500941177E+03  0.84594805155E+03  0.90738914173E+02 0.  0.
         23    2    4    4    0    0 -0.31272780740E+02  0.45224210520E+03 -0.23368953749E+03  0.51846035799E+03  0.93217135449E+02 0.  0.
          4    1    3    3  502    0  0.22748222281E+03 -0.81848833300E+03 -0.66911119444E+03  0.10813792598E+04  0.00000000000E+00 0. -1.
         -3    1    3    3    0  502  0.29441449339E+02 -0.50212831572E+02 -0.65735539504E+02  0.87802554334E+02  0.00000000000E+00 0.  1.
         13    1    5    5    0    0 -0.20143073368E+03  0.30705877501E+03  0.57016942500E+03  0.67819805735E+03  0.00000000000E+00 0. -1.
        -13    1    5    5    0    0 -0.24220157721E+02  0.10940028436E+03  0.12483998677E+03  0.16774999420E+03  0.00000000000E+00 0.  1.
          3    1    6    6  503    0 -0.58289316837E+00  0.40552400400E+03 -0.21798514760E+03  0.46039937246E+03  0.00000000000E+00 0. -1.
         -3    1    6    6    0  503 -0.30689887572E+02  0.46718101203E+02 -0.15704389887E+02  0.58060985532E+02  0.00000000000E+00 0.  1.
<mgrwt>
<rscale>  0 0.25187819E+04</rscale>
<asrwt>0</asrwt>
<pdfrwt beam="1">  1        2 0.21593208E+00 0.25187819E+04</pdfrwt>
<pdfrwt beam="2">  1       -1 0.17385103E+00 0.25187819E+04</pdfrwt>
<totfact> 0.33694098E+00</totfact>
</mgrwt>
</event>
<event>
12    7  0.1544987E-007  0.1817029E+04  0.7818608E-02  0.8697296E-01
          2   -1    0    0  501    0  0.00000000000E+00  0.00000000000E+00  0.11433358833E+04  0.11433358833E+04  0.00000000000E+00 0. -1.
         -1   -1    0    0    0  501 -0.00000000000E+00 -0.00000000000E+00 -0.72192102432E+03  0.72192102432E+03  0.00000000000E+00 0.  1.
         24    2    1    2    0    0 -0.34893920676E+03 -0.69831355186E+01 -0.43857306176E+03  0.56625775905E+03  0.80586506245E+02 0.  0.
        254    2    1    2    0    0  0.34893920676E+03  0.69831355186E+01  0.85998792078E+03  0.12989991486E+04  0.90885214969E+03 0.  0.
         23    2    4    4    0    0  0.39961689228E+03  0.39570952211E+03  0.53954655848E+03  0.78475851517E+03  0.91955162385E+02 0.  0.
         23    2    4    4    0    0 -0.50677685513E+02 -0.38872638659E+03  0.32044136230E+03  0.51424063344E+03  0.89912907660E+02 0.  0.
          4    1    3    3  502    0 -0.80614897516E+02 -0.79149114156E+01 -0.54090958117E+02  0.97402460309E+02  0.00000000000E+00 0. -1.
         -3    1    3    3    0  502 -0.26832430925E+03  0.93177589705E+00 -0.38448210364E+03  0.46885529874E+03  0.00000000000E+00 0.  1.
         13    1    5    5    0    0 -0.20375342063E+01 -0.15920939091E+01 -0.10821630102E+01  0.28031028232E+01  0.00000000000E+00 0.  1.
        -13    1    5    5    0    0  0.40165442648E+03  0.39730161602E+03  0.54062872149E+03  0.78195541235E+03  0.00000000000E+00 0. -1.
          1    1    6    6  503    0 -0.60146459829E+02 -0.16838355066E+03  0.11334341823E+03  0.21170107988E+03  0.00000000000E+00 0. -1.
         -1    1    6    6    0  503  0.94687743164E+01 -0.22034283592E+03  0.20709794407E+03  0.30253955356E+03  0.00000000000E+00 0.  1.
<mgrwt>
<rscale>  0 0.18170286E+04</rscale>
<asrwt>0</asrwt>
<pdfrwt beam="1">  1        2 0.17589783E+00 0.18170286E+04</pdfrwt>
<pdfrwt beam="2">  1       -1 0.11106477E+00 0.18170286E+04</pdfrwt>
<totfact> 0.16437450E+01</totfact>
</mgrwt>
</event>
<event>
12    7  0.1544987E-007  0.1313526E+04  0.7818608E-02  0.9018907E-01
         -1   -1    0    0    0  501 -0.00000000000E+00  0.00000000000E+00  0.15008812702E+04  0.15008812702E+04  0.00000000000E+00 0.  1.
          2   -1    0    0  501    0  0.00000000000E+00 -0.00000000000E+00 -0.28738945282E+03  0.28738945282E+03  0.00000000000E+00 0. -1.
         24    2    1    2    0    0  0.24938767871E+03  0.20986338369E+03  0.17151820931E+03  0.37668738541E+03  0.78981238917E+02 0.  0.
        254    2    1    2    0    0 -0.24938767871E+03 -0.20986338369E+03  0.10419736081E+04  0.14115833376E+04  0.89477464481E+03 0.  0.
         23    2    4    4    0    0 -0.44148670017E+02 -0.47988198250E+03  0.26206351545E+03  0.55610168571E+03  0.91301569097E+02 0.  0.
         23    2    4    4    0    0 -0.20523900869E+03  0.27001859881E+03  0.77991009266E+03  0.85548165193E+03  0.92498701501E+02 0.  0.
          2    1    3    3  502    0  0.23995849375E+03  0.16997776614E+03  0.14496652933E+03  0.32785334272E+03  0.00000000000E+00 0. -1.
         -1    1    3    3    0  502  0.94291849535E+01  0.39885617549E+02  0.26551679979E+02  0.48834042694E+02  0.00000000000E+00 0.  1.
         13    1    5    5    0    0 -0.57862397673E+02 -0.19544775748E+03  0.13350486893E+03  0.24366253918E+03  0.00000000000E+00 0. -1.
        -13    1    5    5    0    0  0.13713727656E+02 -0.28443422502E+03  0.12855864652E+03  0.31243914653E+03  0.00000000000E+00 0.  1.
          3    1    6    6  503    0 -0.81113957590E+02  0.18237659400E+03  0.44462927057E+03  0.48737653247E+03  0.00000000000E+00 0. -1.
         -3    1    6    6    0  503 -0.12412505110E+03  0.87642004811E+02  0.33528082208E+03  0.36810511946E+03  0.00000000000E+00 0.  1.
<mgrwt>
<rscale>  0 0.13135257E+04</rscale>
<asrwt>0</asrwt>
<pdfrwt beam="1">  1        2 0.44213763E-01 0.13135257E+04</pdfrwt>
<pdfrwt beam="2">  1       -1 0.23090481E+00 0.13135257E+04</pdfrwt>
<totfact> 0.12039465E+01</totfact>
</mgrwt>
</event>
<event>
12    7  0.1590113E-007  0.1850860E+04  0.7818608E-02  0.8679711E-01
          2   -1    0    0  501    0  0.00000000000E+00  0.00000000000E+00  0.25110638407E+04  0.25110638407E+04  0.00000000000E+00 0. -1.
         -1   -1    0    0    0  501 -0.00000000000E+00 -0.00000000000E+00 -0.34105886947E+03  0.34105886947E+03  0.00000000000E+00 0.  1.
         24    2    1    2    0    0 -0.19579855071E+02  0.60231148140E+03  0.26485796877E+03  0.66280824235E+03  0.77476003682E+02 0.  0.
        254    2    1    2    0    0  0.19579855071E+02 -0.60231148140E+03  0.19051470025E+04  0.21893144678E+04  0.89462296344E+03 0.  0.
         23    2    4    4    0    0 -0.17237781473E+03 -0.54823190252E+03  0.50066372726E+03  0.76778420019E+03  0.92499082781E+02 0.  0.
         23    2    4    4    0    0  0.19195766980E+03 -0.54079578882E+02  0.14044832752E+04  0.14215302676E+04  0.91666153255E+02 0.  0.
          2    1    3    3  502    0  0.54512200616E+01  0.44144246867E+02 -0.64404633949E-02  0.44479550055E+02  0.00000000000E+00 0. -1.
         -1    1    3    3    0  502 -0.25031075133E+02  0.55816723453E+03  0.26486440923E+03  0.61832869229E+03  0.00000000000E+00 0.  1.
         13    1    5    5    0    0 -0.12275842387E+03 -0.46420731697E+03  0.44891463288E+03  0.65732975847E+03  0.00000000000E+00 0. -1.
        -13    1    5    5    0    0 -0.49619390855E+02 -0.84024585552E+02  0.51749094378E+02  0.11045444172E+03  0.00000000000E+00 0.  1.
          2    1    6    6  503    0  0.15213640740E+03 -0.16074787826E+02  0.12020640644E+04  0.12117598360E+04  0.00000000000E+00 0. -1.
         -2    1    6    6    0  503  0.39821262400E+02 -0.38004791056E+02  0.20241921077E+03  0.20977043159E+03  0.00000000000E+00 0.  1.
<mgrwt>
<rscale>  0 0.18508599E+04</rscale>
<asrwt>0</asrwt>
<pdfrwt beam="1">  1        2 0.38631750E+00 0.18508599E+04</pdfrwt>
<pdfrwt beam="2">  1       -1 0.52470597E-01 0.18508599E+04</pdfrwt>
<totfact> 0.13451093E+01</totfact>
</mgrwt>
</event>
<event>
12    7  0.1544987E-007  0.2210126E+04  0.7818608E-02  0.8514225E-01
         -1   -1    0    0    0  501 -0.00000000000E+00  0.00000000000E+00  0.15756776913E+04  0.15756776913E+04  0.00000000000E+00 0.  1.
          2   -1    0    0  501    0  0.00000000000E+00 -0.00000000000E+00 -0.77500911945E+03  0.77500911945E+03  0.00000000000E+00 0. -1.
         24    2    1    2    0    0  0.51607682331E+03 -0.75889975156E+03  0.14145875903E+03  0.93189667723E+03  0.78464744025E+02 0.  0.
        254    2    1    2    0    0 -0.51607682331E+03  0.75889975156E+03  0.65920981285E+03  0.14187901335E+04  0.85798819643E+03 0.  0.
         23    2    4    4    0    0 -0.11477340473E+02  0.67550172503E+03  0.57520784554E+03  0.89194520676E+03  0.90927863890E+02 0.  0.
         23    2    4    4    0    0 -0.50459948283E+03  0.83398026528E+02  0.84001967308E+02  0.52684492678E+03  0.94516545955E+02 0.  0.
          2    1    3    3  502    0  0.28282635276E+03 -0.37837625771E+03  0.10616972901E+03  0.48418111236E+03  0.00000000000E+00 0. -1.
         -1    1    3    3    0  502  0.23325047055E+03 -0.38052349385E+03  0.35289030019E+02  0.44771556487E+03  0.00000000000E+00 0.  1.
         13    1    5    5    0    0 -0.37831846314E+02  0.60693484741E+03  0.51833778024E+03  0.79904643922E+03  0.00000000000E+00 0.  1.
        -13    1    5    5    0    0  0.26354505841E+02  0.68566877620E+02  0.56870065298E+02  0.92898767547E+02  0.00000000000E+00 0. -1.
          1    1    6    6  503    0 -0.12149503572E+02 -0.95460907480E+00 -0.13080527640E+02  0.17877973008E+02  0.00000000000E+00 0. -1.
         -1    1    6    6    0  503 -0.49244997926E+03  0.84352635603E+02  0.97082494948E+02  0.50896695377E+03  0.00000000000E+00 0.  1.
<mgrwt>
<rscale>  0 0.22101263E+04</rscale>
<asrwt>0</asrwt>
<pdfrwt beam="1">  1        2 0.11923217E+00 0.22101263E+04</pdfrwt>
<pdfrwt beam="2">  1       -1 0.24241195E+00 0.22101263E+04</pdfrwt>
<totfact> 0.29262195E+00</totfact>
</mgrwt>
</event>
<event>
12    7  0.1993973E-007  0.1587598E+04  0.7818608E-02  0.8828204E-01
          2   -1    0    0  501    0  0.00000000000E+00  0.00000000000E+00  0.14550451880E+04  0.14550451880E+04  0.00000000000E+00 0. -1.
         -1   -1    0    0    0  501 -0.00000000000E+00 -0.00000000000E+00 -0.43305643407E+03  0.43305643407E+03  0.00000000000E+00 0.  1.
         24    2    1    2    0    0 -0.56544223036E+02  0.39159797799E+03 -0.80809671901E+02  0.41151871593E+03  0.79191066227E+02 0.  0.
        254    2    1    2    0    0  0.56544223036E+02 -0.39159797799E+03  0.11027984258E+04  0.14765829061E+04  0.89865815811E+03 0.  0.
         23    2    4    4    0    0  0.14098769211E+03  0.25804535984E+03  0.24204107369E+03  0.39108525796E+03  0.88875534194E+02 0.  0.
         23    2    4    4    0    0 -0.84443469075E+02 -0.64964333782E+03  0.86075735211E+03  0.10854976481E+04  0.90745573328E+02 0.  0.
          2    1    3    3  502    0  0.10880900051E+02  0.79742042580E+01  0.96010087433E+00  0.13524189926E+02  0.00000000000E+00 0. -1.
         -1    1    3    3    0  502 -0.67425123088E+02  0.38362377373E+03 -0.81769772775E+02  0.39799452601E+03  0.00000000000E+00 0.  1.
         13    1    5    5    0    0  0.12691119919E+03  0.26206113287E+03  0.23752394540E+03  0.37576603689E+03  0.00000000000E+00 0. -1.
        -13    1    5    5    0    0  0.14076492926E+02 -0.40157730339E+01  0.45171282877E+01  0.15319221068E+02  0.00000000000E+00 0.  1.
          3    1    6    6  503    0 -0.41836354653E+02 -0.55348803333E+03  0.69945857270E+03  0.89293985158E+03  0.00000000000E+00 0. -1.
         -3    1    6    6    0  503 -0.42607114422E+02 -0.96155304488E+02  0.16129877941E+03  0.19255779657E+03  0.00000000000E+00 0.  1.
<mgrwt>
<rscale>  0 0.15875978E+04</rscale>
<asrwt>0</asrwt>
<pdfrwt beam="1">  1        2 0.22385310E+00 0.15875978E+04</pdfrwt>
<pdfrwt beam="2">  1       -1 0.66624068E-01 0.15875978E+04</pdfrwt>
<totfact> 0.33609214E+01</totfact>
</mgrwt>
</event>
<event>
12    7  0.1544987E-007  0.1424123E+04  0.7818608E-02  0.8936540E-01
         -1   -1    0    0    0  501 -0.00000000000E+00  0.00000000000E+00  0.11072882459E+04  0.11072882459E+04  0.00000000000E+00 0.  1.
          2   -1    0    0  501    0  0.00000000000E+00 -0.00000000000E+00 -0.45790399072E+03  0.45790399072E+03  0.00000000000E+00 0. -1.
         24    2    1    2    0    0  0.16381994404E+02  0.19322499073E+03 -0.21717195092E+03  0.30175306298E+03  0.79290528860E+02 0.  0.
        254    2    1    2    0    0 -0.16381994404E+02 -0.19322499073E+03  0.86655620610E+03  0.12634391736E+04  0.89875170119E+03 0.  0.
         23    2    4    4    0    0 -0.36892571049E+03 -0.27418363157E+03  0.72660879040E+03  0.86486242947E+03  0.93508523374E+02 0.  0.
         23    2    4    4    0    0  0.35254371608E+03  0.80958640844E+02  0.13994741570E+03  0.39857674418E+03  0.91851883804E+02 0.  0.
          4    1    3    3  502    0  0.37144551464E+02  0.84772232763E+02 -0.13684413683E+03  0.16520401610E+03  0.00000000000E+00 0. -1.
         -3    1    3    3    0  502 -0.20762557060E+02  0.10845275797E+03 -0.80327814087E+02  0.13654904687E+03  0.00000000000E+00 0.  1.
         13    1    5    5    0    0 -0.20574101343E+03 -0.20274954868E+03  0.48821517698E+03  0.56726607790E+03  0.00000000000E+00 0.  1.
        -13    1    5    5    0    0 -0.16318469705E+03 -0.71434082898E+02  0.23839361341E+03  0.29759635157E+03  0.00000000000E+00 0. -1.
          4    1    6    6  503    0  0.23852600364E+02  0.31999635095E+02  0.63638951116E+01  0.40415620140E+02  0.00000000000E+00 0.  1.
         -4    1    6    6    0  503  0.32869111572E+03  0.48959005749E+02  0.13358352059E+03  0.35816112404E+03  0.00000000000E+00 0. -1.
<mgrwt>
<rscale>  0 0.14241232E+04</rscale>
<asrwt>0</asrwt>
<pdfrwt beam="1">  1        2 0.70446768E-01 0.14241232E+04</pdfrwt>
<pdfrwt beam="2">  1       -1 0.17035204E+00 0.14241232E+04</pdfrwt>
<totfact> 0.18528497E+01</totfact>
</mgrwt>
</event>
<event>
12    7  0.1544987E-007  0.1461112E+04  0.7818608E-02  0.8910733E-01
          2   -1    0    0  501    0  0.00000000000E+00  0.00000000000E+00  0.29728660838E+04  0.29728660838E+04  0.00000000000E+00 0. -1.
         -1   -1    0    0    0  501 -0.00000000000E+00 -0.00000000000E+00 -0.17952774184E+03  0.17952774184E+03  0.00000000000E+00 0.  1.
         24    2    1    2    0    0  0.18796546559E+03 -0.50360331733E+02 -0.43703852900E+01  0.20892154219E+03  0.75907386049E+02 0.  0.
        254    2    1    2    0    0 -0.18796546559E+03  0.50360331733E+02  0.27977087273E+04  0.29434722835E+04  0.89386116464E+03 0.  0.
         23    2    4    4    0    0  0.30400564180E+03  0.11455449385E+03  0.59552798716E+03  0.68426464106E+03  0.89567590177E+02 0.  0.
         23    2    4    4    0    0 -0.49197110739E+03 -0.64194162117E+02  0.22021807401E+04  0.22592076424E+04  0.90899386434E+02 0.  0.
          2    1    3    3  502    0  0.81832725172E+02 -0.32405518283E+02 -0.38403320696E+02  0.96028785084E+02  0.00000000000E+00 0. -1.
         -1    1    3    3    0  502  0.10613274042E+03 -0.17954813450E+02  0.34032935406E+02  0.11289275711E+03  0.00000000000E+00 0.  1.
         13    1    5    5    0    0  0.24935578755E+02  0.35404250811E+02  0.48033341782E+02  0.64671833020E+02  0.00000000000E+00 0. -1.
        -13    1    5    5    0    0  0.27907006304E+03  0.79150243038E+02  0.54749464538E+03  0.61959280804E+03  0.00000000000E+00 0.  1.
          2    1    6    6  503    0  0.49200062944E+00 -0.68566293527E+01  0.60496336446E+02  0.60885648179E+02  0.00000000000E+00 0. -1.
         -2    1    6    6    0  503 -0.49246310802E+03 -0.57337532764E+02  0.21416844037E+04  0.21983219942E+04  0.00000000000E+00 0.  1.
<mgrwt>
<rscale>  0 0.14611118E+04</rscale>
<asrwt>0</asrwt>
<pdfrwt beam="1">  1        2 0.45736398E+00 0.14611118E+04</pdfrwt>
<pdfrwt beam="2">  1       -1 0.27619655E-01 0.14611118E+04</pdfrwt>
<totfact> 0.23738911E+01</totfact>
</mgrwt>
</event>
<event>
12    7  0.1544987E-007  0.3305583E+04  0.7818608E-02  0.8161476E-01
         -1   -1    0    0    0  501 -0.00000000000E+00  0.00000000000E+00  0.16455413644E+04  0.16455413644E+04  0.00000000000E+00 0.  1.
          2   -1    0    0  501    0  0.00000000000E+00 -0.00000000000E+00 -0.16600738968E+04  0.16600738968E+04  0.00000000000E+00 0. -1.
         24    2    1    2    0    0 -0.90624346375E+03 -0.10417860448E+04 -0.66349320025E+03  0.15341006513E+04  0.81524247057E+02 0.  0.
        254    2    1    2    0    0  0.90624346375E+03  0.10417860448E+04  0.64896066784E+03  0.17715146099E+04  0.90028811275E+03 0.  0.
         23    2    4    4    0    0  0.36899622748E+02 -0.69700415105E+02 -0.11350746020E+03  0.16504576203E+03  0.90202161941E+02 0.  0.
         23    2    4    4    0    0  0.86934384101E+03  0.11114864599E+04  0.76246812804E+03  0.16064688479E+04  0.90684334067E+02 0.  0.
          4    1    3    3  502    0 -0.89096104724E+03 -0.10041648315E+04 -0.64015441380E+03  0.14872646940E+04  0.00000000000E+00 0. -1.
         -3    1    3    3    0  502 -0.15282416509E+02 -0.37621213284E+02 -0.23338786452E+02  0.46835957302E+02  0.00000000000E+00 0.  1.
         13    1    5    5    0    0  0.45890273417E+00  0.18425980893E+02 -0.41949666901E+02  0.45820322093E+02  0.00000000000E+00 0. -1.
        -13    1    5    5    0    0  0.36440720014E+02 -0.88126395999E+02 -0.71557793301E+02  0.11922543994E+03  0.00000000000E+00 0.  1.
          2    1    6    6  503    0  0.70397671053E+03  0.91663442442E+03  0.66147415533E+03  0.13316718572E+04  0.00000000000E+00 0.  1.
         -2    1    6    6    0  503  0.16536713048E+03  0.19485203548E+03  0.10099397271E+03  0.27479699070E+03  0.00000000000E+00 0. -1.
<mgrwt>
<rscale>  0 0.33055833E+04</rscale>
<asrwt>0</asrwt>
<pdfrwt beam="1">  1        2 0.25539598E+00 0.33055833E+04</pdfrwt>
<pdfrwt beam="2">  1       -1 0.25316021E+00 0.33055833E+04</pdfrwt>
<totfact> 0.65208115E-01</totfact>
</mgrwt>
</event>
<event>
12    7  0.1544987E-007  0.1915948E+04  0.7818608E-02  0.8646959E-01
          2   -1    0    0  501    0  0.00000000000E+00  0.00000000000E+00  0.25899765434E+04  0.25899765434E+04  0.00000000000E+00 0. -1.
         -1   -1    0    0    0  501 -0.00000000000E+00 -0.00000000000E+00 -0.35433287025E+03  0.35433287025E+03  0.00000000000E+00 0.  1.
         24    2    1    2    0    0 -0.26137832765E+03  0.26163151230E+03  0.18306037657E+04  0.18693091586E+04  0.80230325215E+02 0.  0.
        254    2    1    2    0    0  0.26137832765E+03 -0.26163151230E+03  0.40503990746E+03  0.10750002550E+04  0.92455315873E+03 0.  0.
         23    2    4    4    0    0 -0.23246740023E+03  0.10426676053E+03 -0.83901673811E+02  0.28428091486E+03  0.94146153212E+02 0.  0.
         23    2    4    4    0    0  0.49384572788E+03 -0.36589827283E+03  0.48894158127E+03  0.79071934019E+03  0.91695452720E+02 0.  0.
          4    1    3    3  502    0 -0.12839533006E+03  0.97608263620E+02  0.96067523348E+03  0.97411993005E+03  0.00000000000E+00 0. -1.
         -3    1    3    3    0  502 -0.13298299759E+03  0.16402324868E+03  0.86992853224E+03  0.89518922857E+03  0.00000000000E+00 0.  1.
         13    1    5    5    0    0 -0.12568546099E+03  0.28469359898E+02 -0.83081667094E+02  0.15332939367E+03  0.00000000000E+00 0. -1.
        -13    1    5    5    0    0 -0.10678193924E+03  0.75797400628E+02 -0.82000671724E+00  0.13095152119E+03  0.00000000000E+00 0.  1.
          3    1    6    6  503    0  0.30277308237E+03 -0.22541813716E+03  0.35588699389E+03  0.51878745974E+03  0.00000000000E+00 0. -1.
         -3    1    6    6    0  503  0.19107264551E+03 -0.14048013566E+03  0.13305458739E+03  0.27193188045E+03  0.00000000000E+00 0.  1.
<mgrwt>
<rscale>  0 0.19159476E+04</rscale>
<asrwt>0</asrwt>
<pdfrwt beam="1">  1        2 0.39845792E+00 0.19159476E+04</pdfrwt>
<pdfrwt beam="2">  1       -1 0.54512751E-01 0.19159476E+04</pdfrwt>
<totfact> 0.11178033E+01</totfact>
</mgrwt>
</event>
<event>
12    7  0.1544987E-007  0.2376034E+04  0.7818608E-02  0.8448531E-01
          2   -1    0    0  501    0  0.00000000000E+00  0.00000000000E+00  0.19059300441E+04  0.19059300441E+04  0.00000000000E+00 0. -1.
         -1   -1    0    0    0  501 -0.00000000000E+00 -0.00000000000E+00 -0.74052278652E+03  0.74052278652E+03  0.00000000000E+00 0.  1.
         24    2    1    2    0    0 -0.65392157406E+03  0.71764171223E+03  0.83716554680E+03  0.12843284803E+04  0.77655910389E+02 0.  0.
        254    2    1    2    0    0  0.65392157406E+03 -0.71764171223E+03  0.32824171079E+03  0.13621243503E+04  0.89722743654E+03 0.  0.
         23    2    4    4    0    0  0.23599836595E+02 -0.65711727278E+03  0.54231980392E+02  0.66611938938E+03  0.91727153770E+02 0.  0.
         23    2    4    4    0    0  0.63032173747E+03 -0.60524439449E+02  0.27400973039E+03  0.69600496094E+03  0.91503403273E+02 0.  0.
          4    1    3    3  502    0 -0.51495162913E+02  0.33350409372E+02  0.39666794412E+02  0.73057896135E+02  0.00000000000E+00 0. -1.
         -1    1    3    3    0  502 -0.60242641115E+03  0.68429130286E+03  0.79749875238E+03  0.12112705842E+04  0.00000000000E+00 0.  1.
         13    1    5    5    0    0  0.32782940638E+02 -0.15715199581E+03  0.41921375903E+02  0.16591827127E+03  0.00000000000E+00 0. -1.
        -13    1    5    5    0    0 -0.91831040424E+01 -0.49996527697E+03  0.12310604489E+02  0.50020111811E+03  0.00000000000E+00 0.  1.
          2    1    6    6  503    0  0.55957817429E+03 -0.74872455193E+02  0.22027075928E+03  0.60601388193E+03  0.00000000000E+00 0.  1.
         -2    1    6    6    0  503  0.70743563176E+02  0.14348015744E+02  0.53738971112E+02  0.89991079018E+02  0.00000000000E+00 0. -1.
<mgrwt>
<rscale>  0 0.23760342E+04</rscale>
<asrwt>0</asrwt>
<pdfrwt beam="1">  1        2 0.29322001E+00 0.23760342E+04</pdfrwt>
<pdfrwt beam="2">  1       -1 0.11392658E+00 0.23760342E+04</pdfrwt>
<totfact> 0.54251700E+00</totfact>
</mgrwt>
</event>
<event>
12    7  0.1544987E-007  0.1498591E+04  0.7818608E-02  0.8885391E-01
         -1   -1    0    0    0  501 -0.00000000000E+00  0.00000000000E+00  0.23585495216E+03  0.23585495216E+03  0.00000000000E+00 0.  1.
          2   -1    0    0  501    0  0.00000000000E+00 -0.00000000000E+00 -0.23804606756E+04  0.23804606756E+04  0.00000000000E+00 0. -1.
         24    2    1    2    0    0 -0.88447732212E+01  0.43378007170E+03 -0.10527554871E+04  0.11416902744E+04  0.83181647721E+02 0.  0.
        254    2    1    2    0    0  0.88447732212E+01 -0.43378007170E+03 -0.10918502364E+04  0.14746253533E+04  0.89114511358E+03 0.  0.
         23    2    4    4    0    0  0.41155547763E+03 -0.37411862383E+03 -0.51743545018E+03  0.76518846390E+03  0.91822025218E+02 0.  0.
         23    2    4    4    0    0 -0.40271070441E+03 -0.59661447871E+02 -0.57441478619E+03  0.70943688945E+03  0.87252241881E+02 0.  0.
          2    1    3    3  502    0  0.88108943457E+01  0.41754218663E+03 -0.98851334703E+03  0.10731159055E+04  0.00000000000E+00 0. -1.
         -1    1    3    3    0  502 -0.17655667567E+02  0.16237885061E+02 -0.64242140053E+02  0.68574368878E+02  0.00000000000E+00 0.  1.
         13    1    5    5    0    0  0.71603755857E+02 -0.74566860480E+02 -0.52348650314E+02  0.11587793459E+03  0.00000000000E+00 0. -1.
        -13    1    5    5    0    0  0.33995172177E+03 -0.29955176335E+03 -0.46508679987E+03  0.64931052931E+03  0.00000000000E+00 0.  1.
          2    1    6    6  503    0 -0.68727749627E+02  0.20504313912E+02 -0.80219389720E+02  0.10760613804E+03  0.00000000000E+00 0. -1.
         -2    1    6    6    0  503 -0.33398295478E+03 -0.80165761782E+02 -0.49419539647E+03  0.60183075141E+03  0.00000000000E+00 0.  1.
<mgrwt>
<rscale>  0 0.14985906E+04</rscale>
<asrwt>0</asrwt>
<pdfrwt beam="1">  1        2 0.36622468E+00 0.14985906E+04</pdfrwt>
<pdfrwt beam="2">  1       -1 0.36285381E-01 0.14985906E+04</pdfrwt>
<totfact> 0.32712765E+01</totfact>
</mgrwt>
</event>
<event>
12    7  0.1544987E-007  0.1546343E+04  0.7818608E-02  0.8854207E-01
         -1   -1    0    0    0  501 -0.00000000000E+00  0.00000000000E+00  0.67572284265E+03  0.67572284265E+03  0.00000000000E+00 0.  1.
          2   -1    0    0  501    0  0.00000000000E+00 -0.00000000000E+00 -0.88467378494E+03  0.88467378494E+03  0.00000000000E+00 0. -1.
         24    2    1    2    0    0  0.35597360135E+03 -0.23997109341E+02 -0.42886738588E+03  0.56362363041E+03  0.80319959971E+02 0.  0.
        254    2    1    2    0    0 -0.35597360135E+03  0.23997109341E+02  0.21991644359E+03  0.99677299718E+03  0.90437829453E+03 0.  0.
         23    2    4    4    0    0 -0.20060664899E+03 -0.14548516417E+03 -0.31263814463E+03  0.40951552635E+03  0.92473759677E+02 0.  0.
         23    2    4    4    0    0 -0.15536695236E+03  0.16948227352E+03  0.53255458822E+03  0.58725747083E+03  0.91617774950E+02 0.  0.
          2    1    3    3  502    0  0.31955899869E+03 -0.27337320983E+02 -0.33937342255E+03  0.46694710910E+03  0.00000000000E+00 0. -1.
         -1    1    3    3    0  502  0.36414602667E+02  0.33402116422E+01 -0.89493963328E+02  0.96676521314E+02  0.00000000000E+00 0.  1.
         13    1    5    5    0    0 -0.20433406302E+03 -0.14650785963E+03 -0.27868424593E+03  0.37534233864E+03  0.00000000000E+00 0. -1.
        -13    1    5    5    0    0  0.37274140330E+01  0.10226954572E+01 -0.33953898696E+02  0.34173187707E+02  0.00000000000E+00 0.  1.
          3    1    6    6  503    0 -0.62614478326E+02  0.11211239473E+03  0.20377240309E+03  0.24085878478E+03  0.00000000000E+00 0. -1.
         -3    1    6    6    0  503 -0.92752474037E+02  0.57369878786E+02  0.32878218514E+03  0.34639868605E+03  0.00000000000E+00 0.  1.
<mgrwt>
<rscale>  0 0.15463432E+04</rscale>
<asrwt>0</asrwt>
<pdfrwt beam="1">  1        2 0.13610366E+00 0.15463432E+04</pdfrwt>
<pdfrwt beam="2">  1       -1 0.10395736E+00 0.15463432E+04</pdfrwt>
<totfact> 0.28769410E+01</totfact>
</mgrwt>
</event>
<event>
12    7  0.1544987E-007  0.1606676E+04  0.7818608E-02  0.8816457E-01
         -1   -1    0    0    0  501 -0.00000000000E+00  0.00000000000E+00  0.75628084675E+03  0.75628084675E+03  0.00000000000E+00 0.  1.
          2   -1    0    0  501    0  0.00000000000E+00 -0.00000000000E+00 -0.85332276291E+03  0.85332276291E+03  0.00000000000E+00 0. -1.
         24    2    1    2    0    0  0.30837448886E+03  0.30225351105E+02  0.42330355945E+03  0.53072023372E+03  0.80434232793E+02 0.  0.
        254    2    1    2    0    0 -0.30837448886E+03 -0.30225351105E+02 -0.52034547561E+03  0.10788833760E+04  0.89287262680E+03 0.  0.
         23    2    4    4    0    0 -0.45802380698E+03 -0.32358323425E+03 -0.17872898336E+03  0.59546366030E+03  0.90227512440E+02 0.  0.
         23    2    4    4    0    0  0.14964931812E+03  0.29335788314E+03 -0.34161649225E+03  0.48341971565E+03  0.92406859506E+02 0.  0.
          4    1    3    3  502    0  0.15085192402E+03 -0.11890880013E+02  0.15401178873E+03  0.21591046078E+03  0.00000000000E+00 0. -1.
         -3    1    3    3    0  502  0.15752256484E+03  0.42116231118E+02  0.26929177072E+03  0.31480977293E+03  0.00000000000E+00 0.  1.
         13    1    5    5    0    0 -0.37496246612E+02 -0.54967915731E+02 -0.36322105699E+01  0.66638076378E+02  0.00000000000E+00 0.  1.
        -13    1    5    5    0    0 -0.42052756037E+03 -0.26861531852E+03 -0.17509677279E+03  0.52882558393E+03  0.00000000000E+00 0. -1.
          3    1    6    6  503    0  0.57194511855E+02  0.16727777965E+03 -0.23546363679E+03  0.29444217090E+03  0.00000000000E+00 0. -1.
         -3    1    6    6    0  503  0.92454806267E+02  0.12608010349E+03 -0.10615285546E+03  0.18897754475E+03  0.00000000000E+00 0.  1.
<mgrwt>
<rscale>  0 0.16066757E+04</rscale>
<asrwt>0</asrwt>
<pdfrwt beam="1">  1        2 0.13128043E+00 0.16066757E+04</pdfrwt>
<pdfrwt beam="2">  1       -1 0.11635090E+00 0.16066757E+04</pdfrwt>
<totfact> 0.23055307E+01</totfact>
</mgrwt>
</event>
<event>
12    7  0.1544987E-007  0.2881460E+04  0.7818608E-02  0.8278415E-01
         -1   -1    0    0    0  501 -0.00000000000E+00  0.00000000000E+00  0.32052610957E+04  0.32052610957E+04  0.00000000000E+00 0.  1.
          2   -1    0    0  501    0  0.00000000000E+00 -0.00000000000E+00 -0.64759252844E+03  0.64759252844E+03  0.00000000000E+00 0. -1.
         24    2    1    2    0    0 -0.35531708296E+02  0.11834101465E+04  0.18647099872E+04  0.22103797170E+04  0.83144932022E+02 0.  0.
        254    2    1    2    0    0  0.35531708296E+02 -0.11834101465E+04  0.69295858006E+03  0.16424739072E+04  0.90322027497E+03 0.  0.
         23    2    4    4    0    0  0.30504679194E+03 -0.11229857213E+04  0.67968027714E+03  0.13507463024E+04  0.91650524559E+02 0.  0.
         23    2    4    4    0    0 -0.26951508364E+03 -0.60424425128E+02  0.13278302914E+02  0.29172760482E+03  0.92947246468E+02 0.  0.
          2    1    3    3  502    0 -0.31848328597E+01  0.40466199119E+03  0.56711313564E+03  0.69669130817E+03  0.00000000000E+00 0. -1.
         -1    1    3    3    0  502 -0.32346875437E+02  0.77874815527E+03  0.12975968516E+04  0.15136884088E+04  0.00000000000E+00 0.  1.
         13    1    5    5    0    0  0.22949928114E+03 -0.96829781245E+03  0.58136446905E+03  0.11524995529E+04  0.00000000000E+00 0. -1.
        -13    1    5    5    0    0  0.75547510801E+02 -0.15468790887E+03  0.98315808093E+02  0.19824674943E+03  0.00000000000E+00 0.  1.
          4    1    6    6  503    0 -0.27003007479E+03 -0.42743847518E+02  0.90537714486E+01  0.27354204169E+03  0.00000000000E+00 0. -1.
         -4    1    6    6    0  503  0.51499115110E+00 -0.17680577610E+02  0.42245314649E+01  0.18185563137E+02  0.00000000000E+00 0.  1.
<mgrwt>
<rscale>  0 0.28814601E+04</rscale>
<asrwt>0</asrwt>
<pdfrwt beam="1">  1        2 0.99629622E-01 0.28814601E+04</pdfrwt>
<pdfrwt beam="2">  1       -1 0.49311708E+00 0.28814601E+04</pdfrwt>
<totfact> 0.73365284E-02</totfact>
</mgrwt>
</event>
<event>
12    7  0.1544987E-007  0.3340975E+04  0.7818608E-02  0.8152547E-01
         -1   -1    0    0    0  501 -0.00000000000E+00  0.00000000000E+00  0.15525887956E+04  0.15525887956E+04  0.00000000000E+00 0.  1.
          2   -1    0    0  501    0  0.00000000000E+00 -0.00000000000E+00 -0.17973394268E+04  0.17973394268E+04  0.00000000000E+00 0. -1.
         24    2    1    2    0    0 -0.18720904109E+03 -0.16216918378E+03  0.14166286149E+04  0.14404688554E+04  0.82266769880E+02 0.  0.
        254    2    1    2    0    0  0.18720904109E+03  0.16216918378E+03 -0.16613792462E+04  0.19094593670E+04  0.90802423167E+03 0.  0.
         23    2    4    4    0    0  0.28025330224E+03  0.23628558725E+03 -0.17628886163E+03  0.41683276154E+03  0.91098826580E+02 0.  0.
         23    2    4    4    0    0 -0.93044261155E+02 -0.74116403467E+02 -0.14850903846E+04  0.14926266054E+04  0.91050849382E+02 0.  0.
          2    1    3    3  502    0 -0.41070373074E+02 -0.57031200509E+02  0.23764874011E+03  0.24782303575E+03  0.00000000000E+00 0. -1.
         -1    1    3    3    0  502 -0.14613866801E+03 -0.10513798327E+03  0.11789798748E+04  0.11926458196E+04  0.00000000000E+00 0.  1.
         13    1    5    5    0    0  0.23906891806E+03  0.17408262940E+03 -0.10549367567E+03  0.31398666381E+03  0.00000000000E+00 0. -1.
        -13    1    5    5    0    0  0.41184384185E+02  0.62202957843E+02 -0.70795185960E+02  0.10284609774E+03  0.00000000000E+00 0.  1.
          3    1    6    6  503    0 -0.11104711585E+03 -0.66904735090E+02 -0.12352825266E+04  0.12420670779E+04  0.00000000000E+00 0. -1.
         -3    1    6    6    0  503  0.18002854692E+02 -0.72116683778E+01 -0.24980785800E+03  0.25055952757E+03  0.00000000000E+00 0.  1.
<mgrwt>
<rscale>  0 0.33409753E+04</rscale>
<asrwt>0</asrwt>
<pdfrwt beam="1">  1        2 0.27651376E+00 0.33409753E+04</pdfrwt>
<pdfrwt beam="2">  1       -1 0.23885982E+00 0.33409753E+04</pdfrwt>
<totfact> 0.67649877E-01</totfact>
</mgrwt>
</event>
<event>
12    7  0.1544987E-007  0.1498837E+04  0.7818608E-02  0.8885227E-01
          2   -1    0    0  501    0  0.00000000000E+00  0.00000000000E+00  0.41536280202E+03  0.41536280202E+03  0.00000000000E+00 0. -1.
         -3   -1    0    0    0  501 -0.00000000000E+00 -0.00000000000E+00 -0.13521378156E+04  0.13521378156E+04  0.00000000000E+00 0.  1.
         24    2    1    2    0    0  0.28363071494E+03  0.41279407986E+03 -0.32337084753E+03  0.60160898601E+03  0.80742381652E+02 0.  0.
        254    2    1    2    0    0 -0.28363071494E+03 -0.41279407986E+03 -0.61340416607E+03  0.11658916316E+04  0.85568293832E+03 0.  0.
         23    2    4    4    0    0 -0.41856281901E+03 -0.44545202559E+03 -0.73371116669E+03  0.95939445448E+03  0.92104845618E+02 0.  0.
         23    2    4    4    0    0  0.13493210407E+03  0.32657945733E+02  0.12030700062E+03  0.20649717715E+03  0.94308513108E+02 0.  0.
          4    1    3    3  502    0  0.26148934029E+03  0.39766773629E+03 -0.28482856114E+03  0.55465630152E+03  0.00000000000E+00 0. -1.
         -3    1    3    3    0  502  0.22141374651E+02  0.15126343567E+02 -0.38542286388E+02  0.46952684494E+02  0.00000000000E+00 0.  1.
         13    1    5    5    0    0 -0.95125933417E+02 -0.16016879804E+03 -0.20244640937E+03  0.27511367785E+03  0.00000000000E+00 0.  1.
        -13    1    5    5    0    0 -0.32343688559E+03 -0.28528322756E+03 -0.53126475732E+03  0.68428077663E+03  0.00000000000E+00 0. -1.
          2    1    6    6  503    0  0.14680787450E+03  0.41873860635E+02  0.10706390465E+03  0.18646354040E+03  0.00000000000E+00 0. -1.
         -2    1    6    6    0  503 -0.11875770425E+02 -0.92159149024E+01  0.13243095971E+02  0.20033636754E+02  0.00000000000E+00 0.  1.
<mgrwt>
<rscale>  0 0.14988366E+04</rscale>
<asrwt>0</asrwt>
<pdfrwt beam="1">  1        2 0.63901971E-01 0.14988366E+04</pdfrwt>
<pdfrwt beam="2">  1       -3 0.20802120E+00 0.14988366E+04</pdfrwt>
<totfact> 0.59978141E+00</totfact>
</mgrwt>
</event>
<event>
12    7  0.1544987E-007  0.1528104E+04  0.7818608E-02  0.8865976E-01
          2   -1    0    0  501    0  0.00000000000E+00  0.00000000000E+00  0.19632845265E+04  0.19632845265E+04  0.00000000000E+00 0. -1.
         -1   -1    0    0    0  501 -0.00000000000E+00 -0.00000000000E+00 -0.29734635440E+03  0.29734635440E+03  0.00000000000E+00 0.  1.
         24    2    1    2    0    0 -0.11314978080E+03  0.47933230775E+03  0.49589031178E+03  0.70353076639E+03  0.80535729936E+02 0.  0.
        254    2    1    2    0    0  0.11314978080E+03 -0.47933230775E+03  0.11700478603E+04  0.15571001145E+04  0.90165760519E+03 0.  0.
         23    2    4    4    0    0  0.12896777857E+03  0.19560772066E+03  0.66362671342E+02  0.26015553817E+03  0.91552343532E+02 0.  0.
         23    2    4    4    0    0 -0.15817997771E+02 -0.67494002841E+03  0.11036851890E+04  0.12969445763E+04  0.90277276776E+02 0.  0.
          4    1    3    3  502    0 -0.11698093251E+03  0.39105743564E+03  0.43309427016E+03  0.59513116485E+03  0.00000000000E+00 0. -1.
         -3    1    3    3    0  502  0.38311517140E+01  0.88274872115E+02  0.62796041621E+02  0.10839960154E+03  0.00000000000E+00 0.  1.
         13    1    5    5    0    0  0.14225143899E+03  0.16948276528E+03  0.51021563443E+02  0.22707505270E+03  0.00000000000E+00 0. -1.
        -13    1    5    5    0    0 -0.13283660425E+02  0.26124955377E+02  0.15341107900E+02  0.33080485476E+02  0.00000000000E+00 0.  1.
          1    1    6    6  503    0 -0.39927938407E+02 -0.60460754939E+03  0.96160427835E+03  0.11365858160E+04  0.00000000000E+00 0. -1.
         -1    1    6    6    0  503  0.24109940636E+02 -0.70332479013E+02  0.14208091061E+03  0.16035876029E+03  0.00000000000E+00 0.  1.
<mgrwt>
<rscale>  0 0.15281040E+04</rscale>
<asrwt>0</asrwt>
<pdfrwt beam="1">  1        2 0.30204376E+00 0.15281040E+04</pdfrwt>
<pdfrwt beam="2">  1       -1 0.45745594E-01 0.15281040E+04</pdfrwt>
<totfact> 0.36533408E+01</totfact>
</mgrwt>
</event>
<event>
12    7  0.1544987E-007  0.1330268E+04  0.7818608E-02  0.9005901E-01
         -1   -1    0    0    0  501 -0.00000000000E+00  0.00000000000E+00  0.23392080118E+03  0.23392080118E+03  0.00000000000E+00 0.  1.
          2   -1    0    0  501    0  0.00000000000E+00 -0.00000000000E+00 -0.18912527212E+04  0.18912527212E+04  0.00000000000E+00 0. -1.
         24    2    1    2    0    0  0.30628642973E+02 -0.24169307893E+03 -0.40402495934E+02  0.25910605971E+03  0.78421491497E+02 0.  0.
        254    2    1    2    0    0 -0.30628642973E+02  0.24169307893E+03 -0.16169294241E+04  0.18660674627E+04  0.89910697614E+03 0.  0.
         23    2    4    4    0    0 -0.35209765189E+03 -0.67878242068E+02 -0.31305293827E+03  0.48481298875E+03  0.91985214508E+02 0.  0.
         23    2    4    4    0    0  0.32146900891E+03  0.30957132100E+03 -0.13038764858E+04  0.13812544739E+04  0.92700080702E+02 0.  0.
          4    1    3    3  502    0 -0.20189432360E+02 -0.87364594925E+02  0.67545148992E+01  0.89921127089E+02  0.00000000000E+00 0. -1.
         -3    1    3    3    0  502  0.50818075333E+02 -0.15432848401E+03 -0.47157010833E+02  0.16918493263E+03  0.00000000000E+00 0.  1.
         13    1    5    5    0    0 -0.86956036573E+02  0.19551360255E+02 -0.97509439865E+02  0.13210487821E+03  0.00000000000E+00 0. -1.
        -13    1    5    5    0    0 -0.26514161531E+03 -0.87429602323E+02 -0.21554349841E+03  0.35270811054E+03  0.00000000000E+00 0.  1.
          2    1    6    6  503    0 -0.10249312278E+01 -0.50393557230E+01 -0.18745361955E+02  0.19437957324E+02  0.00000000000E+00 0. -1.
         -2    1    6    6    0  503  0.32249394014E+03  0.31461067672E+03 -0.12851311239E+04  0.13618165166E+04  0.00000000000E+00 0.  1.
<mgrwt>
<rscale>  0 0.13302682E+04</rscale>
<asrwt>0</asrwt>
<pdfrwt beam="1">  1        2 0.29096194E+00 0.13302682E+04</pdfrwt>
<pdfrwt beam="2">  1       -1 0.35987818E-01 0.13302682E+04</pdfrwt>
<totfact> 0.63175716E+01</totfact>
</mgrwt>
</event>
<event>
12    7  0.1544987E-007  0.2555275E+04  0.7818608E-02  0.8383554E-01
          2   -1    0    0  501    0  0.00000000000E+00  0.00000000000E+00  0.22593722752E+04  0.22593722752E+04  0.00000000000E+00 0. -1.
         -1   -1    0    0    0  501 -0.00000000000E+00 -0.00000000000E+00 -0.72248296620E+03  0.72248296620E+03  0.00000000000E+00 0.  1.
         24    2    1    2    0    0 -0.12381817126E+03  0.10723412799E+04  0.10170238018E+04  0.14852353288E+04  0.79622914782E+02 0.  0.
        254    2    1    2    0    0  0.12381817126E+03 -0.10723412799E+04  0.51986550717E+03  0.14966199125E+04  0.89686356648E+03 0.  0.
         23    2    4    4    0    0 -0.18158775287E+02 -0.97557271007E+03  0.41544202587E+02  0.98076476488E+03  0.90009718960E+02 0.  0.
         23    2    4    4    0    0  0.14197694655E+03 -0.96768569815E+02  0.47832130458E+03  0.51585514763E+03  0.88281671132E+02 0.  0.
          2    1    3    3  502    0 -0.34592944519E+02  0.27457435446E+03  0.30964446048E+03  0.41529199348E+03  0.00000000000E+00 0. -1.
         -1    1    3    3    0  502 -0.89225226744E+02  0.79776692543E+03  0.70737934130E+03  0.10699433354E+04  0.00000000000E+00 0.  1.
         13    1    5    5    0    0 -0.28715738000E+02 -0.16346116208E+03  0.29056216348E+02  0.16848860147E+03  0.00000000000E+00 0. -1.
        -13    1    5    5    0    0  0.10556962712E+02 -0.81211154799E+03  0.12487986239E+02  0.81227616341E+03  0.00000000000E+00 0.  1.
          4    1    6    6  503    0  0.35832709153E+02  0.35514949851E+00  0.36297415564E+02  0.51005995266E+02  0.00000000000E+00 0. -1.
         -4    1    6    6    0  503  0.10614423740E+03 -0.97123719314E+02  0.44202388902E+03  0.46484915236E+03  0.00000000000E+00 0.  1.
<mgrwt>
<rscale>  0 0.25552753E+04</rscale>
<asrwt>0</asrwt>
<pdfrwt beam="1">  1        2 0.34759573E+00 0.25552753E+04</pdfrwt>
<pdfrwt beam="2">  1       -1 0.11115123E+00 0.25552753E+04</pdfrwt>
<totfact> 0.35938956E+00</totfact>
</mgrwt>
</event>
<event>
12    7  0.1544987E-007  0.1330473E+04  0.7818608E-02  0.9005743E-01
         -1   -1    0    0    0  501 -0.00000000000E+00  0.00000000000E+00  0.15092222593E+04  0.15092222593E+04  0.00000000000E+00 0.  1.
          2   -1    0    0  501    0  0.00000000000E+00 -0.00000000000E+00 -0.29322342110E+03  0.29322342110E+03  0.00000000000E+00 0. -1.
         24    2    1    2    0    0 -0.33513898928E+02 -0.15533377698E+03  0.76212475835E+03  0.78261765554E+03  0.80028018653E+02 0.  0.
        254    2    1    2    0    0  0.33513898928E+02  0.15533377698E+03  0.45387407986E+03  0.10198280249E+04  0.89933072685E+03 0.  0.
         23    2    4    4    0    0  0.31752114401E+03  0.38698437337E+03  0.14003408913E+03  0.52748277059E+03  0.89732630774E+02 0.  0.
         23    2    4    4    0    0 -0.28400724509E+03 -0.23165059639E+03  0.31383999074E+03  0.49234525429E+03  0.97909118883E+02 0.  0.
          2    1    3    3  502    0 -0.34957089142E+01  0.10085773020E+01 -0.39212117025E+00  0.36593671583E+01  0.00000000000E+00 0. -1.
         -1    1    3    3    0  502 -0.30018190014E+02 -0.15634235428E+03  0.76251687952E+03  0.77895828838E+03  0.00000000000E+00 0.  1.
         13    1    5    5    0    0  0.18435420238E+02  0.24665716165E+02 -0.12921808613E+02  0.33395140532E+02  0.00000000000E+00 0. -1.
        -13    1    5    5    0    0  0.29908572378E+03  0.36231865720E+03  0.15295589774E+03  0.49408763006E+03  0.00000000000E+00 0.  1.
          1    1    6    6  503    0  0.11585257621E+01 -0.60794637337E+01 -0.56086523527E+01  0.83521878837E+01  0.00000000000E+00 0. -1.
         -1    1    6    6    0  503 -0.28516577085E+03 -0.22557113266E+03  0.31944864309E+03  0.48399306640E+03  0.00000000000E+00 0.  1.
<mgrwt>
<rscale>  0 0.13304726E+04</rscale>
<asrwt>0</asrwt>
<pdfrwt beam="1">  1        2 0.45111296E-01 0.13304726E+04</pdfrwt>
<pdfrwt beam="2">  1       -1 0.23218804E+00 0.13304726E+04</pdfrwt>
<totfact> 0.11529090E+01</totfact>
</mgrwt>
</event>
<event>
12    7  0.1544987E-007  0.2339058E+04  0.7818608E-02  0.8462678E-01
          2   -1    0    0  501    0  0.00000000000E+00  0.00000000000E+00  0.18067823300E+04  0.18067823300E+04  0.00000000000E+00 0. -1.
         -1   -1    0    0    0  501 -0.00000000000E+00 -0.00000000000E+00 -0.75703531398E+03  0.75703531398E+03  0.00000000000E+00 0.  1.
         24    2    1    2    0    0 -0.77615226163E+03  0.56223153859E+02  0.11269594839E+04  0.13718220310E+04  0.79275659026E+02 0.  0.
        254    2    1    2    0    0  0.77615226163E+03 -0.56223153859E+02 -0.77212467886E+02  0.11919956130E+04  0.89962125360E+03 0.  0.
         23    2    4    4    0    0  0.18406946928E+02  0.13089771982E+03 -0.32909887362E+03  0.36641377218E+03  0.92086671530E+02 0.  0.
         23    2    4    4    0    0  0.75774531470E+03 -0.18712087368E+03  0.25188640574E+03  0.82558184081E+03  0.94585575864E+02 0.  0.
          4    1    3    3  502    0 -0.61224358355E+03  0.62253949099E+02  0.93477854749E+03  0.11191642831E+04  0.00000000000E+00 0. -1.
         -3    1    3    3    0  502 -0.16390867808E+03 -0.60307952395E+01  0.19218093644E+03  0.25265774790E+03  0.00000000000E+00 0.  1.
         13    1    5    5    0    0 -0.31270916717E+02  0.63592586376E+02 -0.10035644015E+03  0.12285480192E+03  0.00000000000E+00 0.  1.
        -13    1    5    5    0    0  0.49677863646E+02  0.67305133442E+02 -0.22874243347E+03  0.24355897026E+03  0.00000000000E+00 0. -1.
          4    1    6    6  503    0  0.19490696175E+03 -0.73092894448E+02  0.10337256609E+03  0.23241596842E+03  0.00000000000E+00 0. -1.
         -4    1    6    6    0  503  0.56283835295E+03 -0.11402797923E+03  0.14851383965E+03  0.59316587239E+03  0.00000000000E+00 0.  1.
<mgrwt>
<rscale>  0 0.23390580E+04</rscale>
<asrwt>0</asrwt>
<pdfrwt beam="1">  1        2 0.27796651E+00 0.23390580E+04</pdfrwt>
<pdfrwt beam="2">  1       -1 0.11646697E+00 0.23390580E+04</pdfrwt>
<totfact> 0.58591544E+00</totfact>
</mgrwt>
</event>
<event>
12    7  0.1544987E-007  0.1737967E+04  0.7818608E-02  0.8740002E-01
          2   -1    0    0  501    0  0.00000000000E+00  0.00000000000E+00  0.33377197732E+04  0.33377197732E+04  0.00000000000E+00 0. -1.
         -1   -1    0    0    0  501 -0.00000000000E+00 -0.00000000000E+00 -0.22624187210E+03  0.22624187210E+03  0.00000000000E+00 0.  1.
         24    2    1    2    0    0  0.10394929170E+03  0.41087949220E+03  0.17940461322E+03  0.46741790202E+03  0.81645989056E+02 0.  0.
        254    2    1    2    0    0 -0.10394929170E+03 -0.41087949220E+03  0.29320732879E+04  0.30965437433E+04  0.90105603393E+03 0.  0.
         23    2    4    4    0    0  0.27914583195E+03 -0.37466962497E+03  0.23166232338E+04  0.23649940481E+04  0.90299041195E+02 0.  0.
         23    2    4    4    0    0 -0.38309512365E+03 -0.36209867221E+02  0.61545005414E+03  0.73154969524E+03  0.91176527795E+02 0.  0.
          4    1    3    3  502    0  0.73470742906E+01  0.45797615854E+01 -0.59517516202E+01  0.10506048932E+02  0.00000000000E+00 0. -1.
         -3    1    3    3    0  502  0.96602217411E+02  0.40629973061E+03  0.18535636484E+03  0.45691185309E+03  0.00000000000E+00 0.  1.
         13    1    5    5    0    0  0.24386070567E+03 -0.34876394407E+03  0.21914306716E+04  0.22323693066E+04  0.00000000000E+00 0.  1.
        -13    1    5    5    0    0  0.35285126275E+02 -0.25905680903E+02  0.12519256211E+03  0.13262474146E+03  0.00000000000E+00 0. -1.
          2    1    6    6  503    0 -0.29710627971E+02  0.20105995464E+02  0.78180670331E+02  0.86018542661E+02  0.00000000000E+00 0. -1.
         -2    1    6    6    0  503 -0.35338449568E+03 -0.56315862684E+02  0.53726938381E+03  0.64553115258E+03  0.00000000000E+00 0.  1.
<mgrwt>
<rscale>  0 0.17379666E+04</rscale>
<asrwt>0</asrwt>
<pdfrwt beam="1">  1        2 0.51349531E+00 0.17379666E+04</pdfrwt>
<pdfrwt beam="2">  1       -1 0.34806444E-01 0.17379666E+04</pdfrwt>
<totfact> 0.89627292E+00</totfact>
</mgrwt>
</event>
<event>
12    7  0.1544987E-007  0.3218335E+04  0.7818608E-02  0.8183992E-01
         -1   -1    0    0    0  501 -0.00000000000E+00  0.00000000000E+00  0.10839097454E+04  0.10839097454E+04  0.00000000000E+00 0.  1.
          2   -1    0    0  501    0  0.00000000000E+00 -0.00000000000E+00 -0.23889627349E+04  0.23889627349E+04  0.00000000000E+00 0. -1.
         24    2    1    2    0    0 -0.11923990637E+04  0.70819457096E+03 -0.26548580024E+02  0.13901185242E+04  0.91485554813E+02 0.  0.
        254    2    1    2    0    0  0.11923990637E+04 -0.70819457096E+03 -0.12785044095E+04  0.20827539562E+04  0.88313953564E+03 0.  0.
         23    2    4    4    0    0  0.64956841081E+03  0.73494793112E+01 -0.22115466283E+03  0.69262552021E+03  0.93955261604E+02 0.  0.
         23    2    4    4    0    0  0.54283065290E+03 -0.71554405027E+03 -0.10573497466E+04  0.13901284360E+04  0.88318605821E+02 0.  0.
          4    1    3    3  502    0 -0.15600663592E+03  0.10101690674E+03 -0.33998459786E+02  0.18894015233E+03  0.00000000000E+00 0. -1.
         -3    1    3    3    0  502 -0.10363924278E+04  0.60717766423E+03  0.74498797612E+01  0.12011783719E+04  0.00000000000E+00 0.  1.
         13    1    5    5    0    0 -0.26779708313E+01  0.28729089705E+01 -0.11811207253E+00  0.39292600051E+01  0.00000000000E+00 0. -1.
        -13    1    5    5    0    0  0.65224638164E+03  0.44765703407E+01 -0.22103655076E+03  0.68869626020E+03  0.00000000000E+00 0.  1.
          3    1    6    6  503    0  0.26292452903E+03 -0.29656120585E+03 -0.41691863552E+03  0.57523821624E+03  0.00000000000E+00 0. -1.
         -3    1    6    6    0  503  0.27990612387E+03 -0.41898284443E+03 -0.64043111112E+03  0.81489021972E+03  0.00000000000E+00 0.  1.
<mgrwt>
<rscale>  0 0.32183350E+04</rscale>
<asrwt>0</asrwt>
<pdfrwt beam="1">  1        2 0.36753273E+00 0.32183350E+04</pdfrwt>
<pdfrwt beam="2">  1       -1 0.16675535E+00 0.32183350E+04</pdfrwt>
<totfact> 0.10023344E+00</totfact>
</mgrwt>
</event>
<event>
12    7  0.1544987E-007  0.1421624E+04  0.7818608E-02  0.8938313E-01
          2   -1    0    0  501    0  0.00000000000E+00  0.00000000000E+00  0.39882710311E+04  0.39882710311E+04  0.00000000000E+00 0. -1.
         -1   -1    0    0    0  501 -0.00000000000E+00 -0.00000000000E+00 -0.12668490159E+03  0.12668490159E+03  0.00000000000E+00 0.  1.
         24    2    1    2    0    0 -0.11442762226E+03  0.24932831120E+02 -0.45396130628E+01  0.14156236825E+03  0.79397539100E+02 0.  0.
        254    2    1    2    0    0  0.11442762226E+03 -0.24932831120E+02  0.38661257425E+04  0.39733935644E+04  0.90951241541E+03 0.  0.
         23    2    4    4    0    0  0.49454792392E+03  0.50826420645E+02  0.18142876708E+04  0.18832663244E+04  0.88833113345E+02 0.  0.
         23    2    4    4    0    0 -0.38012030166E+03 -0.75759251765E+02  0.20518380717E+04  0.20901272400E+04  0.91441232194E+02 0.  0.
          2    1    3    3  502    0 -0.61216221376E+02 -0.26913695030E+02 -0.69376920760E+01  0.67230233608E+02  0.00000000000E+00 0. -1.
         -1    1    3    3    0  502 -0.53211400882E+02  0.51846526150E+02  0.23980790132E+01  0.74332134644E+02  0.00000000000E+00 0.  1.
         13    1    5    5    0    0  0.47713555586E+03  0.66019150440E+02  0.17425444618E+04  0.18078932679E+04  0.00000000000E+00 0.  1.
        -13    1    5    5    0    0  0.17412368054E+02 -0.15192729795E+02  0.71743209077E+02  0.75373056516E+02  0.00000000000E+00 0. -1.
          2    1    6    6  503    0 -0.65655393013E+02  0.30244709287E+01  0.53575938592E+03  0.53977578462E+03  0.00000000000E+00 0. -1.
         -2    1    6    6    0  503 -0.31446490865E+03 -0.78783722693E+02  0.15160786858E+04  0.15503514554E+04  0.00000000000E+00 0.  1.
<mgrwt>
<rscale>  0 0.14216240E+04</rscale>
<asrwt>0</asrwt>
<pdfrwt beam="1">  1        2 0.61358006E+00 0.14216240E+04</pdfrwt>
<pdfrwt beam="2">  1       -1 0.19489988E-01 0.14216240E+04</pdfrwt>
<totfact> 0.84907501E+00</totfact>
</mgrwt>
</event>
<event>
12    7  0.1544987E-007  0.3246856E+04  0.7818608E-02  0.8176551E-01
         -1   -1    0    0    0  501 -0.00000000000E+00  0.00000000000E+00  0.12277543121E+04  0.12277543121E+04  0.00000000000E+00 0.  1.
          2   -1    0    0  501    0  0.00000000000E+00 -0.00000000000E+00 -0.21466165652E+04  0.21466165652E+04  0.00000000000E+00 0. -1.
         24    2    1    2    0    0  0.32762271320E+03 -0.57021749139E+03 -0.18240588860E+04  0.19406588992E+04  0.80507849713E+02 0.  0.
        254    2    1    2    0    0 -0.32762271320E+03  0.57021749139E+03  0.90519663295E+03  0.14337119781E+04  0.89647334711E+03 0.  0.
         23    2    4    4    0    0 -0.96943334653E+02 -0.13149201905E+03  0.60097764977E+03  0.62957699543E+03  0.92221995408E+02 0.  0.
         23    2    4    4    0    0 -0.23067937855E+03  0.70170951045E+03  0.30421898318E+03  0.80413498265E+03  0.92057959209E+02 0.  0.
          2    1    3    3  502    0  0.21878093456E+03 -0.41248523196E+03 -0.13854005167E+04  0.14619657163E+04  0.00000000000E+00 0. -1.
         -1    1    3    3    0  502  0.10884177864E+03 -0.15773225944E+03 -0.43865836933E+03  0.47869318298E+03  0.00000000000E+00 0.  1.
         13    1    5    5    0    0 -0.46370812076E+02 -0.16380387553E+02  0.82267655531E+02  0.95846421193E+02  0.00000000000E+00 0. -1.
        -13    1    5    5    0    0 -0.50572522577E+02 -0.11511163150E+03  0.51870999424E+03  0.53373057423E+03  0.00000000000E+00 0.  1.
          1    1    6    6  503    0 -0.93014968001E+01  0.31974282645E+02 -0.55141923366E+01  0.33753205930E+02  0.00000000000E+00 0. -1.
         -1    1    6    6    0  503 -0.22137788175E+03  0.66973522780E+03  0.30973317552E+03  0.77038177672E+03  0.00000000000E+00 0.  1.
<mgrwt>
<rscale>  0 0.32468556E+04</rscale>
<asrwt>0</asrwt>
<pdfrwt beam="1">  1        2 0.33024870E+00 0.32468556E+04</pdfrwt>
<pdfrwt beam="2">  1       -1 0.18888528E+00 0.32468556E+04</pdfrwt>
<totfact> 0.94954689E-01</totfact>
</mgrwt>
</event>
<event>
12    7  0.1544987E-007  0.1544967E+04  0.7818608E-02  0.8855089E-01
         -1   -1    0    0    0  501 -0.00000000000E+00  0.00000000000E+00  0.92444180999E+03  0.92444180999E+03  0.00000000000E+00 0.  1.
          2   -1    0    0  501    0  0.00000000000E+00 -0.00000000000E+00 -0.64550389969E+03  0.64550389969E+03  0.00000000000E+00 0. -1.
         24    2    1    2    0    0  0.18181675880E+03 -0.46277617893E+03 -0.18704461176E+02  0.50392829529E+03  0.79841996222E+02 0.  0.
        254    2    1    2    0    0 -0.18181675880E+03  0.46277617893E+03  0.29764237148E+03  0.10660174144E+04  0.89475305025E+03 0.  0.
         23    2    4    4    0    0 -0.46755839999E+02 -0.24443692798E+02  0.50221187975E+03  0.51295942450E+03  0.90149854860E+02 0.  0.
         23    2    4    4    0    0 -0.13506091880E+03  0.48721987172E+03 -0.20456950828E+03  0.55305798989E+03  0.91650429755E+02 0.  0.
          2    1    3    3  502    0  0.54634100881E+02 -0.12947757475E+03 -0.41294683212E+02  0.14647381405E+03  0.00000000000E+00 0. -1.
         -1    1    3    3    0  502  0.12718265792E+03 -0.33329860418E+03  0.22590222035E+02  0.35745448123E+03  0.00000000000E+00 0.  1.
         13    1    5    5    0    0  0.25862760115E+02 -0.25782481013E+01  0.84081184818E+02  0.88006677954E+02  0.00000000000E+00 0.  1.
        -13    1    5    5    0    0 -0.72618600114E+02 -0.21865444696E+02  0.41813069494E+03  0.42495274655E+03  0.00000000000E+00 0. -1.
          4    1    6    6  503    0 -0.99268004990E+02  0.25349670079E+03 -0.14827760744E+03  0.31000155321E+03  0.00000000000E+00 0. -1.
         -4    1    6    6    0  503 -0.35792913808E+02  0.23372317094E+03 -0.56291900840E+02  0.24305643668E+03  0.00000000000E+00 0.  1.
<mgrwt>
<rscale>  0 0.15449670E+04</rscale>
<asrwt>0</asrwt>
<pdfrwt beam="1">  1        2 0.99308292E-01 0.15449670E+04</pdfrwt>
<pdfrwt beam="2">  1       -1 0.14222182E+00 0.15449670E+04</pdfrwt>
<totfact> 0.20065978E+01</totfact>
</mgrwt>
</event>
<event>
12    7  0.1544987E-007  0.2098676E+04  0.7818608E-02  0.8561827E-01
          2   -1    0    0  501    0  0.00000000000E+00  0.00000000000E+00  0.11005740607E+04  0.11005740607E+04  0.00000000000E+00 0. -1.
         -1   -1    0    0    0  501 -0.00000000000E+00 -0.00000000000E+00 -0.10004867613E+04  0.10004867613E+04  0.00000000000E+00 0.  1.
         24    2    1    2    0    0  0.48486823846E+03  0.23426220811E+02  0.65268273470E+03  0.81726414955E+03  0.79246081771E+02 0.  0.
        254    2    1    2    0    0 -0.48486823846E+03 -0.23426220811E+02 -0.55259543527E+03  0.12837966724E+04  0.10522006389E+04 0.  0.
         23    2    4    4    0    0 -0.53878254544E+03  0.36992780360E+03 -0.57540240081E+03  0.87584985674E+03  0.94296540540E+02 0.  0.
         23    2    4    4    0    0  0.53914306978E+02 -0.39335402441E+03  0.22806965546E+02  0.40794681567E+03  0.90919226364E+02 0.  0.
          4    1    3    3  502    0  0.25775346348E+03  0.11427033822E+02  0.41205008095E+03  0.48616118135E+03  0.00000000000E+00 0. -1.
         -3    1    3    3    0  502  0.22711477498E+03  0.11999186989E+02  0.24063265375E+03  0.33110296820E+03  0.00000000000E+00 0.  1.
         13    1    5    5    0    0 -0.48364582946E+03  0.30566806925E+03 -0.52937153489E+03  0.77947448892E+03  0.00000000000E+00 0.  1.
        -13    1    5    5    0    0 -0.55136715976E+02  0.64259734348E+02 -0.46030865916E+02  0.96375367829E+02  0.00000000000E+00 0. -1.
          3    1    6    6  503    0 -0.52963430348E+01 -0.27101039964E+03  0.22905180951E+02  0.27202818838E+03  0.00000000000E+00 0. -1.
         -3    1    6    6    0  503  0.59210650013E+02 -0.12234362477E+03 -0.98215405163E-01  0.13591862729E+03  0.00000000000E+00 0.  1.
<mgrwt>
<rscale>  0 0.20986756E+04</rscale>
<asrwt>0</asrwt>
<pdfrwt beam="1">  1        2 0.16931909E+00 0.20986756E+04</pdfrwt>
<pdfrwt beam="2">  1       -1 0.15392104E+00 0.20986756E+04</pdfrwt>
<totfact> 0.74424168E+00</totfact>
</mgrwt>
</event>
<event>
12    7  0.1544987E-007  0.1487039E+04  0.7818608E-02  0.8893118E-01
         -1   -1    0    0    0  501 -0.00000000000E+00  0.00000000000E+00  0.11920076721E+04  0.11920076721E+04  0.00000000000E+00 0.  1.
          2   -1    0    0  501    0  0.00000000000E+00 -0.00000000000E+00 -0.46377321390E+03  0.46377321390E+03  0.00000000000E+00 0. -1.
         24    2    1    2    0    0 -0.21381786437E+03 -0.34012119396E+03 -0.16975171713E+02  0.40972793758E+03  0.78665880003E+02 0.  0.
        254    2    1    2    0    0  0.21381786437E+03  0.34012119396E+03  0.74520962996E+03  0.12460529485E+04  0.91428116687E+03 0.  0.
         23    2    4    4    0    0  0.93515203589E+02 -0.11472108198E+03  0.74683244890E+03  0.76690498967E+03  0.92078968810E+02 0.  0.
         23    2    4    4    0    0  0.12030266078E+03  0.45484227594E+03 -0.16228189422E+01  0.47914795880E+03  0.90696784432E+02 0.  0.
          4    1    3    3  502    0 -0.97642292060E+02 -0.22368707410E+03 -0.22898541616E+02  0.24514132154E+03  0.00000000000E+00 0. -1.
         -3    1    3    3    0  502 -0.11617557231E+03 -0.11643411985E+03  0.59233699029E+01  0.16458661604E+03  0.00000000000E+00 0.  1.
         13    1    5    5    0    0  0.98740331082E+02 -0.12627914275E+03  0.66211534962E+03  0.68124357691E+03  0.00000000000E+00 0. -1.
        -13    1    5    5    0    0 -0.52251274930E+01  0.11558060767E+02  0.84717099276E+02  0.85661412759E+02  0.00000000000E+00 0.  1.
          3    1    6    6  503    0  0.12236165893E+03  0.43338318393E+03  0.17019937098E+02  0.45064735431E+03  0.00000000000E+00 0. -1.
         -3    1    6    6    0  503 -0.20589981505E+01  0.21459092007E+02 -0.18642756040E+02  0.28500604484E+02  0.00000000000E+00 0.  1.
<mgrwt>
<rscale>  0 0.14870390E+04</rscale>
<asrwt>0</asrwt>
<pdfrwt beam="1">  1        2 0.71349726E-01 0.14870390E+04</pdfrwt>
<pdfrwt beam="2">  1       -1 0.18338579E+00 0.14870390E+04</pdfrwt>
<totfact> 0.14621048E+01</totfact>
</mgrwt>
</event>
<event>
12    7  0.1544987E-007  0.1753225E+04  0.7818608E-02  0.8731577E-01
         -1   -1    0    0    0  501 -0.00000000000E+00  0.00000000000E+00  0.60735380142E+03  0.60735380142E+03  0.00000000000E+00 0.  1.
          2   -1    0    0  501    0  0.00000000000E+00 -0.00000000000E+00 -0.12652424944E+04  0.12652424944E+04  0.00000000000E+00 0. -1.
         24    2    1    2    0    0 -0.27892213446E+03  0.57936388601E+03 -0.18960592258E+03  0.67496193692E+03  0.78505674377E+02 0.  0.
        254    2    1    2    0    0  0.27892213446E+03 -0.57936388601E+03 -0.46828277040E+03  0.11976343589E+04  0.89530957499E+03 0.  0.
         23    2    4    4    0    0 -0.67174023174E+01 -0.37063828466E+02 -0.56234353827E+03  0.57103599662E+03  0.91831386376E+02 0.  0.
         23    2    4    4    0    0  0.28563953677E+03 -0.54230005755E+03  0.94060767867E+02  0.62659836229E+03  0.89993234104E+02 0.  0.
          2    1    3    3  502    0 -0.10650711842E+03  0.16132267401E+03 -0.31156496793E+02  0.19580474641E+03  0.00000000000E+00 0. -1.
         -1    1    3    3    0  502 -0.17241501604E+03  0.41804121200E+03 -0.15844942578E+03  0.47915719051E+03  0.00000000000E+00 0.  1.
         13    1    5    5    0    0 -0.28309530246E+02 -0.93797770517E+01 -0.48701796519E+03  0.48793022876E+03  0.00000000000E+00 0.  1.
        -13    1    5    5    0    0  0.21592127928E+02 -0.27684051415E+02 -0.75325573079E+02  0.83105767856E+02  0.00000000000E+00 0. -1.
          3    1    6    6  503    0  0.45757886295E+02 -0.48224391574E+02  0.32289506766E+02  0.73905266038E+02  0.00000000000E+00 0. -1.
         -3    1    6    6    0  503  0.23988165048E+03 -0.49407566597E+03  0.61771261101E+02  0.55269309625E+03  0.00000000000E+00 0.  1.
<mgrwt>
<rscale>  0 0.17532254E+04</rscale>
<asrwt>0</asrwt>
<pdfrwt beam="1">  1        2 0.19465269E+00 0.17532254E+04</pdfrwt>
<pdfrwt beam="2">  1       -1 0.93439047E-01 0.17532254E+04</pdfrwt>
<totfact> 0.20801997E+01</totfact>
</mgrwt>
</event>
<event>
12    7  0.1544987E-007  0.1488952E+04  0.7818608E-02  0.8891833E-01
          2   -1    0    0  501    0  0.00000000000E+00  0.00000000000E+00  0.11741849410E+04  0.11741849410E+04  0.00000000000E+00 0. -1.
         -1   -1    0    0    0  501 -0.00000000000E+00 -0.00000000000E+00 -0.47202479743E+03  0.47202479743E+03  0.00000000000E+00 0.  1.
         24    2    1    2    0    0 -0.73135636263E+02 -0.38675876188E+03  0.49441898243E+03  0.63701611831E+03  0.80051506007E+02 0.  0.
        254    2    1    2    0    0  0.73135636263E+02  0.38675876188E+03  0.20774116116E+03  0.10091936201E+04  0.90575063439E+03 0.  0.
         23    2    4    4    0    0  0.43290149518E+03  0.33280665149E+03  0.28745627660E+03  0.62365562741E+03  0.90284322263E+02 0.  0.
         23    2    4    4    0    0 -0.35976585891E+03  0.53952110387E+02 -0.79715115440E+02  0.38553799272E+03  0.99713292725E+02 0.  0.
          4    1    3    3  502    0 -0.77765817472E+02 -0.35827410124E+03  0.48203724687E+03  0.60561354126E+03  0.00000000000E+00 0. -1.
         -3    1    3    3    0  502  0.46301812098E+01 -0.28484660637E+02  0.12381735558E+02  0.31402577045E+02  0.00000000000E+00 0.  1.
         13    1    5    5    0    0  0.31301380236E+03  0.19894163215E+03  0.16335304559E+03  0.40526488989E+03  0.00000000000E+00 0.  1.
        -13    1    5    5    0    0  0.11988769282E+03  0.13386501934E+03  0.12410323100E+03  0.21839073753E+03  0.00000000000E+00 0. -1.
          2    1    6    6  503    0 -0.24968203620E+02  0.14708014646E+02 -0.35087531522E+02  0.45506831962E+02  0.00000000000E+00 0. -1.
         -2    1    6    6    0  503 -0.33479765529E+03  0.39244095741E+02 -0.44627583918E+02  0.34003116076E+03  0.00000000000E+00 0.  1.
<mgrwt>
<rscale>  0 0.14889519E+04</rscale>
<asrwt>0</asrwt>
<pdfrwt beam="1">  1        2 0.18064384E+00 0.14889519E+04</pdfrwt>
<pdfrwt beam="2">  1       -1 0.72619200E-01 0.14889519E+04</pdfrwt>
<totfact> 0.41397350E+01</totfact>
</mgrwt>
</event>
<event>
12    7  0.1544987E-007  0.1530373E+04  0.7818608E-02  0.8864502E-01
          2   -1    0    0  501    0  0.00000000000E+00  0.00000000000E+00  0.24575896733E+04  0.24575896733E+04  0.00000000000E+00 0. -1.
         -1   -1    0    0    0  501 -0.00000000000E+00 -0.00000000000E+00 -0.23824589399E+03  0.23824589399E+03  0.00000000000E+00 0.  1.
         24    2    1    2    0    0 -0.20081896517E+03 -0.42247501355E+03  0.44188230996E+03  0.64847300437E+03  0.80273704889E+02 0.  0.
        254    2    1    2    0    0  0.20081896517E+03  0.42247501355E+03  0.17774614694E+04  0.20473625629E+04  0.90194833287E+03 0.  0.
         23    2    4    4    0    0 -0.24493369763E+03  0.62550691626E+02  0.12609340069E+03  0.29730742018E+03  0.92666343087E+02 0.  0.
         23    2    4    4    0    0  0.44575266280E+03  0.35992432192E+03  0.16513680687E+04  0.17500551428E+04  0.86229638099E+02 0.  0.
          2    1    3    3  502    0 -0.47331157354E+02 -0.42536941190E+02  0.76024138367E+02  0.99142823425E+02  0.00000000000E+00 0. -1.
         -1    1    3    3    0  502 -0.15348780781E+03 -0.37993807236E+03  0.36585817159E+03  0.54933018094E+03  0.00000000000E+00 0.  1.
         13    1    5    5    0    0 -0.63183640949E+02  0.12407594008E+02 -0.94797858229E+01  0.65084462139E+02  0.00000000000E+00 0.  1.
        -13    1    5    5    0    0 -0.18175005668E+03  0.50143097617E+02  0.13557318651E+03  0.23222295805E+03  0.00000000000E+00 0. -1.
          1    1    6    6  503    0  0.12245982693E+03  0.69431948286E+02  0.32162427544E+03  0.35108315142E+03  0.00000000000E+00 0. -1.
         -1    1    6    6    0  503  0.32329283587E+03  0.29049237363E+03  0.13297437933E+04  0.13989719913E+04  0.00000000000E+00 0.  1.
<mgrwt>
<rscale>  0 0.15303734E+04</rscale>
<asrwt>0</asrwt>
<pdfrwt beam="1">  1        2 0.37809070E+00 0.15303734E+04</pdfrwt>
<pdfrwt beam="2">  1       -1 0.36653216E-01 0.15303734E+04</pdfrwt>
<totfact> 0.28942819E+01</totfact>
</mgrwt>
</event>
<event>
12    7  0.1544987E-007  0.1325259E+04  0.7818608E-02  0.9009771E-01
         -1   -1    0    0    0  501 -0.00000000000E+00  0.00000000000E+00  0.19097367268E+03  0.19097367268E+03  0.00000000000E+00 0.  1.
          2   -1    0    0  501    0  0.00000000000E+00 -0.00000000000E+00 -0.22991527926E+04  0.22991527926E+04  0.00000000000E+00 0. -1.
         24    2    1    2    0    0  0.20717177965E+02  0.83491034414E+02  0.63650835687E+02  0.13457209066E+03  0.81598188776E+02 0.  0.
        254    2    1    2    0    0 -0.20717177965E+02 -0.83491034414E+02 -0.21718299556E+04  0.23555543746E+04  0.90795985673E+03 0.  0.
         23    2    4    4    0    0 -0.26513997842E+03 -0.28599876857E+03 -0.18559258007E+04  0.18985255272E+04  0.88566901913E+02 0.  0.
         23    2    4    4    0    0  0.24442280045E+03  0.20250773415E+03 -0.31590415492E+03  0.45702884739E+03  0.91258120078E+02 0.  0.
          2    1    3    3  502    0  0.18384955239E+02 -0.10070425272E+02 -0.73152504580E+00  0.20975108419E+02  0.00000000000E+00 0. -1.
         -1    1    3    3    0  502  0.23322227256E+01  0.93561459686E+02  0.64382360733E+02  0.11359698224E+03  0.00000000000E+00 0.  1.
         13    1    5    5    0    0 -0.26099517460E+03 -0.25306105673E+03 -0.17557957492E+04  0.17930357198E+04  0.00000000000E+00 0. -1.
        -13    1    5    5    0    0 -0.41448038191E+01 -0.32937711832E+02 -0.10013005151E+03  0.10548980745E+03  0.00000000000E+00 0.  1.
          3    1    6    6  503    0  0.21278939383E+03  0.20390597055E+03 -0.26111882004E+03  0.39375120207E+03  0.00000000000E+00 0. -1.
         -3    1    6    6    0  503  0.31633406623E+02 -0.13982363965E+01 -0.54785334884E+02  0.63277645326E+02  0.00000000000E+00 0.  1.
<mgrwt>
<rscale>  0 0.13252587E+04</rscale>
<asrwt>0</asrwt>
<pdfrwt beam="1">  1        2 0.35371582E+00 0.13252587E+04</pdfrwt>
<pdfrwt beam="2">  1       -1 0.29380564E-01 0.13252587E+04</pdfrwt>
<totfact> 0.53682359E+01</totfact>
</mgrwt>
</event>
<event>
12    7  0.1544987E-007  0.1589677E+04  0.7818608E-02  0.8826915E-01
         -3   -1    0    0    0  501 -0.00000000000E+00  0.00000000000E+00  0.44704155855E+03  0.44704155855E+03  0.00000000000E+00 0.  1.
          2   -1    0    0  501    0  0.00000000000E+00 -0.00000000000E+00 -0.14132208541E+04  0.14132208541E+04  0.00000000000E+00 0. -1.
         24    2    1    2    0    0  0.39154645752E+03  0.12759861794E+03 -0.72498511011E+03  0.83747633855E+03  0.78569536454E+02 0.  0.
        254    2    1    2    0    0 -0.39154645752E+03 -0.12759861794E+03 -0.24119418544E+03  0.10227860741E+04  0.90461410701E+03 0.  0.
         23    2    4    4    0    0 -0.49400037052E+03  0.27195730165E+03 -0.13864152237E+03  0.58769685035E+03  0.90382388737E+02 0.  0.
         23    2    4    4    0    0  0.10245391300E+03 -0.39955591959E+03 -0.10255266308E+03  0.43508922375E+03  0.92972290246E+02 0.  0.
          4    1    3    3  502    0  0.32339362903E+03  0.10968126673E+03 -0.65205409209E+03  0.73606246921E+03  0.00000000000E+00 0. -1.
         -3    1    3    3    0  502  0.68152828495E+02  0.17917351213E+02 -0.72931018025E+02  0.10141386935E+03  0.00000000000E+00 0.  1.
         13    1    5    5    0    0 -0.36219832116E+03  0.24284320697E+03 -0.10937125440E+03  0.44958038025E+03  0.00000000000E+00 0.  1.
        -13    1    5    5    0    0 -0.13180204936E+03  0.29114094682E+02 -0.29270267960E+02  0.13811647010E+03  0.00000000000E+00 0. -1.
          3    1    6    6  503    0 -0.14943502437E+02 -0.19920450198E+02 -0.89231604323E+00  0.24918443553E+02  0.00000000000E+00 0. -1.
         -3    1    6    6    0  503  0.11739741543E+03 -0.37963546939E+03 -0.10166034703E+03  0.41017078020E+03  0.00000000000E+00 0.  1.
<mgrwt>
<rscale>  0 0.15896773E+04</rscale>
<asrwt>0</asrwt>
<pdfrwt beam="1">  1        2 0.21741859E+00 0.15896773E+04</pdfrwt>
<pdfrwt beam="2">  1       -3 0.68775625E-01 0.15896773E+04</pdfrwt>
<totfact> 0.17654821E+01</totfact>
</mgrwt>
</event>
<event>
12    7  0.1544987E-007  0.1275424E+04  0.7818608E-02  0.9049284E-01
          2   -1    0    0  501    0  0.00000000000E+00  0.00000000000E+00  0.22664802446E+04  0.22664802446E+04  0.00000000000E+00 0. -1.
         -1   -1    0    0    0  501 -0.00000000000E+00 -0.00000000000E+00 -0.17943088481E+03  0.17943088481E+03  0.00000000000E+00 0.  1.
         24    2    1    2    0    0 -0.92750326501E+02  0.17854650140E+03  0.94319048526E+02  0.24807074722E+03  0.11027935655E+03 0.  0.
        254    2    1    2    0    0  0.92750326501E+02 -0.17854650140E+03  0.19927303112E+04  0.21978403822E+04  0.90501203084E+03 0.  0.
         23    2    4    4    0    0  0.48653994860E+03 -0.56079676300E+02  0.94734852065E+03  0.10702824158E+04  0.90383506300E+02 0.  0.
         23    2    4    4    0    0 -0.39378962210E+03 -0.12246682510E+03  0.10453817906E+04  0.11275579664E+04  0.92170981498E+02 0.  0.
          2    1    3    3  502    0 -0.73117843646E+02  0.80180181159E+02 -0.26647416631E+01  0.10854575698E+03  0.00000000000E+00 0. -1.
         -1    1    3    3    0  502 -0.19632482854E+02  0.98366320245E+02  0.96983790189E+02  0.13952499024E+03  0.00000000000E+00 0.  1.
         13    1    5    5    0    0  0.22527957594E+03 -0.64816056367E+02  0.49836429148E+03  0.55074401996E+03  0.00000000000E+00 0.  1.
        -13    1    5    5    0    0  0.26126037266E+03  0.87363800672E+01  0.44898422918E+03  0.51953839580E+03  0.00000000000E+00 0. -1.
          3    1    6    6  503    0 -0.27044167774E+03 -0.11843362856E+03  0.66329056505E+03  0.72603002632E+03  0.00000000000E+00 0. -1.
         -3    1    6    6    0  503 -0.12334794436E+03 -0.40331965421E+01  0.38209122553E+03  0.40152794010E+03  0.00000000000E+00 0.  1.
<mgrwt>
<rscale>  0 0.12754239E+04</rscale>
<asrwt>0</asrwt>
<pdfrwt beam="1">  1        2 0.34868925E+00 0.12754239E+04</pdfrwt>
<pdfrwt beam="2">  1       -1 0.27604753E-01 0.12754239E+04</pdfrwt>
<totfact> 0.62688954E+01</totfact>
</mgrwt>
</event>
<event>
12    7  0.1544987E-007  0.3749552E+04  0.7818608E-02  0.8057068E-01
         -3   -1    0    0    0  501 -0.00000000000E+00  0.00000000000E+00  0.24528155878E+04  0.24528155878E+04  0.00000000000E+00 0.  1.
          4   -1    0    0  501    0  0.00000000000E+00 -0.00000000000E+00 -0.14329597127E+04  0.14329597127E+04  0.00000000000E+00 0. -1.
         24    2    1    2    0    0  0.36448755720E+03 -0.47060004143E+03 -0.12427980852E+04  0.13803153749E+04  0.80049204160E+02 0.  0.
        254    2    1    2    0    0 -0.36448755720E+03  0.47060004143E+03  0.22626539603E+04  0.25054599257E+04  0.89633192336E+03 0.  0.
         23    2    4    4    0    0 -0.65314018794E+03  0.37449719743E+03  0.16259088424E+04  0.17941419657E+04  0.92334031383E+02 0.  0.
         23    2    4    4    0    0  0.28865263074E+03  0.96102843996E+02  0.63674511791E+03  0.71131795999E+03  0.89290521079E+02 0.  0.
          4    1    3    3  502    0  0.10375786496E+03 -0.17101483405E+03 -0.48807440580E+03  0.52747359517E+03  0.00000000000E+00 0. -1.
         -3    1    3    3    0  502  0.26072969224E+03 -0.29958520738E+03 -0.75472367943E+03  0.85284177969E+03  0.00000000000E+00 0.  1.
         13    1    5    5    0    0 -0.49713723994E+03  0.23855283378E+03  0.11639778411E+04  0.12879818727E+04  0.00000000000E+00 0. -1.
        -13    1    5    5    0    0 -0.15600294800E+03  0.13594436365E+03  0.46193100133E+03  0.50616009303E+03  0.00000000000E+00 0.  1.
          3    1    6    6  503    0  0.22511835737E+03  0.11205379166E+03  0.51200419274E+03  0.57042319416E+03  0.00000000000E+00 0. -1.
         -3    1    6    6    0  503  0.63534273374E+02 -0.15950947669E+02  0.12474092518E+03  0.14089476583E+03  0.00000000000E+00 0.  1.
<mgrwt>
<rscale>  0 0.37495525E+04</rscale>
<asrwt>0</asrwt>
<pdfrwt beam="1">  1        4 0.22045534E+00 0.37495525E+04</pdfrwt>
<pdfrwt beam="2">  1       -3 0.37735624E+00 0.37495525E+04</pdfrwt>
<totfact> 0.24838519E-03</totfact>
</mgrwt>
</event>
<event>
12    7  0.1544987E-007  0.2412809E+04  0.7818608E-02  0.8434724E-01
         -3   -1    0    0    0  501 -0.00000000000E+00  0.00000000000E+00  0.84796456923E+03  0.84796456923E+03  0.00000000000E+00 0.  1.
          2   -1    0    0  501    0  0.00000000000E+00 -0.00000000000E+00 -0.17163588470E+04  0.17163588470E+04  0.00000000000E+00 0. -1.
         24    2    1    2    0    0 -0.89960047307E+03  0.36238000004E+03 -0.77618497913E+03  0.12447090879E+04  0.78976680787E+02 0.  0.
        254    2    1    2    0    0  0.89960047307E+03 -0.36238000004E+03 -0.92209298689E+02  0.13196143284E+04  0.89010063774E+03 0.  0.
         23    2    4    4    0    0  0.13902566097E+03  0.26450248445E+03 -0.10642168930E+03  0.32975518187E+03  0.90128826275E+02 0.  0.
         23    2    4    4    0    0  0.76057481210E+03 -0.62688248449E+03  0.14212390615E+02  0.98985914650E+03  0.90351777572E+02 0.  0.
          2    1    3    3  502    0 -0.37962659469E+03  0.16615253627E+03 -0.37932177380E+03  0.56179001841E+03  0.00000000000E+00 0. -1.
         -1    1    3    3    0  502 -0.51997387838E+03  0.19622746377E+03 -0.39686320533E+03  0.68291906949E+03  0.00000000000E+00 0.  1.
         13    1    5    5    0    0  0.12038578667E+03  0.14589350999E+03 -0.43027535813E+02  0.19398201651E+03  0.00000000000E+00 0.  1.
        -13    1    5    5    0    0  0.18639874306E+02  0.11860897446E+03 -0.63394153491E+02  0.13577316537E+03  0.00000000000E+00 0. -1.
          3    1    6    6  503    0  0.25456746234E+03 -0.18655922673E+03  0.42719726448E+02  0.31848691180E+03  0.00000000000E+00 0. -1.
         -3    1    6    6    0  503  0.50600734976E+03 -0.44032325776E+03 -0.28507335833E+02  0.67137223470E+03  0.00000000000E+00 0.  1.
<mgrwt>
<rscale>  0 0.24128087E+04</rscale>
<asrwt>0</asrwt>
<pdfrwt beam="1">  1        2 0.26405520E+00 0.24128087E+04</pdfrwt>
<pdfrwt beam="2">  1       -3 0.13045609E+00 0.24128087E+04</pdfrwt>
<totfact> 0.25211543E+00</totfact>
</mgrwt>
</event>
<event>
12    7  0.1544987E-007  0.6132002E+04  0.7818608E-02  0.7674247E-01
          2   -1    0    0  501    0  0.00000000000E+00  0.00000000000E+00  0.39355012713E+04  0.39355012713E+04  0.00000000000E+00 0. -1.
         -1   -1    0    0    0  501 -0.00000000000E+00 -0.00000000000E+00 -0.23886057131E+04  0.23886057131E+04  0.00000000000E+00 0.  1.
         24    2    1    2    0    0 -0.26877116984E+04 -0.86874313663E+03  0.17969379934E+04  0.33487675965E+04  0.82155049273E+02 0.  0.
        254    2    1    2    0    0  0.26877116984E+04  0.86874313663E+03 -0.25004243533E+03  0.29753393879E+04  0.90089646591E+03 0.  0.
         23    2    4    4    0    0  0.22547672028E+04  0.38842940871E+03 -0.43179482008E+02  0.22901934510E+04  0.90934210888E+02 0.  0.
         23    2    4    4    0    0  0.43294449557E+03  0.48031372792E+03 -0.20686295332E+03  0.68514593688E+03  0.92143691540E+02 0.  0.
          4    1    3    3  502    0 -0.17460779393E+04 -0.54411627018E+03  0.11226789025E+04  0.21459866271E+04  0.00000000000E+00 0. -1.
         -3    1    3    3    0  502 -0.94163375915E+03 -0.32462686645E+03  0.67425909093E+03  0.12027809695E+04  0.00000000000E+00 0.  1.
         13    1    5    5    0    0  0.96057287817E+03  0.20384833889E+03  0.58871401809E+01  0.98198220858E+03  0.00000000000E+00 0.  1.
        -13    1    5    5    0    0  0.12941943247E+04  0.18458106982E+03 -0.49066622189E+02  0.13082112424E+04  0.00000000000E+00 0. -1.
          4    1    6    6  503    0  0.23638724721E+03  0.26255529474E+03 -0.64705710478E+02  0.35916715107E+03  0.00000000000E+00 0. -1.
         -4    1    6    6    0  503  0.19655724835E+03  0.21775843319E+03 -0.14215724284E+03  0.32597878581E+03  0.00000000000E+00 0.  1.
<mgrwt>
<rscale>  0 0.61320016E+04</rscale>
<asrwt>0</asrwt>
<pdfrwt beam="1">  1        2 0.60546173E+00 0.61320016E+04</pdfrwt>
<pdfrwt beam="2">  1       -1 0.36747780E+00 0.61320016E+04</pdfrwt>
<totfact> 0.34513477E-03</totfact>
</mgrwt>
</event>
<event>
12    7  0.1544987E-007  0.1317008E+04  0.7818608E-02  0.9016185E-01
         -1   -1    0    0    0  501 -0.00000000000E+00  0.00000000000E+00  0.19758711133E+03  0.19758711133E+03  0.00000000000E+00 0.  1.
          2   -1    0    0  501    0  0.00000000000E+00 -0.00000000000E+00 -0.21946159392E+04  0.21946159392E+04  0.00000000000E+00 0. -1.
         24    2    1    2    0    0  0.16316852547E+03  0.20906653879E+03 -0.13385506485E+03  0.30773653163E+03  0.80323154636E+02 0.  0.
        254    2    1    2    0    0 -0.16316852547E+03 -0.20906653879E+03 -0.18631737630E+04  0.20844665189E+04  0.89624294245E+03 0.  0.
         23    2    4    4    0    0 -0.94135736592E+02  0.16985280088E+03 -0.15869537209E+04  0.16012749729E+04  0.89151083754E+02 0.  0.
         23    2    4    4    0    0 -0.69032788873E+02 -0.37891933967E+03 -0.27622004211E+03  0.48319154598E+03  0.93974286520E+02 0.  0.
          4    1    3    3  502    0  0.72022077585E+02  0.13986516717E+03 -0.10678638463E+03  0.19013883504E+03  0.00000000000E+00 0. -1.
         -3    1    3    3    0  502  0.91146447880E+02  0.69201371621E+02 -0.27068680220E+02  0.11759769659E+03  0.00000000000E+00 0.  1.
         13    1    5    5    0    0 -0.86441779649E+02  0.81254358681E+02 -0.71233236620E+03  0.72214392749E+03  0.00000000000E+00 0.  1.
        -13    1    5    5    0    0 -0.76939569428E+01  0.88598442198E+02 -0.87462135472E+03  0.87913104545E+03  0.00000000000E+00 0. -1.
          2    1    6    6  503    0 -0.66270363498E+02 -0.38406244950E+03 -0.26753559376E+03  0.47272721534E+03  0.00000000000E+00 0. -1.
         -2    1    6    6    0  503 -0.27624253754E+01  0.51431098277E+01 -0.86844483461E+01  0.10464330639E+02  0.00000000000E+00 0.  1.
<mgrwt>
<rscale>  0 0.13170085E+04</rscale>
<asrwt>0</asrwt>
<pdfrwt beam="1">  1        2 0.33763320E+00 0.13170085E+04</pdfrwt>
<pdfrwt beam="2">  1       -1 0.30398019E-01 0.13170085E+04</pdfrwt>
<totfact> 0.57927299E+01</totfact>
</mgrwt>
</event>
<event>
12    7  0.1544987E-007  0.3306548E+04  0.7818608E-02  0.8161231E-01
          2   -1    0    0  501    0  0.00000000000E+00  0.00000000000E+00  0.15158353410E+04  0.15158353410E+04  0.00000000000E+00 0. -1.
         -1   -1    0    0    0  501 -0.00000000000E+00 -0.00000000000E+00 -0.18031743408E+04  0.18031743408E+04  0.00000000000E+00 0.  1.
         24    2    1    2    0    0  0.97353351468E+03  0.10655031148E+04  0.38065591985E+03  0.14948540907E+04  0.81396752744E+02 0.  0.
        254    2    1    2    0    0 -0.97353351468E+03 -0.10655031148E+04 -0.66799491958E+03  0.18241555911E+04  0.89345510026E+03 0.  0.
         23    2    4    4    0    0 -0.68942198198E+03 -0.11641829288E+04 -0.66529234744E+03  0.15102539960E+04  0.87342223072E+02 0.  0.
         23    2    4    4    0    0 -0.28411153270E+03  0.98679813976E+02 -0.27025721462E+01  0.31390159514E+03  0.89832281705E+02 0.  0.
          2    1    3    3  502    0  0.81226297227E+03  0.91455915431E+03  0.34666887422E+03  0.12713649717E+04  0.00000000000E+00 0. -1.
         -1    1    3    3    0  502  0.16127054241E+03  0.15094396048E+03  0.33987045627E+02  0.22348911903E+03  0.00000000000E+00 0.  1.
         13    1    5    5    0    0 -0.63568823299E+03 -0.11112983145E+04 -0.62286880060E+03  0.14237447160E+04  0.00000000000E+00 0. -1.
        -13    1    5    5    0    0 -0.53733748993E+02 -0.52884614223E+02 -0.42423546832E+02  0.86509280011E+02  0.00000000000E+00 0.  1.
          4    1    6    6  503    0 -0.27873455870E+03  0.92169740155E+02  0.15342376922E+02  0.29397891717E+03  0.00000000000E+00 0. -1.
         -4    1    6    6    0  503 -0.53769740037E+01  0.65100738213E+01 -0.18044949068E+02  0.19922677969E+02  0.00000000000E+00 0.  1.
<mgrwt>
<rscale>  0 0.33065483E+04</rscale>
<asrwt>0</asrwt>
<pdfrwt beam="1">  1        2 0.23320544E+00 0.33065483E+04</pdfrwt>
<pdfrwt beam="2">  1       -1 0.27741144E+00 0.33065483E+04</pdfrwt>
<totfact> 0.54664631E-01</totfact>
</mgrwt>
</event>
<event>
12    7  0.1544987E-007  0.1289674E+04  0.7818608E-02  0.9037794E-01
          2   -1    0    0  501    0  0.00000000000E+00  0.00000000000E+00  0.28475288630E+03  0.28475288630E+03  0.00000000000E+00 0. -1.
         -1   -1    0    0    0  501 -0.00000000000E+00 -0.00000000000E+00 -0.14602663494E+04  0.14602663494E+04  0.00000000000E+00 0.  1.
         24    2    1    2    0    0  0.14301308276E+02  0.22487046255E+03 -0.42418048995E+01  0.23941869992E+03  0.80821213902E+02 0.  0.
        254    2    1    2    0    0 -0.14301308276E+02 -0.22487046255E+03 -0.11712716582E+04  0.15056005358E+04  0.91879509344E+03 0.  0.
         23    2    4    4    0    0  0.48755831564E+02 -0.48622938054E+01 -0.12441895076E+04  0.12485074580E+04  0.91447082056E+02 0.  0.
         23    2    4    4    0    0 -0.63057139840E+02 -0.22000816874E+03  0.72917849417E+02  0.25709307778E+03  0.91651735837E+02 0.  0.
          2    1    3    3  502    0  0.67095522761E+01  0.19691066020E+03 -0.31632942665E+02  0.19954816274E+03  0.00000000000E+00 0. -1.
         -1    1    3    3    0  502  0.75917559997E+01  0.27959802344E+02  0.27391137766E+02  0.39870537172E+02  0.00000000000E+00 0.  1.
         13    1    5    5    0    0 -0.15520807678E+02  0.22157358359E+02 -0.17837985590E+03  0.18041955823E+03  0.00000000000E+00 0. -1.
        -13    1    5    5    0    0  0.64276639242E+02 -0.27019652165E+02 -0.10658096517E+04  0.10680878998E+04  0.00000000000E+00 0.  1.
          1    1    6    6  503    0 -0.44648755230E+02 -0.40896186653E+02 -0.53061550689E+01  0.60779640572E+02  0.00000000000E+00 0. -1.
         -1    1    6    6    0  503 -0.18408384610E+02 -0.17911198209E+03  0.78224004486E+02  0.19631343721E+03  0.00000000000E+00 0.  1.
<mgrwt>
<rscale>  0 0.12896745E+04</rscale>
<asrwt>0</asrwt>
<pdfrwt beam="1">  1        2 0.43808137E-01 0.12896745E+04</pdfrwt>
<pdfrwt beam="2">  1       -1 0.22465636E+00 0.12896745E+04</pdfrwt>
<totfact> 0.13406205E+01</totfact>
</mgrwt>
</event>
<event>
12    7  0.1544987E-007  0.1595122E+04  0.7818608E-02  0.8823550E-01
          2   -1    0    0  501    0  0.00000000000E+00  0.00000000000E+00  0.34488120133E+03  0.34488120133E+03  0.00000000000E+00 0. -1.
         -1   -1    0    0    0  501 -0.00000000000E+00 -0.00000000000E+00 -0.18444145155E+04  0.18444145155E+04  0.00000000000E+00 0.  1.
         24    2    1    2    0    0 -0.33536510523E+03 -0.27334737601E+02  0.66488117384E+02  0.35191480321E+03  0.78780817978E+02 0.  0.
        254    2    1    2    0    0  0.33536510523E+03  0.27334737601E+02 -0.15660214316E+04  0.18373809136E+04  0.90018251259E+03 0.  0.
         23    2    4    4    0    0  0.25241884198E+03  0.31358768687E+03 -0.14451761193E+04  0.15028880876E+04  0.89922627311E+02 0.  0.
         23    2    4    4    0    0  0.82946263250E+02 -0.28625294927E+03 -0.12084531223E+03  0.33449282600E+03  0.91983844259E+02 0.  0.
          2    1    3    3  502    0 -0.33839745976E+03 -0.26078451997E+02  0.60027595120E+02  0.34466830230E+03  0.00000000000E+00 0. -1.
         -1    1    3    3    0  502  0.30323545363E+01 -0.12562856043E+01  0.64605222635E+01  0.72465009122E+01  0.00000000000E+00 0.  1.
         13    1    5    5    0    0  0.50018746956E+01  0.50497228476E+02 -0.15331981732E+03  0.16149908736E+03  0.00000000000E+00 0.  1.
        -13    1    5    5    0    0  0.24741696728E+03  0.26309045840E+03 -0.12918563020E+04  0.13413890003E+04  0.00000000000E+00 0. -1.
          3    1    6    6  503    0  0.39129803949E+02 -0.24819755645E+03 -0.11446588694E+03  0.27610796413E+03  0.00000000000E+00 0. -1.
         -3    1    6    6    0  503  0.43816459301E+02 -0.38055392822E+02 -0.63794252950E+01  0.58384861870E+02  0.00000000000E+00 0.  1.
<mgrwt>
<rscale>  0 0.15951224E+04</rscale>
<asrwt>0</asrwt>
<pdfrwt beam="1">  1        2 0.53058647E-01 0.15951224E+04</pdfrwt>
<pdfrwt beam="2">  1       -1 0.28375608E+00 0.15951224E+04</pdfrwt>
<totfact> 0.43462229E+00</totfact>
</mgrwt>
</event>
<event>
12    7  0.1544987E-007  0.2129879E+04  0.7818608E-02  0.8548194E-01
         -1   -1    0    0    0  501 -0.00000000000E+00  0.00000000000E+00  0.35241335728E+03  0.35241335728E+03  0.00000000000E+00 0.  1.
          2   -1    0    0  501    0  0.00000000000E+00 -0.00000000000E+00 -0.32180852344E+04  0.32180852344E+04  0.00000000000E+00 0. -1.
         24    2    1    2    0    0 -0.16261926296E+03 -0.82606404944E+03 -0.15752014629E+04  0.17878703506E+04  0.79961885344E+02 0.  0.
        254    2    1    2    0    0  0.16261926296E+03  0.82606404944E+03 -0.12904704142E+04  0.17826282412E+04  0.89645006429E+03 0.  0.
         23    2    4    4    0    0  0.36706457666E+03  0.53022945673E+03 -0.12491209912E+04  0.14087298789E+04  0.91306849076E+02 0.  0.
         23    2    4    4    0    0 -0.20444531370E+03  0.29583459271E+03 -0.41349422996E+02  0.37389836229E+03  0.93670795926E+02 0.  0.
          2    1    3    3  502    0 -0.52323811133E+02 -0.37516390146E+03 -0.77957344825E+03  0.86672977068E+03  0.00000000000E+00 0. -1.
         -1    1    3    3    0  502 -0.11029545183E+03 -0.45090014798E+03 -0.79562801469E+03  0.92114057988E+03  0.00000000000E+00 0.  1.
         13    1    5    5    0    0  0.30553593516E+03  0.42912662036E+03 -0.10879046891E+04  0.12087342456E+04  0.00000000000E+00 0. -1.
        -13    1    5    5    0    0  0.61528641503E+02  0.10110283637E+03 -0.16121630209E+03  0.19999563322E+03  0.00000000000E+00 0.  1.
          1    1    6    6  503    0 -0.20094702348E+03  0.25787611681E+03 -0.58467591157E+02  0.33211181413E+03  0.00000000000E+00 0. -1.
         -1    1    6    6    0  503 -0.34982902214E+01  0.37958475893E+02  0.17118168160E+02  0.41786548168E+02  0.00000000000E+00 0.  1.
<mgrwt>
<rscale>  0 0.21298791E+04</rscale>
<asrwt>0</asrwt>
<pdfrwt beam="1">  1        2 0.49509004E+00 0.21298791E+04</pdfrwt>
<pdfrwt beam="2">  1       -1 0.54217439E-01 0.21298791E+04</pdfrwt>
<totfact> 0.45468557E+00</totfact>
</mgrwt>
</event>
<event>
12    7  0.1544987E-007  0.1701106E+04  0.7818608E-02  0.8760734E-01
          2   -1    0    0  501    0  0.00000000000E+00  0.00000000000E+00  0.24152781978E+04  0.24152781978E+04  0.00000000000E+00 0. -1.
         -1   -1    0    0    0  501 -0.00000000000E+00 -0.00000000000E+00 -0.29952684670E+03  0.29952684670E+03  0.00000000000E+00 0.  1.
         24    2    1    2    0    0 -0.55085093021E+03  0.28443106634E+03  0.89732310536E+03  0.10951364650E+04  0.98981526957E+02 0.  0.
        254    2    1    2    0    0  0.55085093021E+03 -0.28443106634E+03  0.12184282457E+04  0.16196685795E+04  0.86857419873E+03 0.  0.
         23    2    4    4    0    0  0.27210294102E+02  0.15089840592E+03 -0.41790114950E+02  0.18431456520E+03  0.93352644437E+02 0.  0.
         23    2    4    4    0    0  0.52364063611E+03 -0.43532947226E+03  0.12602183607E+04  0.14353540143E+04  0.91539962000E+02 0.  0.
          2    1    3    3  502    0 -0.83854326916E+01  0.15870710074E+02  0.55178041074E+02  0.58024228875E+02  0.00000000000E+00 0. -1.
         -1    1    3    3    0  502 -0.54246549752E+03  0.26856035627E+03  0.84214506428E+03  0.10371122361E+04  0.00000000000E+00 0.  1.
         13    1    5    5    0    0  0.20931078057E+01  0.37858730433E+01 -0.34632579581E+02  0.34901712041E+02  0.00000000000E+00 0. -1.
        -13    1    5    5    0    0  0.25117186296E+02  0.14711253288E+03 -0.71575353692E+01  0.14941285316E+03  0.00000000000E+00 0.  1.
          3    1    6    6  503    0  0.26736488369E+03 -0.24420898022E+03  0.75739533221E+03  0.83950562613E+03  0.00000000000E+00 0. -1.
         -3    1    6    6    0  503  0.25627575242E+03 -0.19112049204E+03  0.50282302848E+03  0.59584838821E+03  0.00000000000E+00 0.  1.
<mgrwt>
<rscale>  0 0.17011063E+04</rscale>
<asrwt>0</asrwt>
<pdfrwt beam="1">  1        2 0.37158125E+00 0.17011063E+04</pdfrwt>
<pdfrwt beam="2">  1       -1 0.46081055E-01 0.17011063E+04</pdfrwt>
<totfact> 0.19798334E+01</totfact>
</mgrwt>
</event>
<event>
12    7  0.1544987E-007  0.1633113E+04  0.7818608E-02  0.8800459E-01
          2   -1    0    0  501    0  0.00000000000E+00  0.00000000000E+00  0.91484028010E+03  0.91484028010E+03  0.00000000000E+00 0. -1.
         -1   -1    0    0    0  501 -0.00000000000E+00 -0.00000000000E+00 -0.72883201288E+03  0.72883201288E+03  0.00000000000E+00 0.  1.
         24    2    1    2    0    0 -0.63652512756E+02 -0.52865057582E+03 -0.70954094205E+02  0.54322109958E+03  0.80818350899E+02 0.  0.
        254    2    1    2    0    0  0.63652512756E+02  0.52865057582E+03  0.25696236142E+03  0.11004511934E+04  0.92813797475E+03 0.  0.
         23    2    4    4    0    0  0.42624955374E+03  0.51168297061E+03  0.27115039390E+03  0.72564376583E+03  0.97612470050E+02 0.  0.
         23    2    4    4    0    0 -0.36259704098E+03  0.16967605219E+02 -0.14188032475E+02  0.37480742757E+03  0.92275640015E+02 0.  0.
          4    1    3    3  502    0 -0.20753984342E+02 -0.11798283760E+03  0.17172943229E+02  0.12101895642E+03  0.00000000000E+00 0. -1.
         -3    1    3    3    0  502 -0.42898528414E+02 -0.41066773822E+03 -0.88127037434E+02  0.42220214315E+03  0.00000000000E+00 0.  1.
         13    1    5    5    0    0  0.34441477948E+03  0.34682552690E+03  0.18821127153E+03  0.52376804901E+03  0.00000000000E+00 0. -1.
        -13    1    5    5    0    0  0.81834774264E+02  0.16485744371E+03  0.82939122369E+02  0.20187571683E+03  0.00000000000E+00 0.  1.
          4    1    6    6  503    0 -0.35569799786E+03  0.32797632041E+02 -0.14984072038E+02  0.35752101024E+03  0.00000000000E+00 0. -1.
         -4    1    6    6    0  503 -0.68990431271E+01 -0.15830026822E+02  0.79603956332E+00  0.17286417334E+02  0.00000000000E+00 0.  1.
<mgrwt>
<rscale>  0 0.16331134E+04</rscale>
<asrwt>0</asrwt>
<pdfrwt beam="1">  1        2 0.14074466E+00 0.16331134E+04</pdfrwt>
<pdfrwt beam="2">  1       -1 0.11212800E+00 0.16331134E+04</pdfrwt>
<totfact> 0.22813304E+01</totfact>
</mgrwt>
</event>
<event>
12    7  0.1544987E-007  0.2921446E+04  0.7818608E-02  0.8266525E-01
         -1   -1    0    0    0  501 -0.00000000000E+00  0.00000000000E+00  0.10239671082E+04  0.10239671082E+04  0.00000000000E+00 0.  1.
          2   -1    0    0  501    0  0.00000000000E+00 -0.00000000000E+00 -0.20837699218E+04  0.20837699218E+04  0.00000000000E+00 0. -1.
         24    2    1    2    0    0  0.49158888844E+03  0.10443981767E+04 -0.11686721134E+04  0.16446915481E+04  0.82392919400E+02 0.  0.
        254    2    1    2    0    0 -0.49158888844E+03 -0.10443981767E+04  0.10886929981E+03  0.14630454819E+04  0.89231293339E+03 0.  0.
         23    2    4    4    0    0 -0.57229413493E+03 -0.10949141736E+04  0.25595872423E+03  0.12649457271E+04  0.90637738615E+02 0.  0.
         23    2    4    4    0    0  0.80705246495E+02  0.50515996930E+02 -0.14708942442E+03  0.19809975479E+03  0.92428411839E+02 0.  0.
          4    1    3    3  502    0  0.28698691211E+03  0.69193619418E+03 -0.78223096661E+03  0.10830616186E+04  0.00000000000E+00 0. -1.
         -1    1    3    3    0  502  0.20460197633E+03  0.35246198249E+03 -0.38644114682E+03  0.56162992956E+03  0.00000000000E+00 0.  1.
         13    1    5    5    0    0 -0.22643938787E+03 -0.49892842638E+03  0.79539254574E+02  0.55365229526E+03  0.00000000000E+00 0.  1.
        -13    1    5    5    0    0 -0.34585474706E+03 -0.59598574722E+03  0.17641946966E+03  0.71129343188E+03  0.00000000000E+00 0. -1.
          2    1    6    6  503    0  0.88451061930E+02  0.42264743565E+02 -0.15562348821E+03  0.18392544410E+03  0.00000000000E+00 0. -1.
         -2    1    6    6    0  503 -0.77458154356E+01  0.82512533656E+01  0.85340637883E+01  0.14174310693E+02  0.00000000000E+00 0.  1.
<mgrwt>
<rscale>  0 0.29214461E+04</rscale>
<asrwt>0</asrwt>
<pdfrwt beam="1">  1        2 0.32057999E+00 0.29214461E+04</pdfrwt>
<pdfrwt beam="2">  1       -1 0.15753340E+00 0.29214461E+04</pdfrwt>
<totfact> 0.17940721E+00</totfact>
</mgrwt>
</event>
<event>
12    7  0.1544987E-007  0.3314879E+04  0.7818608E-02  0.8159120E-01
          2   -1    0    0  501    0  0.00000000000E+00  0.00000000000E+00  0.16196118479E+04  0.16196118479E+04  0.00000000000E+00 0. -1.
         -1   -1    0    0    0  501 -0.00000000000E+00 -0.00000000000E+00 -0.16961502787E+04  0.16961502787E+04  0.00000000000E+00 0.  1.
         24    2    1    2    0    0  0.64936389251E+03 -0.61093835068E+03 -0.12715819851E+04  0.15550668271E+04  0.79955980796E+02 0.  0.
        254    2    1    2    0    0 -0.64936389251E+03  0.61093835068E+03  0.11950435542E+04  0.17606952994E+04  0.93648262536E+03 0.  0.
         23    2    4    4    0    0 -0.49218568316E+03  0.72163873298E+03  0.45191117030E+03  0.98782212258E+03  0.92518281346E+02 0.  0.
         23    2    4    4    0    0 -0.15717820936E+03 -0.11070038230E+03  0.74313238393E+03  0.77287317682E+03  0.90153442876E+02 0.  0.
          2    1    3    3  502    0  0.28975314224E+03 -0.32312826967E+03 -0.64399229556E+03  0.77659180967E+03  0.00000000000E+00 0. -1.
         -1    1    3    3    0  502  0.35961075028E+03 -0.28781008101E+03 -0.62758968951E+03  0.77847501747E+03  0.00000000000E+00 0.  1.
         13    1    5    5    0    0 -0.49477125491E+03  0.72059860836E+03  0.44606006207E+03  0.98134118839E+03  0.00000000000E+00 0.  1.
        -13    1    5    5    0    0  0.25855717517E+01  0.10401246198E+01  0.58511082332E+01  0.64809341969E+01  0.00000000000E+00 0. -1.
          2    1    6    6  503    0 -0.16338241843E+02  0.46355279377E+01  0.16115988666E+02  0.23412632412E+02  0.00000000000E+00 0. -1.
         -2    1    6    6    0  503 -0.14083996751E+03 -0.11533591024E+03  0.72701639527E+03  0.74946054441E+03  0.00000000000E+00 0.  1.
<mgrwt>
<rscale>  0 0.33148786E+04</rscale>
<asrwt>0</asrwt>
<pdfrwt beam="1">  1        2 0.24917105E+00 0.33148786E+04</pdfrwt>
<pdfrwt beam="2">  1       -1 0.26094620E+00 0.33148786E+04</pdfrwt>
<totfact> 0.61079426E-01</totfact>
</mgrwt>
</event>
<event>
12    7  0.1544987E-007  0.1599225E+04  0.7818608E-02  0.8821024E-01
         -1   -1    0    0    0  501 -0.00000000000E+00  0.00000000000E+00  0.10591794171E+04  0.10591794171E+04  0.00000000000E+00 0.  1.
          2   -1    0    0  501    0  0.00000000000E+00 -0.00000000000E+00 -0.60365610384E+03  0.60365610384E+03  0.00000000000E+00 0. -1.
         24    2    1    2    0    0  0.34834072769E+02  0.41188887530E+03 -0.25700378163E+03  0.49314027407E+03  0.79186664988E+02 0.  0.
        254    2    1    2    0    0 -0.34834072769E+02 -0.41188887530E+03  0.71252709488E+03  0.11696952469E+04  0.83043738558E+03 0.  0.
         23    2    4    4    0    0 -0.35054603599E+03 -0.39755247804E+03  0.22781462584E+03  0.58424262214E+03  0.92246634789E+02 0.  0.
         23    2    4    4    0    0  0.31571196322E+03 -0.14336397259E+02  0.48471246904E+03  0.58545262472E+03  0.89045056863E+02 0.  0.
          4    1    3    3  502    0  0.15083754685E+02  0.36692641443E+03 -0.24820982941E+03  0.44325007916E+03  0.00000000000E+00 0. -1.
         -3    1    3    3    0  502  0.19750318083E+02  0.44962460877E+02 -0.87939522233E+01  0.49890194911E+02  0.00000000000E+00 0.  1.
         13    1    5    5    0    0 -0.47336759324E+01 -0.31437682908E+02  0.73303938608E+00  0.31800517940E+02  0.00000000000E+00 0.  1.
        -13    1    5    5    0    0 -0.34581236005E+03 -0.36611479514E+03  0.22708158646E+03  0.55244210420E+03  0.00000000000E+00 0. -1.
          4    1    6    6  503    0  0.33452520784E+02  0.35973252087E+01  0.14289857189E+02  0.36554232503E+02  0.00000000000E+00 0.  1.
         -4    1    6    6    0  503  0.28225944243E+03 -0.17933722468E+02  0.47042261185E+03  0.54889839222E+03  0.00000000000E+00 0. -1.
<mgrwt>
<rscale>  0 0.15992250E+04</rscale>
<asrwt>0</asrwt>
<pdfrwt beam="1">  1        2 0.92870170E-01 0.15992250E+04</pdfrwt>
<pdfrwt beam="2">  1       -1 0.16295068E+00 0.15992250E+04</pdfrwt>
<totfact> 0.14975606E+01</totfact>
</mgrwt>
</event>
<event>
12    7  0.1544987E-007  0.1979447E+04  0.7818608E-02  0.8616291E-01
          2   -1    0    0  501    0  0.00000000000E+00  0.00000000000E+00  0.12491623010E+04  0.12491623010E+04  0.00000000000E+00 0. -1.
         -1   -1    0    0    0  501 -0.00000000000E+00 -0.00000000000E+00 -0.78416739424E+03  0.78416739424E+03  0.00000000000E+00 0.  1.
         24    2    1    2    0    0  0.27939495071E+03 -0.30646578674E+03 -0.50968873860E+03  0.66215643229E+03  0.81766213328E+02 0.  0.
        254    2    1    2    0    0 -0.27939495071E+03  0.30646578674E+03  0.97468364541E+03  0.13711732630E+04  0.87070379096E+03 0.  0.
         23    2    4    4    0    0 -0.45876025930E+03  0.19512186839E+03  0.17039487671E+03  0.53457743174E+03  0.90581993145E+02 0.  0.
         23    2    4    4    0    0  0.17936530859E+03  0.11134391836E+03  0.80428876870E+03  0.83659583125E+03  0.91884597945E+02 0.  0.
          2    1    3    3  502    0  0.99698774542E+01 -0.18996080589E+02 -0.52465698995E+01  0.22085652128E+02  0.00000000000E+00 0. -1.
         -1    1    3    3    0  502  0.26942507326E+03 -0.28746970616E+03 -0.50444216870E+03  0.64007078016E+03  0.00000000000E+00 0.  1.
         13    1    5    5    0    0 -0.26973427110E+03  0.98805308260E+02  0.14229998371E+03  0.32057503227E+03  0.00000000000E+00 0.  1.
        -13    1    5    5    0    0 -0.18902598820E+03  0.96316560125E+02  0.28094892998E+02  0.21400239948E+03  0.00000000000E+00 0. -1.
          1    1    6    6  503    0  0.14475780813E+02  0.33567728114E+01  0.92838275134E+01  0.17521575475E+02  0.00000000000E+00 0. -1.
         -1    1    6    6    0  503  0.16488952778E+03  0.10798714555E+03  0.79500494118E+03  0.81907425578E+03  0.00000000000E+00 0.  1.
<mgrwt>
<rscale>  0 0.19794467E+04</rscale>
<asrwt>0</asrwt>
<pdfrwt beam="1">  1        2 0.19217882E+00 0.19794467E+04</pdfrwt>
<pdfrwt beam="2">  1       -1 0.12064114E+00 0.19794467E+04</pdfrwt>
<totfact> 0.11480196E+01</totfact>
</mgrwt>
</event>
<event>
12    7  0.1544987E-007  0.2523778E+04  0.7818608E-02  0.8394563E-01
         -1   -1    0    0    0  501 -0.00000000000E+00  0.00000000000E+00  0.56042117498E+03  0.56042117498E+03  0.00000000000E+00 0.  1.
          2   -1    0    0  501    0  0.00000000000E+00 -0.00000000000E+00 -0.28413688707E+04  0.28413688707E+04  0.00000000000E+00 0. -1.
         24    2    1    2    0    0  0.21739578341E+03 -0.60220752475E+02 -0.24441275304E+04  0.24557458115E+04  0.77721557390E+02 0.  0.
        254    2    1    2    0    0 -0.21739578341E+03  0.60220752475E+02  0.16317983468E+03  0.94604423410E+03  0.90414853246E+03 0.  0.
         23    2    4    4    0    0 -0.29467707998E+03  0.41513713783E+03 -0.43110323400E+02  0.51895523636E+03  0.91008860505E+02 0.  0.
         23    2    4    4    0    0  0.77281296575E+02 -0.35491638536E+03  0.20629015809E+03  0.42708899774E+03  0.88945732174E+02 0.  0.
          4    1    3    3  502    0  0.13109955521E+03 -0.39767204924E+01 -0.15974321809E+04  0.16028076866E+04  0.00000000000E+00 0. -1.
         -3    1    3    3    0  502  0.86296228192E+02 -0.56244031982E+02 -0.84669534947E+03  0.85293812493E+03  0.00000000000E+00 0.  1.
         13    1    5    5    0    0 -0.10878309898E+03  0.85818395449E+02 -0.20994498030E+01  0.13857477155E+03  0.00000000000E+00 0.  1.
        -13    1    5    5    0    0 -0.18589398101E+03  0.32931874238E+03 -0.41010873597E+02  0.38038046481E+03  0.00000000000E+00 0. -1.
          3    1    6    6  503    0  0.24567852887E+02 -0.28655190359E+03  0.16107907125E+03  0.32963925744E+03  0.00000000000E+00 0. -1.
         -3    1    6    6    0  503  0.52713443689E+02 -0.68364481765E+02  0.45211086832E+02  0.97449740302E+02  0.00000000000E+00 0.  1.
<mgrwt>
<rscale>  0 0.25237776E+04</rscale>
<asrwt>0</asrwt>
<pdfrwt beam="1">  1        2 0.43713368E+00 0.25237776E+04</pdfrwt>
<pdfrwt beam="2">  1       -1 0.86218642E-01 0.25237776E+04</pdfrwt>
<totfact> 0.29320537E+00</totfact>
</mgrwt>
</event>
<event>
12    7  0.1544987E-007  0.1222840E+04  0.7818608E-02  0.9093096E-01
         -1   -1    0    0    0  501 -0.00000000000E+00  0.00000000000E+00  0.44545760792E+03  0.44545760792E+03  0.00000000000E+00 0.  1.
          2   -1    0    0  501    0  0.00000000000E+00 -0.00000000000E+00 -0.83921420021E+03  0.83921420021E+03  0.00000000000E+00 0. -1.
         24    2    1    2    0    0 -0.13074585202E+03 -0.19618119542E+03  0.88644547701E+02  0.26531476689E+03  0.83381835139E+02 0.  0.
        254    2    1    2    0    0  0.13074585202E+03  0.19618119542E+03 -0.48240113999E+03  0.10193570412E+04  0.86648507109E+03 0.  0.
         23    2    4    4    0    0 -0.29078629925E+02  0.43766767387E+03  0.17626595447E+01  0.44774314399E+03  0.89845737531E+02 0.  0.
         23    2    4    4    0    0  0.15982448195E+03 -0.24148647845E+03 -0.48416379954E+03  0.57161389726E+03  0.92023249523E+02 0.  0.
          2    1    3    3  502    0 -0.75557802296E+01 -0.72775504233E+02  0.43785001990E+02  0.85267169711E+02  0.00000000000E+00 0. -1.
         -1    1    3    3    0  502 -0.12319007179E+03 -0.12340569119E+03  0.44859545711E+02  0.18004759717E+03  0.00000000000E+00 0.  1.
         13    1    5    5    0    0 -0.92502132318E+01  0.48028288969E+01 -0.97489681597E+01  0.14271509746E+02  0.00000000000E+00 0. -1.
        -13    1    5    5    0    0 -0.19828416693E+02  0.43286484497E+03  0.11511627704E+02  0.43347163425E+03  0.00000000000E+00 0.  1.
          4    1    6    6  503    0 -0.32881520086E+01 -0.37986774534E+02 -0.10241909841E+03  0.10928622375E+03  0.00000000000E+00 0. -1.
         -4    1    6    6    0  503  0.16311263396E+03 -0.20349970391E+03 -0.38174470113E+03  0.46232767350E+03  0.00000000000E+00 0.  1.
<mgrwt>
<rscale>  0 0.12228399E+04</rscale>
<asrwt>0</asrwt>
<pdfrwt beam="1">  1        2 0.12910988E+00 0.12228399E+04</pdfrwt>
<pdfrwt beam="2">  1       -1 0.68531940E-01 0.12228399E+04</pdfrwt>
<totfact> 0.78291977E+01</totfact>
</mgrwt>
</event>
<event>
12    7  0.1544987E-007  0.1169243E+04  0.7818608E-02  0.9140212E-01
         -1   -1    0    0    0  501 -0.00000000000E+00  0.00000000000E+00  0.13869354243E+03  0.13869354243E+03  0.00000000000E+00 0.  1.
          2   -1    0    0  501    0  0.00000000000E+00 -0.00000000000E+00 -0.24643005885E+04  0.24643005885E+04  0.00000000000E+00 0. -1.
         24    2    1    2    0    0 -0.87594447486E+02  0.21502563417E+03 -0.64503346720E+03  0.68966792781E+03  0.75265305837E+02 0.  0.
        254    2    1    2    0    0  0.87594447486E+02 -0.21502563417E+03 -0.16805735789E+04  0.19133262031E+04  0.88463596748E+03 0.  0.
         23    2    4    4    0    0 -0.14838506732E+03  0.38888695534E+02 -0.15027843454E+04  0.15134035125E+04  0.92189717808E+02 0.  0.
         23    2    4    4    0    0  0.23597951481E+03 -0.25391432970E+03 -0.17778923347E+03  0.39992269061E+03  0.90389870493E+02 0.  0.
          2    1    3    3  502    0 -0.76341344560E+02  0.13191374575E+03 -0.32721654119E+03  0.36097077726E+03  0.00000000000E+00 0. -1.
         -1    1    3    3    0  502 -0.11253102927E+02  0.83111888415E+02 -0.31781692601E+03  0.32869715055E+03  0.00000000000E+00 0.  1.
         13    1    5    5    0    0 -0.19270128463E+02  0.11495795690E+02 -0.65693905450E+03  0.65732215275E+03  0.00000000000E+00 0.  1.
        -13    1    5    5    0    0 -0.12911493886E+03  0.27392899844E+02 -0.84584529088E+03  0.85608135975E+03  0.00000000000E+00 0. -1.
          3    1    6    6  503    0  0.95165195651E+02 -0.61079059537E+02 -0.93424669519E+02  0.14668072420E+03  0.00000000000E+00 0. -1.
         -3    1    6    6    0  503  0.14081431916E+03 -0.19283527016E+03 -0.84364563953E+02  0.25324196641E+03  0.00000000000E+00 0.  1.
<mgrwt>
<rscale>  0 0.11692435E+04</rscale>
<asrwt>0</asrwt>
<pdfrwt beam="1">  1        2 0.37912316E+00 0.11692435E+04</pdfrwt>
<pdfrwt beam="2">  1       -1 0.21337469E-01 0.11692435E+04</pdfrwt>
<totfact> 0.75914561E+01</totfact>
</mgrwt>
</event>
<event>
12    7  0.1544987E-007  0.1925752E+04  0.7818608E-02  0.8642143E-01
         -3   -1    0    0    0  501 -0.00000000000E+00  0.00000000000E+00  0.59922123541E+03  0.59922123541E+03  0.00000000000E+00 0.  1.
          4   -1    0    0  501    0  0.00000000000E+00 -0.00000000000E+00 -0.15472258134E+04  0.15472258134E+04  0.00000000000E+00 0. -1.
         24    2    1    2    0    0  0.17009829992E+03  0.24462824155E+03 -0.11290583579E+04  0.11705363428E+04  0.81278201454E+02 0.  0.
        254    2    1    2    0    0 -0.17009829992E+03 -0.24462824155E+03  0.18105377986E+03  0.97591070607E+03  0.91150689894E+03 0.  0.
         23    2    4    4    0    0 -0.46288196831E+03 -0.90121834224E+02  0.34902567231E+03  0.59369421164E+03  0.90951830170E+02 0.  0.
         23    2    4    4    0    0  0.29278366839E+03 -0.15450640733E+03 -0.16797189245E+03  0.38221649443E+03  0.90996624013E+02 0.  0.
          4    1    3    3  502    0  0.14347985455E+03  0.23483705737E+03 -0.10727687262E+04  0.11075051477E+04  0.00000000000E+00 0. -1.
         -3    1    3    3    0  502  0.26618445372E+02  0.97911841820E+01 -0.56289631665E+02  0.63031195092E+02  0.00000000000E+00 0.  1.
         13    1    5    5    0    0 -0.37973634804E+03 -0.69288529756E+02  0.23818802976E+03  0.45357924545E+03  0.00000000000E+00 0. -1.
        -13    1    5    5    0    0 -0.83145620269E+02 -0.20833304468E+02  0.11083764255E+03  0.14011496619E+03  0.00000000000E+00 0.  1.
          4    1    6    6  503    0  0.25464095444E+03 -0.11695184571E+03 -0.10420730917E+03  0.29896306323E+03  0.00000000000E+00 0. -1.
         -4    1    6    6    0  503  0.38142713950E+02 -0.37554561617E+02 -0.63764583278E+02  0.83253431198E+02  0.00000000000E+00 0.  1.
<mgrwt>
<rscale>  0 0.19257524E+04</rscale>
<asrwt>0</asrwt>
<pdfrwt beam="1">  1        4 0.23803473E+00 0.19257524E+04</pdfrwt>
<pdfrwt beam="2">  1       -3 0.92187885E-01 0.19257524E+04</pdfrwt>
<totfact> 0.16888490E-01</totfact>
</mgrwt>
</event>
<event>
12    7  0.1544987E-007  0.1783242E+04  0.7818608E-02  0.8715262E-01
          4   -1    0    0  501    0  0.00000000000E+00  0.00000000000E+00  0.91204555919E+03  0.91204555919E+03  0.00000000000E+00 0. -1.
         -3   -1    0    0    0  501 -0.00000000000E+00 -0.00000000000E+00 -0.87165425019E+03  0.87165425019E+03  0.00000000000E+00 0.  1.
         24    2    1    2    0    0  0.61960272306E+03 -0.22040077840E+03 -0.48929767368E+02  0.66429916912E+03  0.80095108548E+02 0.  0.
        254    2    1    2    0    0 -0.61960272306E+03  0.22040077840E+03  0.89321076362E+02  0.11194006403E+04  0.90144079185E+03 0.  0.
         23    2    4    4    0    0 -0.69422798958E+02 -0.17871038749E+03 -0.27318125060E+03  0.34362447543E+03  0.81809882163E+02 0.  0.
         23    2    4    4    0    0 -0.55017992410E+03  0.39911116589E+03  0.36250232696E+03  0.77577616484E+03  0.91831635418E+02 0.  0.
          2    1    3    3  502    0  0.49296529517E+03 -0.18943291139E+03 -0.68268641509E+02  0.53250372540E+03  0.00000000000E+00 0. -1.
         -1    1    3    3    0  502  0.12663742789E+03 -0.30967867011E+02  0.19338874141E+02  0.13179544371E+03  0.00000000000E+00 0.  1.
         13    1    5    5    0    0 -0.38083060286E+02 -0.89607008821E+02 -0.71107742376E+02  0.12056552798E+03  0.00000000000E+00 0. -1.
        -13    1    5    5    0    0 -0.31339738671E+02 -0.89103378668E+02 -0.20207350823E+03  0.22305894745E+03  0.00000000000E+00 0.  1.
          3    1    6    6  503    0 -0.16749901311E+03  0.17284276387E+03  0.14310183155E+03  0.28001548994E+03  0.00000000000E+00 0. -1.
         -3    1    6    6    0  503 -0.38268091099E+03  0.22626840202E+03  0.21940049542E+03  0.49576067490E+03  0.00000000000E+00 0.  1.
<mgrwt>
<rscale>  0 0.17832424E+04</rscale>
<asrwt>0</asrwt>
<pdfrwt beam="1">  1        4 0.14031470E+00 0.17832424E+04</pdfrwt>
<pdfrwt beam="2">  1       -3 0.13410065E+00 0.17832424E+04</pdfrwt>
<totfact> 0.32983658E-01</totfact>
</mgrwt>
</event>
<event>
12    7  0.1544987E-007  0.1595694E+04  0.7818608E-02  0.8823198E-01
         -3   -1    0    0    0  501 -0.00000000000E+00  0.00000000000E+00  0.33702759141E+03  0.33702759141E+03  0.00000000000E+00 0.  1.
          4   -1    0    0  501    0  0.00000000000E+00 -0.00000000000E+00 -0.18887476483E+04  0.18887476483E+04  0.00000000000E+00 0. -1.
         24    2    1    2    0    0  0.34773242329E+03  0.33665129663E+03 -0.17282750407E+03  0.52010168320E+03  0.79902947209E+02 0.  0.
        254    2    1    2    0    0 -0.34773242329E+03 -0.33665129663E+03 -0.13788925528E+04  0.17056735565E+04  0.87961677756E+03 0.  0.
         23    2    4    4    0    0 -0.29729639803E+03 -0.79732527314E+02 -0.13899692568E+04  0.14265622753E+04  0.91230293026E+02 0.  0.
         23    2    4    4    0    0 -0.50436025261E+02 -0.25691876932E+03  0.11076703984E+02  0.27911128116E+03  0.96069595747E+02 0.  0.
          4    1    3    3  502    0  0.10115837455E+02 -0.38931208530E+01 -0.59053592792E+01  0.12343412235E+02  0.00000000000E+00 0. -1.
         -3    1    3    3    0  502  0.33761658584E+03  0.34054441749E+03 -0.16692214479E+03  0.50775827097E+03  0.00000000000E+00 0.  1.
         13    1    5    5    0    0 -0.35654797611E+02  0.19611557883E+02 -0.20395662971E+03  0.20797640395E+03  0.00000000000E+00 0. -1.
        -13    1    5    5    0    0 -0.26164160042E+03 -0.99344085197E+02 -0.11860126271E+04  0.12185858714E+04  0.00000000000E+00 0.  1.
          1    1    6    6  503    0 -0.50626311572E+01 -0.13296589898E+03 -0.37846802651E+02  0.13833994722E+03  0.00000000000E+00 0. -1.
         -1    1    6    6    0  503 -0.45373394104E+02 -0.12395287034E+03  0.48923506636E+02  0.14077133394E+03  0.00000000000E+00 0.  1.
<mgrwt>
<rscale>  0 0.15956943E+04</rscale>
<asrwt>0</asrwt>
<pdfrwt beam="1">  1        4 0.29057656E+00 0.15956943E+04</pdfrwt>
<pdfrwt beam="2">  1       -3 0.51850399E-01 0.15956943E+04</pdfrwt>
<totfact> 0.28656226E-01</totfact>
</mgrwt>
</event>
<event>
12    7  0.1544987E-007  0.1109304E+04  0.7818608E-02  0.9196171E-01
         -1   -1    0    0    0  501 -0.00000000000E+00  0.00000000000E+00  0.18475429776E+03  0.18475429776E+03  0.00000000000E+00 0.  1.
          2   -1    0    0  501    0  0.00000000000E+00 -0.00000000000E+00 -0.16651234557E+04  0.16651234557E+04  0.00000000000E+00 0. -1.
         24    2    1    2    0    0 -0.16473027370E+03  0.11051463183E+02 -0.12568916250E+03  0.22269332721E+03  0.80847724154E+02 0.  0.
        254    2    1    2    0    0  0.16473027370E+03 -0.11051463183E+02 -0.13546799955E+04  0.16271844263E+04  0.88617891482E+03 0.  0.
         23    2    4    4    0    0  0.70748180914E+02  0.83034186178E+02 -0.14383299835E+04  0.14453793194E+04  0.91805523913E+02 0.  0.
         23    2    4    4    0    0  0.93982092786E+02 -0.94085649361E+02  0.83649988081E+02  0.18180510687E+03  0.91493350565E+02 0.  0.
          4    1    3    3  502    0 -0.33007481590E+02  0.36923420682E+02 -0.31220958470E+02  0.58545547086E+02  0.00000000000E+00 0. -1.
         -3    1    3    3    0  502 -0.13172279211E+03 -0.25871957499E+02 -0.94468204026E+02  0.16414778012E+03  0.00000000000E+00 0.  1.
         13    1    5    5    0    0  0.88856668903E+02  0.85947925776E+02 -0.12930702939E+04  0.12989662577E+04  0.00000000000E+00 0.  1.
        -13    1    5    5    0    0 -0.18108487989E+02 -0.29137395988E+01 -0.14525968959E+03  0.14641306170E+03  0.00000000000E+00 0. -1.
          4    1    6    6  503    0  0.89170607111E+02 -0.28530285042E+02  0.34691692575E+02  0.99844318170E+02  0.00000000000E+00 0. -1.
         -4    1    6    6    0  503  0.48114856755E+01 -0.65555364318E+02  0.48958295506E+02  0.81960788699E+02  0.00000000000E+00 0.  1.
<mgrwt>
<rscale>  0 0.11093038E+04</rscale>
<asrwt>0</asrwt>
<pdfrwt beam="1">  1        2 0.25617284E+00 0.11093038E+04</pdfrwt>
<pdfrwt beam="2">  1       -1 0.28423738E-01 0.11093038E+04</pdfrwt>
<totfact> 0.13001629E+02</totfact>
</mgrwt>
</event>
<event>
12    7  0.1544987E-007  0.2951216E+04  0.7818608E-02  0.8257800E-01
          2   -1    0    0  501    0  0.00000000000E+00  0.00000000000E+00  0.28546279352E+04  0.28546279352E+04  0.00000000000E+00 0. -1.
         -1   -1    0    0    0  501 -0.00000000000E+00 -0.00000000000E+00 -0.76276782695E+03  0.76276782695E+03  0.00000000000E+00 0.  1.
         24    2    1    2    0    0 -0.65771779281E+03  0.10547833334E+04  0.30066808442E+03  0.12814190072E+04  0.80453710759E+02 0.  0.
        254    2    1    2    0    0  0.65771779281E+03 -0.10547833334E+04  0.17911920239E+04  0.23359767550E+04  0.83860476883E+03 0.  0.
         23    2    4    4    0    0  0.65484042887E+03 -0.34719307823E+03  0.11823354099E+04  0.13983960311E+04  0.90749201157E+02 0.  0.
         23    2    4    4    0    0  0.28773639479E+01 -0.70759025515E+03  0.60885661397E+03  0.93758072391E+03  0.87515650380E+02 0.  0.
          4    1    3    3  502    0 -0.17346363200E+03  0.21891248632E+03  0.79696173974E+02  0.29045445157E+03  0.00000000000E+00 0. -1.
         -3    1    3    3    0  502 -0.48425416081E+03  0.83587084706E+03  0.22097191044E+03  0.99096455559E+03  0.00000000000E+00 0.  1.
         13    1    5    5    0    0  0.10205237404E+03 -0.21325743183E+02  0.14399332851E+03  0.17777388173E+03  0.00000000000E+00 0.  1.
        -13    1    5    5    0    0  0.55278805483E+03 -0.32586733505E+03  0.10383420814E+04  0.12206221494E+04  0.00000000000E+00 0. -1.
          4    1    6    6  503    0  0.36885910060E+01 -0.62753129726E+03  0.49959309912E+03  0.80212368088E+03  0.00000000000E+00 0. -1.
         -4    1    6    6    0  503 -0.81122705808E+00 -0.80058957895E+02  0.10926351485E+03  0.13545704303E+03  0.00000000000E+00 0.  1.
<mgrwt>
<rscale>  0 0.29512156E+04</rscale>
<asrwt>0</asrwt>
<pdfrwt beam="1">  1        2 0.43917352E+00 0.29512156E+04</pdfrwt>
<pdfrwt beam="2">  1       -1 0.11734890E+00 0.29512156E+04</pdfrwt>
<totfact> 0.13669877E+00</totfact>
</mgrwt>
</event>
<event>
12    7  0.1544987E-007  0.1289499E+04  0.7818608E-02  0.9037935E-01
          2   -1    0    0  501    0  0.00000000000E+00  0.00000000000E+00  0.45791479025E+03  0.45791479025E+03  0.00000000000E+00 0. -1.
         -1   -1    0    0    0  501 -0.00000000000E+00 -0.00000000000E+00 -0.90781442374E+03  0.90781442374E+03  0.00000000000E+00 0.  1.
         24    2    1    2    0    0 -0.26814092252E+03  0.57648974165E+02 -0.71671178518E+02  0.29510783187E+03  0.82029970422E+02 0.  0.
        254    2    1    2    0    0  0.26814092252E+03 -0.57648974165E+02 -0.37822845497E+03  0.10706213821E+04  0.96330183283E+03 0.  0.
         23    2    4    4    0    0  0.14588450025E+03 -0.47377131476E+03 -0.37366860617E+03  0.62753812361E+03  0.91838571650E+02 0.  0.
         23    2    4    4    0    0  0.12225642226E+03  0.41612234060E+03 -0.45598488071E+01  0.44308325851E+03  0.90540303831E+02 0.  0.
          4    1    3    3  502    0 -0.14203124731E+03  0.47937250692E+02 -0.76979933484E+02  0.16851339821E+03  0.00000000000E+00 0. -1.
         -3    1    3    3    0  502 -0.12610967521E+03  0.97117234732E+01  0.53087549660E+01  0.12659443366E+03  0.00000000000E+00 0.  1.
         13    1    5    5    0    0  0.15633047100E+03 -0.40793884281E+03 -0.33454246026E+03  0.55024719296E+03  0.00000000000E+00 0. -1.
        -13    1    5    5    0    0 -0.10445970745E+02 -0.65832471952E+02 -0.39126145903E+02  0.77290930654E+02  0.00000000000E+00 0.  1.
          4    1    6    6  503    0  0.11239439412E+03  0.36909114637E+03 -0.33017492628E+02  0.38723497902E+03  0.00000000000E+00 0. -1.
         -4    1    6    6    0  503  0.98620281417E+01  0.47031194233E+02  0.28457643820E+02  0.55848279489E+02  0.00000000000E+00 0.  1.
<mgrwt>
<rscale>  0 0.12894986E+04</rscale>
<asrwt>0</asrwt>
<pdfrwt beam="1">  1        2 0.70448430E-01 0.12894986E+04</pdfrwt>
<pdfrwt beam="2">  1       -1 0.13966376E+00 0.12894986E+04</pdfrwt>
<totfact> 0.32269210E+01</totfact>
</mgrwt>
</event>
<event>
12    7  0.1544987E-007  0.1679774E+04  0.7818608E-02  0.8772985E-01
         -1   -1    0    0    0  501 -0.00000000000E+00  0.00000000000E+00  0.28095966999E+03  0.28095966999E+03  0.00000000000E+00 0.  1.
          2   -1    0    0  501    0  0.00000000000E+00 -0.00000000000E+00 -0.25107171312E+04  0.25107171312E+04  0.00000000000E+00 0. -1.
         24    2    1    2    0    0  0.39762705491E+02 -0.47541866110E+03 -0.21027989191E+03  0.52759595969E+03  0.80844836950E+02 0.  0.
        254    2    1    2    0    0 -0.39762705491E+02  0.47541866110E+03 -0.20194775693E+04  0.22640808415E+04  0.90563150777E+03 0.  0.
         23    2    4    4    0    0  0.40821192012E+03  0.23555603063E+03 -0.72757425821E+03  0.87283536835E+03  0.10175295441E+03 0.  0.
         23    2    4    4    0    0 -0.44797462561E+03  0.23986263048E+03 -0.12919033111E+04  0.13912454731E+04  0.91293234605E+02 0.  0.
          4    1    3    3  502    0  0.46102368948E+02 -0.16071387326E+03 -0.50867954338E+02  0.17476248527E+03  0.00000000000E+00 0. -1.
         -3    1    3    3    0  502 -0.63396634569E+01 -0.31470478785E+03 -0.15941193757E+03  0.35283347441E+03  0.00000000000E+00 0.  1.
         13    1    5    5    0    0  0.21807803833E+03  0.68503305671E+02 -0.36473350217E+03  0.43044309879E+03  0.00000000000E+00 0. -1.
        -13    1    5    5    0    0  0.19013388179E+03  0.16705272496E+03 -0.36284075604E+03  0.44239226956E+03  0.00000000000E+00 0.  1.
          1    1    6    6  503    0 -0.21866525386E+03  0.15126176694E+03 -0.57854916832E+03  0.63672109714E+03  0.00000000000E+00 0. -1.
         -1    1    6    6    0  503 -0.22930937175E+03  0.88600863534E+02 -0.71335414274E+03  0.75452437599E+03  0.00000000000E+00 0.  1.
<mgrwt>
<rscale>  0 0.16797741E+04</rscale>
<asrwt>0</asrwt>
<pdfrwt beam="1">  1        2 0.38626416E+00 0.16797741E+04</pdfrwt>
<pdfrwt beam="2">  1       -1 0.43224566E-01 0.16797741E+04</pdfrwt>
<totfact> 0.19695153E+01</totfact>
</mgrwt>
</event>
<event>
12    7  0.1544987E-007  0.2329039E+04  0.7818608E-02  0.8466559E-01
         -1   -1    0    0    0  501 -0.00000000000E+00  0.00000000000E+00  0.42765688297E+03  0.42765688297E+03  0.00000000000E+00 0.  1.
          2   -1    0    0  501    0  0.00000000000E+00 -0.00000000000E+00 -0.31710125848E+04  0.31710125848E+04  0.00000000000E+00 0. -1.
         24    2    1    2    0    0 -0.71585685960E+03  0.41676599020E+03 -0.33372755516E+03  0.89640777316E+03  0.77639427432E+02 0.  0.
        254    2    1    2    0    0  0.71585685960E+03 -0.41676599020E+03 -0.24096281467E+04  0.27022616946E+04  0.89986972773E+03 0.  0.
         23    2    4    4    0    0  0.43222066161E+03 -0.61093656883E+03 -0.10197666169E+04  0.12676557783E+04  0.83480704434E+02 0.  0.
         23    2    4    4    0    0  0.28363619799E+03  0.19417057864E+03 -0.13898615298E+04  0.14346059163E+04  0.90704776897E+02 0.  0.
          4    1    3    3  502    0 -0.17077236944E+03  0.62856039214E+02 -0.67366518385E+02  0.19404208727E+03  0.00000000000E+00 0. -1.
         -3    1    3    3    0  502 -0.54508449016E+03  0.35390995098E+03 -0.26636103678E+03  0.70236568590E+03  0.00000000000E+00 0.  1.
         13    1    5    5    0    0  0.16217509396E+03 -0.16275116801E+03 -0.31076870534E+03  0.38647883772E+03  0.00000000000E+00 0.  1.
        -13    1    5    5    0    0  0.27004556765E+03 -0.44818540082E+03 -0.70899791154E+03  0.88117694063E+03  0.00000000000E+00 0. -1.
          4    1    6    6  503    0  0.18931926142E+02  0.31212991294E+02 -0.73827773326E+02  0.82360237780E+02  0.00000000000E+00 0. -1.
         -4    1    6    6    0  503  0.26470427185E+03  0.16295758734E+03 -0.13160337565E+04  0.13522456785E+04  0.00000000000E+00 0.  1.
<mgrwt>
<rscale>  0 0.23290387E+04</rscale>
<asrwt>0</asrwt>
<pdfrwt beam="1">  1        2 0.48784808E+00 0.23290387E+04</pdfrwt>
<pdfrwt beam="2">  1       -1 0.65793368E-01 0.23290387E+04</pdfrwt>
<totfact> 0.32668461E+00</totfact>
</mgrwt>
</event>
<event>
12    7  0.1544987E-007  0.1736628E+04  0.7818608E-02  0.8740746E-01
         -1   -1    0    0    0  501 -0.00000000000E+00  0.00000000000E+00  0.17333467569E+04  0.17333467569E+04  0.00000000000E+00 0.  1.
          2   -1    0    0  501    0  0.00000000000E+00 -0.00000000000E+00 -0.43497864068E+03  0.43497864068E+03  0.00000000000E+00 0. -1.
         24    2    1    2    0    0  0.24416838452E+03  0.29062205663E+03 -0.99160822278E+02  0.40066507622E+03  0.81364948407E+02 0.  0.
        254    2    1    2    0    0 -0.24416838452E+03 -0.29062205663E+03  0.13975289385E+04  0.17676603214E+04  0.10136352884E+04 0.  0.
         23    2    4    4    0    0 -0.13344906784E+03 -0.62618872317E+03  0.11692524085E+04  0.13362204017E+04  0.91721297211E+02 0.  0.
         23    2    4    4    0    0 -0.11071931668E+03  0.33556666654E+03  0.22827653006E+03  0.43143991973E+03  0.95741711782E+02 0.  0.
          4    1    3    3  502    0  0.22724244998E+03  0.27688918084E+03 -0.71190859014E+02  0.36520526823E+03  0.00000000000E+00 0. -1.
         -3    1    3    3    0  502  0.16925934539E+02  0.13732875793E+02 -0.27969963263E+02  0.35459807988E+02  0.00000000000E+00 0.  1.
         13    1    5    5    0    0 -0.30095009267E+02 -0.33373289346E+03  0.56135988542E+03  0.65376469369E+03  0.00000000000E+00 0.  1.
        -13    1    5    5    0    0 -0.10335405857E+03 -0.29245582971E+03  0.60789252306E+03  0.68245570797E+03  0.00000000000E+00 0. -1.
          2    1    6    6  503    0 -0.40936290995E+02  0.88598299802E+02  0.17096155893E+02  0.99084394304E+02  0.00000000000E+00 0. -1.
         -2    1    6    6    0  503 -0.69783025689E+02  0.24696836674E+03  0.21118037417E+03  0.33235552542E+03  0.00000000000E+00 0.  1.
<mgrwt>
<rscale>  0 0.17366276E+04</rscale>
<asrwt>0</asrwt>
<pdfrwt beam="1">  1        2 0.66919792E-01 0.17366276E+04</pdfrwt>
<pdfrwt beam="2">  1       -1 0.26666873E+00 0.17366276E+04</pdfrwt>
<totfact> 0.42613705E+00</totfact>
</mgrwt>
</event>
<event>
12    7  0.1544987E-007  0.1757049E+04  0.7818608E-02  0.8729480E-01
         -1   -1    0    0    0  501 -0.00000000000E+00  0.00000000000E+00  0.12269180355E+04  0.12269180355E+04  0.00000000000E+00 0.  1.
          2   -1    0    0  501    0  0.00000000000E+00 -0.00000000000E+00 -0.62906037148E+03  0.62906037148E+03  0.00000000000E+00 0. -1.
         24    2    1    2    0    0  0.45860322188E+03 -0.40516066870E+03  0.34300647640E+01  0.61734176756E+03  0.81406449707E+02 0.  0.
        254    2    1    2    0    0 -0.45860322188E+03  0.40516066870E+03  0.59442759930E+03  0.12386366395E+04  0.89800026237E+03 0.  0.
         23    2    4    4    0    0 -0.45607297593E+03  0.11035309912E+03  0.75214616619E+03  0.89118194504E+03  0.91110032302E+02 0.  0.
         23    2    4    4    0    0 -0.25302459503E+01  0.29480756957E+03 -0.15771856690E+03  0.34745469441E+03  0.94507740983E+02 0.  0.
          4    1    3    3  502    0  0.39118807075E+03 -0.31480647313E+03 -0.18624123762E+02  0.50247196957E+03  0.00000000000E+00 0. -1.
         -3    1    3    3    0  502  0.67415151134E+02 -0.90354195564E+02  0.22054188526E+02  0.11486979799E+03  0.00000000000E+00 0.  1.
         13    1    5    5    0    0 -0.45752488722E+03  0.11492621646E+03  0.74976811708E+03  0.88582689451E+03  0.00000000000E+00 0. -1.
        -13    1    5    5    0    0  0.14519112854E+01 -0.45731173392E+01  0.23780491161E+01  0.53550505299E+01  0.00000000000E+00 0.  1.
          3    1    6    6  503    0  0.21583419174E+02  0.20448743928E+03 -0.14824816969E+03  0.25349255734E+03  0.00000000000E+00 0. -1.
         -3    1    6    6    0  503 -0.24113665124E+02  0.90320130288E+02 -0.94703972021E+01  0.93962137077E+02  0.00000000000E+00 0.  1.
<mgrwt>
<rscale>  0 0.17570492E+04</rscale>
<asrwt>0</asrwt>
<pdfrwt beam="1">  1        2 0.96778519E-01 0.17570492E+04</pdfrwt>
<pdfrwt beam="2">  1       -1 0.18875662E+00 0.17570492E+04</pdfrwt>
<totfact> 0.91313761E+00</totfact>
</mgrwt>
</event>
<event>
12    7  0.1544987E-007  0.2508083E+04  0.7818608E-02  0.8400111E-01
          2   -1    0    0  501    0  0.00000000000E+00  0.00000000000E+00  0.38412054531E+04  0.38412054531E+04  0.00000000000E+00 0. -1.
         -1   -1    0    0    0  501 -0.00000000000E+00 -0.00000000000E+00 -0.40940811189E+03  0.40940811189E+03  0.00000000000E+00 0.  1.
         24    2    1    2    0    0 -0.14407477197E+03  0.86251316255E+03  0.25969768868E+04  0.27413950243E+04  0.79191115890E+02 0.  0.
        254    2    1    2    0    0  0.14407477197E+03 -0.86251316255E+03  0.83482045438E+03  0.15092185407E+04  0.90339853726E+03 0.  0.
         23    2    4    4    0    0 -0.17186268519E+03 -0.28817999058E+03  0.76910196564E+03  0.84404519858E+03  0.91159059682E+02 0.  0.
         23    2    4    4    0    0  0.31593745716E+03 -0.57433317197E+03  0.65718488740E+02  0.66517334215E+03  0.91986879943E+02 0.  0.
          2    1    3    3  502    0 -0.15165476183E+03  0.81398871000E+03  0.24782804315E+04  0.26129390892E+04  0.00000000000E+00 0. -1.
         -1    1    3    3    0  502  0.75799898567E+01  0.48524452549E+02  0.11869645538E+03  0.12845593509E+03  0.00000000000E+00 0.  1.
         13    1    5    5    0    0 -0.65362899515E+02 -0.38951443700E+02  0.18948874480E+03  0.20419477957E+03  0.00000000000E+00 0.  1.
        -13    1    5    5    0    0 -0.10649978567E+03 -0.24922854688E+03  0.57961322084E+03  0.63985041900E+03  0.00000000000E+00 0. -1.
          4    1    6    6  503    0  0.16902573605E+03 -0.24925675270E+03  0.66608837661E+02  0.30844021377E+03  0.00000000000E+00 0.  1.
         -4    1    6    6    0  503  0.14691172111E+03 -0.32507641926E+03 -0.89034892050E+00  0.35673312838E+03  0.00000000000E+00 0. -1.
<mgrwt>
<rscale>  0 0.25080835E+04</rscale>
<asrwt>0</asrwt>
<pdfrwt beam="1">  1        2 0.59095466E+00 0.25080835E+04</pdfrwt>
<pdfrwt beam="2">  1       -1 0.62985866E-01 0.25080835E+04</pdfrwt>
<totfact> 0.11865722E+00</totfact>
</mgrwt>
</event>
<event>
12    7  0.1544987E-007  0.1201955E+04  0.7818608E-02  0.9111147E-01
         -1   -1    0    0    0  501 -0.00000000000E+00  0.00000000000E+00  0.26248803234E+04  0.26248803234E+04  0.00000000000E+00 0.  1.
          2   -1    0    0  501    0  0.00000000000E+00 -0.00000000000E+00 -0.13759631177E+03  0.13759631177E+03  0.00000000000E+00 0. -1.
         24    2    1    2    0    0  0.75748503921E+02 -0.98356821909E+02  0.10861645865E+04  0.10961513460E+04  0.79889700275E+02 0.  0.
        254    2    1    2    0    0 -0.75748503921E+02  0.98356821909E+02  0.14011194252E+04  0.16663252892E+04  0.89336018798E+03 0.  0.
         23    2    4    4    0    0  0.35716028391E+03 -0.14332703294E+03  0.69144016470E+03  0.79674703202E+03  0.92791297533E+02 0.  0.
         23    2    4    4    0    0 -0.43290878784E+03  0.24168385485E+03  0.70967926049E+03  0.86957825716E+03  0.81857121117E+02 0.  0.
          4    1    3    3  502    0  0.39882969523E+02 -0.76295903036E+02  0.42414763087E+03  0.43279663683E+03  0.00000000000E+00 0. -1.
         -3    1    3    3    0  502  0.35865534397E+02 -0.22060918873E+02  0.66201695559E+03  0.66335470918E+03  0.00000000000E+00 0.  1.
         13    1    5    5    0    0  0.31372835782E+02 -0.40776384021E+02  0.61586364504E+02  0.80248667351E+02  0.00000000000E+00 0. -1.
        -13    1    5    5    0    0  0.32578744813E+03 -0.10255064892E+03  0.62985380019E+03  0.71649836467E+03  0.00000000000E+00 0.  1.
          2    1    6    6  503    0 -0.18829036368E+03  0.15190671292E+03  0.33829254835E+03  0.41589753396E+03  0.00000000000E+00 0. -1.
         -2    1    6    6    0  503 -0.24461842415E+03  0.89777141924E+02  0.37138671214E+03  0.45368072320E+03  0.00000000000E+00 0.  1.
<mgrwt>
<rscale>  0 0.12019548E+04</rscale>
<asrwt>0</asrwt>
<pdfrwt beam="1">  1        2 0.21168665E-01 0.12019548E+04</pdfrwt>
<pdfrwt beam="2">  1       -1 0.40382770E+00 0.12019548E+04</pdfrwt>
<totfact> 0.20632521E+00</totfact>
</mgrwt>
</event>
<event>
12    7  0.1544987E-007  0.1344963E+04  0.7818608E-02  0.8994650E-01
         -1   -1    0    0    0  501 -0.00000000000E+00  0.00000000000E+00  0.55070669933E+03  0.55070669933E+03  0.00000000000E+00 0.  1.
          2   -1    0    0  501    0  0.00000000000E+00 -0.00000000000E+00 -0.82118395549E+03  0.82118395549E+03  0.00000000000E+00 0. -1.
         24    2    1    2    0    0 -0.33545074560E+03  0.11953810423E+02 -0.22582230015E+03  0.41249072506E+03  0.80515779248E+02 0.  0.
        254    2    1    2    0    0  0.33545074560E+03 -0.11953810423E+02 -0.44654956011E+02  0.95939992975E+03  0.89765475758E+03 0.  0.
         23    2    4    4    0    0 -0.53946962203E+02  0.35693834703E+03  0.11655548331E+03  0.39084374968E+03  0.94119061120E+02 0.  0.
         23    2    4    4    0    0  0.38939770780E+03 -0.36889215745E+03 -0.16121043932E+03  0.56855618007E+03  0.97751345141E+02 0.  0.
          2    1    3    3  502    0 -0.28547365051E+03 -0.18989080612E+02 -0.18073466682E+03  0.33840923467E+03  0.00000000000E+00 0. -1.
         -1    1    3    3    0  502 -0.49977095085E+02  0.30942891035E+02 -0.45087633327E+02  0.74081490386E+02  0.00000000000E+00 0.  1.
         13    1    5    5    0    0 -0.37569222718E+02  0.33867946000E+03  0.85591245469E+02  0.35134183415E+03  0.00000000000E+00 0. -1.
        -13    1    5    5    0    0 -0.16377739485E+02  0.18258887034E+02  0.30964237838E+02  0.39501915539E+02  0.00000000000E+00 0.  1.
          2    1    6    6  503    0  0.34434179422E+03 -0.34157825125E+03 -0.17229181922E+03  0.51471491521E+03  0.00000000000E+00 0. -1.
         -2    1    6    6    0  503  0.45055913582E+02 -0.27313906202E+02  0.11081379898E+02  0.53841264855E+02  0.00000000000E+00 0.  1.
<mgrwt>
<rscale>  0 0.13449632E+04</rscale>
<asrwt>0</asrwt>
<pdfrwt beam="1">  1        2 0.12633599E+00 0.13449632E+04</pdfrwt>
<pdfrwt beam="2">  1       -1 0.84724108E-01 0.13449632E+04</pdfrwt>
<totfact> 0.51176128E+01</totfact>
</mgrwt>
</event>
<event>
12    7  0.1544987E-007  0.1584497E+04  0.7818608E-02  0.8830129E-01
         -1   -1    0    0    0  501 -0.00000000000E+00  0.00000000000E+00  0.19054766346E+03  0.19054766346E+03  0.00000000000E+00 0.  1.
          2   -1    0    0  501    0  0.00000000000E+00 -0.00000000000E+00 -0.32939650036E+04  0.32939650036E+04  0.00000000000E+00 0. -1.
         24    2    1    2    0    0  0.23137005461E+03  0.42410618734E+03 -0.15794115725E+04  0.16536286939E+04  0.80924541223E+02 0.  0.
        254    2    1    2    0    0 -0.23137005461E+03 -0.42410618734E+03 -0.15240057676E+04  0.18308839732E+04  0.89226923255E+03 0.  0.
         23    2    4    4    0    0 -0.50490205695E+03 -0.12092314855E+03 -0.50789417787E+03  0.73208424967E+03  0.91882303670E+02 0.  0.
         23    2    4    4    0    0  0.27353200234E+03 -0.30318303879E+03 -0.10161115898E+04  0.10987997236E+04  0.90212850222E+02 0.  0.
          2    1    3    3  502    0  0.18127002386E+03  0.26561997782E+03 -0.11107684858E+04  0.11563820404E+04  0.00000000000E+00 0. -1.
         -1    1    3    3    0  502  0.50100030745E+02  0.15848620952E+03 -0.46864308671E+03  0.49724665349E+03  0.00000000000E+00 0.  1.
         13    1    5    5    0    0 -0.21579429915E+03 -0.60916463078E+02 -0.15826826793E+03  0.27445735489E+03  0.00000000000E+00 0.  1.
        -13    1    5    5    0    0 -0.28910775780E+03 -0.60006685471E+02 -0.34962590994E+03  0.45762689478E+03  0.00000000000E+00 0. -1.
          2    1    6    6  503    0  0.32417767520E+02 -0.85071898881E+02 -0.18037544279E+03  0.20204811306E+03  0.00000000000E+00 0. -1.
         -2    1    6    6    0  503  0.24111423482E+03 -0.21811113991E+03 -0.83573614697E+03  0.89675161050E+03  0.00000000000E+00 0.  1.
<mgrwt>
<rscale>  0 0.15844966E+04</rscale>
<asrwt>0</asrwt>
<pdfrwt beam="1">  1        2 0.50676381E+00 0.15844966E+04</pdfrwt>
<pdfrwt beam="2">  1       -1 0.29315028E-01 0.15844966E+04</pdfrwt>
<totfact> 0.13183288E+01</totfact>
</mgrwt>
</event>
<event>
12    7  0.1544987E-007  0.1851397E+04  0.7818608E-02  0.8679435E-01
         -1   -1    0    0    0  501 -0.00000000000E+00  0.00000000000E+00  0.26405567781E+03  0.26405567781E+03  0.00000000000E+00 0.  1.
          2   -1    0    0  501    0  0.00000000000E+00 -0.00000000000E+00 -0.32452153194E+04  0.32452153194E+04  0.00000000000E+00 0. -1.
         24    2    1    2    0    0  0.55968430667E+03 -0.37174278029E+03 -0.74940344260E+03  0.10097136390E+04  0.80479159974E+02 0.  0.
        254    2    1    2    0    0 -0.55968430667E+03  0.37174278029E+03 -0.22317561990E+04  0.24995573582E+04  0.90311241681E+03 0.  0.
         23    2    4    4    0    0 -0.59199347495E+03  0.46350214835E+03 -0.22404769572E+04  0.23650111423E+04  0.90830565267E+02 0.  0.
         23    2    4    4    0    0  0.32309168280E+02 -0.91759368058E+02  0.87207582210E+01  0.13454621589E+03  0.92536309655E+02 0.  0.
          4    1    3    3  502    0  0.40872113554E+03 -0.30001486787E+03 -0.52436221802E+03  0.72939538199E+03  0.00000000000E+00 0. -1.
         -3    1    3    3    0  502  0.15096317113E+03 -0.71727912415E+02 -0.22504122459E+03  0.28031825702E+03  0.00000000000E+00 0.  1.
         13    1    5    5    0    0 -0.51070019846E+03  0.43506674470E+03 -0.19634373990E+04  0.20748937767E+04  0.00000000000E+00 0.  1.
        -13    1    5    5    0    0 -0.81293276490E+02  0.28435403643E+02 -0.27703955825E+03  0.29011736559E+03  0.00000000000E+00 0. -1.
          1    1    6    6  503    0  0.20938479608E+02 -0.20268633433E+02  0.44971017719E+02  0.53587590580E+02  0.00000000000E+00 0. -1.
         -1    1    6    6    0  503  0.11370688673E+02 -0.71490734626E+02 -0.36250259498E+02  0.80958625308E+02  0.00000000000E+00 0.  1.
<mgrwt>
<rscale>  0 0.18513968E+04</rscale>
<asrwt>0</asrwt>
<pdfrwt beam="1">  1        2 0.49926389E+00 0.18513968E+04</pdfrwt>
<pdfrwt beam="2">  1       -1 0.40623951E-01 0.18513968E+04</pdfrwt>
<totfact> 0.77142332E+00</totfact>
</mgrwt>
</event>
<event>
12    7  0.1544987E-007  0.1504617E+04  0.7818608E-02  0.8881388E-01
         -1   -1    0    0    0  501 -0.00000000000E+00  0.00000000000E+00  0.30467933097E+03  0.30467933097E+03  0.00000000000E+00 0.  1.
          2   -1    0    0  501    0  0.00000000000E+00 -0.00000000000E+00 -0.18575866009E+04  0.18575866009E+04  0.00000000000E+00 0. -1.
         24    2    1    2    0    0  0.29104038382E+03  0.12374667307E+03  0.14509444449E+02  0.32652521878E+03  0.79940292791E+02 0.  0.
        254    2    1    2    0    0 -0.29104038382E+03 -0.12374667307E+03 -0.15674167144E+04  0.18357407131E+04  0.90173780284E+03 0.  0.
         23    2    4    4    0    0  0.26897665722E+03  0.57856489805E+02 -0.87735606164E+03  0.92422322037E+03  0.93483082126E+02 0.  0.
         23    2    4    4    0    0 -0.56001704103E+03 -0.18160316287E+03 -0.69006065276E+03  0.91151749274E+03  0.89897942449E+02 0.  0.
          4    1    3    3  502    0  0.15755830813E+03  0.30053794802E+02  0.28239727002E+02  0.16286599775E+03  0.00000000000E+00 0. -1.
         -1    1    3    3    0  502  0.13348207569E+03  0.93692878267E+02 -0.13730282553E+02  0.16365922103E+03  0.00000000000E+00 0.  1.
         13    1    5    5    0    0  0.19382334028E+01  0.19296573398E+02 -0.39642702799E+02  0.44132282729E+02  0.00000000000E+00 0. -1.
        -13    1    5    5    0    0  0.26703842381E+03  0.38559916407E+02 -0.83771335884E+03  0.88009093765E+03  0.00000000000E+00 0.  1.
          3    1    6    6  503    0 -0.16388719498E+03 -0.12879204975E+02 -0.20916036687E+03  0.26603185086E+03  0.00000000000E+00 0. -1.
         -3    1    6    6    0  503 -0.39612984605E+03 -0.16872395790E+03 -0.48090028589E+03  0.64548564188E+03  0.00000000000E+00 0.  1.
<mgrwt>
<rscale>  0 0.15046172E+04</rscale>
<asrwt>0</asrwt>
<pdfrwt beam="1">  1        2 0.28578256E+00 0.15046172E+04</pdfrwt>
<pdfrwt beam="2">  1       -1 0.46873743E-01 0.15046172E+04</pdfrwt>
<totfact> 0.40015541E+01</totfact>
</mgrwt>
</event>
<event>
12    7  0.1544987E-007  0.2419081E+04  0.7818608E-02  0.8432394E-01
         -1   -1    0    0    0  501 -0.00000000000E+00  0.00000000000E+00  0.70600650976E+03  0.70600650976E+03  0.00000000000E+00 0.  1.
          2   -1    0    0  501    0  0.00000000000E+00 -0.00000000000E+00 -0.20722019967E+04  0.20722019967E+04  0.00000000000E+00 0. -1.
         24    2    1    2    0    0  0.12622911503E+03  0.92990035983E+03 -0.13084753404E+03  0.95084275122E+03  0.79576326245E+02 0.  0.
        254    2    1    2    0    0 -0.12622911503E+03 -0.92990035983E+03 -0.12353479529E+04  0.18273657553E+04  0.96567725975E+03 0.  0.
         23    2    4    4    0    0  0.31721473594E+03 -0.34467108432E+02 -0.41316855956E+03  0.52998369424E+03  0.91440074840E+02 0.  0.
         23    2    4    4    0    0 -0.44344385098E+03 -0.89543325140E+03 -0.82217939335E+03  0.12973820610E+04  0.93691518840E+02 0.  0.
          2    1    3    3  502    0  0.17024084745E+02  0.42582461374E+02  0.65798071126E+01  0.46329033443E+02  0.00000000000E+00 0. -1.
         -1    1    3    3    0  502  0.10920503029E+03  0.88731789845E+03 -0.13742734115E+03  0.90451371778E+03  0.00000000000E+00 0.  1.
         13    1    5    5    0    0  0.29470154299E+03 -0.65649088414E+01 -0.35245024980E+03  0.45947064765E+03  0.00000000000E+00 0. -1.
        -13    1    5    5    0    0  0.22513192955E+02 -0.27902199591E+02 -0.60718309767E+02  0.70513046594E+02  0.00000000000E+00 0.  1.
          3    1    6    6  503    0 -0.35925931722E+03 -0.73995098587E+03 -0.72007743235E+03  0.10932091415E+04  0.00000000000E+00 0. -1.
         -3    1    6    6    0  503 -0.84184533761E+02 -0.15548226553E+03 -0.10210196101E+03  0.20417291951E+03  0.00000000000E+00 0.  1.
<mgrwt>
<rscale>  0 0.24190809E+04</rscale>
<asrwt>0</asrwt>
<pdfrwt beam="1">  1        2 0.31880030E+00 0.24190809E+04</pdfrwt>
<pdfrwt beam="2">  1       -1 0.10861639E+00 0.24190809E+04</pdfrwt>
<totfact> 0.48917859E+00</totfact>
</mgrwt>
</event>
<event>
12    7  0.1544987E-007  0.1596588E+04  0.7818608E-02  0.8822647E-01
          2   -1    0    0  501    0  0.00000000000E+00  0.00000000000E+00  0.22551678095E+04  0.22551678095E+04  0.00000000000E+00 0. -1.
         -1   -1    0    0    0  501 -0.00000000000E+00 -0.00000000000E+00 -0.28258347561E+03  0.28258347561E+03  0.00000000000E+00 0.  1.
         24    2    1    2    0    0  0.83907974525E+02 -0.91594628239E+02 -0.16075978850E+03  0.21711889143E+03  0.76594903924E+02 0.  0.
        254    2    1    2    0    0 -0.83907974525E+02  0.91594628239E+02  0.21333441223E+04  0.23206323936E+04  0.90484663781E+03 0.  0.
         23    2    4    4    0    0  0.26695891531E+03 -0.18890323531E+01  0.17914449738E+04  0.18135705160E+04  0.92153629667E+02 0.  0.
         23    2    4    4    0    0 -0.35086688983E+03  0.93483660592E+02  0.34189914855E+03  0.50706187764E+03  0.91487435194E+02 0.  0.
          2    1    3    3  502    0  0.30835600406E+02 -0.27606643451E+02 -0.11500599150E+03  0.12222658915E+03  0.00000000000E+00 0. -1.
         -1    1    3    3    0  502  0.53072374119E+02 -0.63987984788E+02 -0.45753796997E+02  0.94892302278E+02  0.00000000000E+00 0.  1.
         13    1    5    5    0    0  0.35978614839E+02 -0.26686229219E+02  0.18122086019E+03  0.18667516098E+03  0.00000000000E+00 0. -1.
        -13    1    5    5    0    0  0.23098030047E+03  0.24797196866E+02  0.16102241136E+04  0.16268953550E+04  0.00000000000E+00 0.  1.
          3    1    6    6  503    0 -0.86917516712E+02  0.11016700760E+02  0.36064289818E+02  0.94745213109E+02  0.00000000000E+00 0. -1.
         -3    1    6    6    0  503 -0.26394937312E+03  0.82466959832E+02  0.30583485873E+03  0.41231666453E+03  0.00000000000E+00 0.  1.
<mgrwt>
<rscale>  0 0.15965878E+04</rscale>
<asrwt>0</asrwt>
<pdfrwt beam="1">  1        2 0.34694888E+00 0.15965878E+04</pdfrwt>
<pdfrwt beam="2">  1       -1 0.43474382E-01 0.15965878E+04</pdfrwt>
<totfact> 0.27450866E+01</totfact>
</mgrwt>
</event>
<event>
12    7  0.1544987E-007  0.1930041E+04  0.7818608E-02  0.8640046E-01
         -1   -1    0    0    0  501 -0.00000000000E+00  0.00000000000E+00  0.12494240772E+04  0.12494240772E+04  0.00000000000E+00 0.  1.
          2   -1    0    0  501    0  0.00000000000E+00 -0.00000000000E+00 -0.74535543015E+03  0.74535543015E+03  0.00000000000E+00 0. -1.
         24    2    1    2    0    0  0.55694997388E+03 -0.43016684371E+03 -0.67422041862E+02  0.71158118829E+03  0.81026347340E+02 0.  0.
        254    2    1    2    0    0 -0.55694997388E+03  0.43016684371E+03  0.57149068893E+03  0.12831983191E+04  0.90816272316E+03 0.  0.
         23    2    4    4    0    0 -0.26698539343E+03 -0.11001267222E+02 -0.19842022839E+03  0.34540252106E+03  0.92358466514E+02 0.  0.
         23    2    4    4    0    0 -0.28996458045E+03  0.44116811093E+03  0.76991091731E+03  0.93779579803E+03  0.89383321614E+02 0.  0.
          2    1    3    3  502    0  0.20375990874E+03 -0.15760470641E+03 -0.64025897591E+02  0.26543673344E+03  0.00000000000E+00 0. -1.
         -1    1    3    3    0  502  0.35319006514E+03 -0.27256213730E+03 -0.33961442709E+01  0.44614445485E+03  0.00000000000E+00 0.  1.
         13    1    5    5    0    0 -0.24196898350E+02  0.15331664232E+02 -0.55466119784E+02  0.62426278616E+02  0.00000000000E+00 0.  1.
        -13    1    5    5    0    0 -0.24278849508E+03 -0.26332931454E+02 -0.14295410860E+03  0.28297624244E+03  0.00000000000E+00 0. -1.
          4    1    6    6  503    0 -0.14505715636E+03  0.29257940872E+03  0.50248974389E+03  0.59928309815E+03  0.00000000000E+00 0. -1.
         -4    1    6    6    0  503 -0.14490742409E+03  0.14858870221E+03  0.26742117343E+03  0.33851269988E+03  0.00000000000E+00 0.  1.
<mgrwt>
<rscale>  0 0.19300415E+04</rscale>
<asrwt>0</asrwt>
<pdfrwt beam="1">  1        2 0.11467007E+00 0.19300415E+04</pdfrwt>
<pdfrwt beam="2">  1       -1 0.19221909E+00 0.19300415E+04</pdfrwt>
<totfact> 0.68727941E+00</totfact>
</mgrwt>
</event>
<event>
12    7  0.1544987E-007  0.1958011E+04  0.7818608E-02  0.8626508E-01
          2   -1    0    0  501    0  0.00000000000E+00  0.00000000000E+00  0.68014559698E+03  0.68014559698E+03  0.00000000000E+00 0. -1.
         -1   -1    0    0    0  501 -0.00000000000E+00 -0.00000000000E+00 -0.14091855898E+04  0.14091855898E+04  0.00000000000E+00 0.  1.
         24    2    1    2    0    0  0.62681203359E+03 -0.21973676006E+03  0.11779318167E+03  0.67927085436E+03  0.79725094970E+02 0.  0.
        254    2    1    2    0    0 -0.62681203359E+03  0.21973676006E+03 -0.84683317445E+03  0.14100603324E+04  0.91102477815E+03 0.  0.
         23    2    4    4    0    0  0.20527061491E+03  0.17337118241E+02 -0.34708461764E+03  0.41374286231E+03  0.90988039299E+02 0.  0.
         23    2    4    4    0    0 -0.83208264850E+03  0.20239964182E+03 -0.49974855681E+03  0.99631747006E+03  0.97840340199E+02 0.  0.
          2    1    3    3  502    0  0.52422810645E+03 -0.21396080450E+03  0.10171413727E+03  0.57527393403E+03  0.00000000000E+00 0. -1.
         -1    1    3    3    0  502  0.10258392714E+03 -0.57759555552E+01  0.16079044401E+02  0.10399692033E+03  0.00000000000E+00 0.  1.
         13    1    5    5    0    0  0.91551856088E+02  0.10415393467E+02 -0.75134325954E+02  0.11889234505E+03  0.00000000000E+00 0.  1.
        -13    1    5    5    0    0  0.11371875882E+03  0.69217247738E+01 -0.27195029169E+03  0.29485051727E+03  0.00000000000E+00 0. -1.
          1    1    6    6  503    0 -0.72494684469E+03  0.14791800060E+03 -0.45175427191E+03  0.86689652480E+03  0.00000000000E+00 0. -1.
         -1    1    6    6    0  503 -0.10713580381E+03  0.54481641221E+02 -0.47994284900E+02  0.12942094526E+03  0.00000000000E+00 0.  1.
<mgrwt>
<rscale>  0 0.19580106E+04</rscale>
<asrwt>0</asrwt>
<pdfrwt beam="1">  1        2 0.10463778E+00 0.19580106E+04</pdfrwt>
<pdfrwt beam="2">  1       -1 0.21679778E+00 0.19580106E+04</pdfrwt>
<totfact> 0.52287171E+00</totfact>
</mgrwt>
</event>
<event>
12    7  0.1544987E-007  0.2136079E+04  0.7818608E-02  0.8545515E-01
          2   -1    0    0  501    0  0.00000000000E+00  0.00000000000E+00  0.23178808486E+04  0.23178808486E+04  0.00000000000E+00 0. -1.
         -1   -1    0    0    0  501 -0.00000000000E+00 -0.00000000000E+00 -0.49213417750E+03  0.49213417750E+03  0.00000000000E+00 0.  1.
         24    2    1    2    0    0 -0.27911599576E+03  0.59787502770E+03  0.28782239664E+01  0.66462104374E+03  0.79702947065E+02 0.  0.
        254    2    1    2    0    0  0.27911599576E+03 -0.59787502770E+03  0.18228684471E+04  0.21453939823E+04  0.91896989947E+03 0.  0.
         23    2    4    4    0    0  0.10627911706E+03 -0.72243934725E+03  0.76172678386E+03  0.10592866444E+04  0.92987314001E+02 0.  0.
         23    2    4    4    0    0  0.17283687871E+03  0.12456431954E+03  0.10611416632E+04  0.10861073379E+04  0.90656845896E+02 0.  0.
          2    1    3    3  502    0 -0.13734724938E+03  0.29344913798E+03 -0.38430565254E+02  0.32627223578E+03  0.00000000000E+00 0. -1.
         -1    1    3    3    0  502 -0.14176874638E+03  0.30442588972E+03  0.41308789220E+02  0.33834880797E+03  0.00000000000E+00 0.  1.
         13    1    5    5    0    0  0.11573974204E+03 -0.49496788747E+03  0.53503302012E+03  0.73800354344E+03  0.00000000000E+00 0.  1.
        -13    1    5    5    0    0 -0.94606249802E+01 -0.22747145978E+03  0.22669376375E+03  0.32128310096E+03  0.00000000000E+00 0. -1.
          4    1    6    6  503    0  0.11298131214E+03  0.91329365864E+02  0.49613593239E+03  0.51696875473E+03  0.00000000000E+00 0. -1.
         -4    1    6    6    0  503  0.59855566568E+02  0.33234953679E+02  0.56500573085E+03  0.56913858320E+03  0.00000000000E+00 0.  1.
<mgrwt>
<rscale>  0 0.21360790E+04</rscale>
<asrwt>0</asrwt>
<pdfrwt beam="1">  1        2 0.35659705E+00 0.21360790E+04</pdfrwt>
<pdfrwt beam="2">  1       -1 0.75712952E-01 0.21360790E+04</pdfrwt>
<totfact> 0.81180483E+00</totfact>
</mgrwt>
</event>
<event>
12    7  0.1544987E-007  0.2564491E+04  0.7818608E-02  0.8380364E-01
          2   -1    0    0  501    0  0.00000000000E+00  0.00000000000E+00  0.14571316242E+04  0.14571316242E+04  0.00000000000E+00 0. -1.
         -1   -1    0    0    0  501 -0.00000000000E+00 -0.00000000000E+00 -0.11283489516E+04  0.11283489516E+04  0.00000000000E+00 0.  1.
         24    2    1    2    0    0 -0.95465872957E+03  0.86011448745E+02 -0.44824380077E+03  0.10609875067E+04  0.77464348000E+02 0.  0.
        254    2    1    2    0    0  0.95465872957E+03 -0.86011448745E+02  0.77702647335E+03  0.15244930691E+04  0.89528638899E+03 0.  0.
         23    2    4    4    0    0  0.88001237621E+03 -0.40394760204E+03  0.56457975480E+03  0.11245162693E+04  0.90504656469E+02 0.  0.
         23    2    4    4    0    0  0.74646353357E+02  0.31793615330E+03  0.21244671855E+03  0.39997679987E+03  0.90511637748E+02 0.  0.
          4    1    3    3  502    0 -0.10009567502E+02 -0.63829332274E+01 -0.15519182463E+01  0.11972540600E+02  0.00000000000E+00 0. -1.
         -3    1    3    3    0  502 -0.94464916206E+03  0.92394381973E+02 -0.44669188253E+03  0.10490149661E+04  0.00000000000E+00 0.  1.
         13    1    5    5    0    0  0.50732817196E+03 -0.24042965255E+03  0.27588066989E+03  0.62553851673E+03  0.00000000000E+00 0. -1.
        -13    1    5    5    0    0  0.37268420425E+03 -0.16351794949E+03  0.28869908492E+03  0.49897775254E+03  0.00000000000E+00 0.  1.
          2    1    6    6  503    0  0.30649895840E+02  0.24311130055E+03  0.19068627032E+03  0.31048957190E+03  0.00000000000E+00 0. -1.
         -2    1    6    6    0  503  0.43996457517E+02  0.74824852750E+02  0.21760448235E+02  0.89487227974E+02  0.00000000000E+00 0.  1.
<mgrwt>
<rscale>  0 0.25644905E+04</rscale>
<asrwt>0</asrwt>
<pdfrwt beam="1">  1        2 0.22417410E+00 0.25644905E+04</pdfrwt>
<pdfrwt beam="2">  1       -1 0.17359215E+00 0.25644905E+04</pdfrwt>
<totfact> 0.31418577E+00</totfact>
</mgrwt>
</event>
<event>
12    7  0.1544987E-007  0.1148526E+04  0.7818608E-02  0.9159144E-01
         -1   -1    0    0    0  501 -0.00000000000E+00  0.00000000000E+00  0.19472891910E+03  0.19472891910E+03  0.00000000000E+00 0.  1.
          2   -1    0    0  501    0  0.00000000000E+00 -0.00000000000E+00 -0.16935236627E+04  0.16935236627E+04  0.00000000000E+00 0. -1.
         24    2    1    2    0    0 -0.10409954326E+03  0.17540574226E+03 -0.21045785098E+03  0.30363764890E+03  0.79368920039E+02 0.  0.
        254    2    1    2    0    0  0.10409954326E+03 -0.17540574226E+03 -0.12883368926E+04  0.15846149329E+04  0.89977144176E+03 0.  0.
         23    2    4    4    0    0  0.43536395107E+03 -0.14617343604E+03 -0.10923975867E+04  0.11884412310E+04  0.90286371122E+02 0.  0.
         23    2    4    4    0    0 -0.33126440781E+03 -0.29232306220E+02 -0.19593930591E+03  0.39617370190E+03  0.89279084161E+02 0.  0.
          4    1    3    3  502    0 -0.28780245411E+02  0.54095210478E+02 -0.11962334380E+03  0.13440364096E+03  0.00000000000E+00 0. -1.
         -3    1    3    3    0  502 -0.75319297848E+02  0.12131053178E+03 -0.90834507188E+02  0.16923400794E+03  0.00000000000E+00 0.  1.
         13    1    5    5    0    0  0.19385564480E+03 -0.63113486747E+02 -0.37336921631E+03  0.42540321451E+03  0.00000000000E+00 0. -1.
        -13    1    5    5    0    0  0.24150830628E+03 -0.83059949288E+02 -0.71902837042E+03  0.76303801651E+03  0.00000000000E+00 0.  1.
          1    1    6    6  503    0 -0.16670048512E+03 -0.16115695473E+00 -0.49277469573E+02  0.17383137438E+03  0.00000000000E+00 0. -1.
         -1    1    6    6    0  503 -0.16456392269E+03 -0.29071149265E+02 -0.14666183633E+03  0.22234232753E+03  0.00000000000E+00 0.  1.
<mgrwt>
<rscale>  0 0.11485261E+04</rscale>
<asrwt>0</asrwt>
<pdfrwt beam="1">  1        2 0.26054211E+00 0.11485261E+04</pdfrwt>
<pdfrwt beam="2">  1       -1 0.29958294E-01 0.11485261E+04</pdfrwt>
<totfact> 0.11406855E+02</totfact>
</mgrwt>
</event>
<event>
12    7  0.1544987E-007  0.1648042E+04  0.7818608E-02  0.8791565E-01
          2   -1    0    0  501    0  0.00000000000E+00  0.00000000000E+00  0.11966487598E+04  0.11966487598E+04  0.00000000000E+00 0. -1.
         -1   -1    0    0    0  501 -0.00000000000E+00 -0.00000000000E+00 -0.56742708201E+03  0.56742708201E+03  0.00000000000E+00 0.  1.
         24    2    1    2    0    0 -0.17016994582E+03 -0.51338176054E+03  0.49604262597E+02  0.54886987156E+03  0.79239576766E+02 0.  0.
        254    2    1    2    0    0  0.17016994582E+03  0.51338176054E+03  0.57961741518E+03  0.12152059702E+04  0.92100518978E+03 0.  0.
         23    2    4    4    0    0  0.17793769006E+03  0.51704653275E+03 -0.71004172032E+02  0.55787428119E+03  0.84753658266E+02 0.  0.
         23    2    4    4    0    0 -0.77677442393E+01 -0.36647722152E+01  0.65062158721E+03  0.65733168905E+03  0.93288430551E+02 0.  0.
          2    1    3    3  502    0 -0.97969918186E+02 -0.37702456486E+03  0.60400501432E+02  0.39420026376E+03  0.00000000000E+00 0. -1.
         -1    1    3    3    0  502 -0.72200027635E+02 -0.13635719568E+03 -0.10796238835E+02  0.15466960780E+03  0.00000000000E+00 0.  1.
         13    1    5    5    0    0  0.10268481495E+03  0.22579992608E+03  0.30926591454E+01  0.24807124457E+03  0.00000000000E+00 0. -1.
        -13    1    5    5    0    0  0.75252875109E+02  0.29124660667E+03 -0.74096831178E+02  0.30980303662E+03  0.00000000000E+00 0.  1.
          1    1    6    6  503    0 -0.29182102820E+02 -0.39024782265E+02  0.44011993865E+03  0.44280931466E+03  0.00000000000E+00 0. -1.
         -1    1    6    6    0  503  0.21414358581E+02  0.35360010050E+02  0.21050164857E+03  0.21452237439E+03  0.00000000000E+00 0.  1.
<mgrwt>
<rscale>  0 0.16480424E+04</rscale>
<asrwt>0</asrwt>
<pdfrwt beam="1">  1        2 0.18409981E+00 0.16480424E+04</pdfrwt>
<pdfrwt beam="2">  1       -1 0.87296474E-01 0.16480424E+04</pdfrwt>
<totfact> 0.26782103E+01</totfact>
</mgrwt>
</event>
<event>
12    7  0.1544987E-007  0.2762727E+04  0.7818608E-02  0.8314934E-01
         -1   -1    0    0    0  501 -0.00000000000E+00  0.00000000000E+00  0.10141481421E+04  0.10141481421E+04  0.00000000000E+00 0.  1.
          2   -1    0    0  501    0  0.00000000000E+00 -0.00000000000E+00 -0.18815451575E+04  0.18815451575E+04  0.00000000000E+00 0. -1.
         24    2    1    2    0    0  0.53061950078E+03  0.13795657143E+03  0.76926165077E+03  0.94811210466E+03  0.81018549988E+02 0.  0.
        254    2    1    2    0    0 -0.53061950078E+03 -0.13795657143E+03 -0.16366586662E+04  0.19475811949E+04  0.90212629444E+03 0.  0.
         23    2    4    4    0    0 -0.50108698271E+03 -0.47031298649E+03 -0.91829853938E+03  0.11506890784E+04  0.92361671081E+02 0.  0.
         23    2    4    4    0    0 -0.29532518063E+02  0.33235641505E+03 -0.71836012679E+03  0.79689211651E+03  0.87537519598E+02 0.  0.
          4    1    3    3  502    0  0.32467761024E+03  0.47700104380E+02  0.42555032865E+03  0.53738620448E+03  0.00000000000E+00 0. -1.
         -1    1    3    3    0  502  0.20594189054E+03  0.90256467054E+02  0.34371132212E+03  0.41072590018E+03  0.00000000000E+00 0.  1.
         13    1    5    5    0    0 -0.23807593806E+03 -0.28282500670E+03 -0.51621467272E+03  0.63493915065E+03  0.00000000000E+00 0.  1.
        -13    1    5    5    0    0 -0.26301104465E+03 -0.18748797979E+03 -0.40208386666E+03  0.51574992778E+03  0.00000000000E+00 0. -1.
          3    1    6    6  503    0  0.34574317131E+01  0.26935453046E+03 -0.61523062333E+03  0.67161933921E+03  0.00000000000E+00 0. -1.
         -3    1    6    6    0  503 -0.32989949776E+02  0.63001884591E+02 -0.10312950347E+03  0.12527277730E+03  0.00000000000E+00 0.  1.
<mgrwt>
<rscale>  0 0.27627273E+04</rscale>
<asrwt>0</asrwt>
<pdfrwt beam="1">  1        2 0.28946848E+00 0.27627273E+04</pdfrwt>
<pdfrwt beam="2">  1       -1 0.15602279E+00 0.27627273E+04</pdfrwt>
<totfact> 0.24200100E+00</totfact>
</mgrwt>
</event>
<event>
12    7  0.1544987E-007  0.1606597E+04  0.7818608E-02  0.8816506E-01
          2   -1    0    0  501    0  0.00000000000E+00  0.00000000000E+00  0.58894277924E+03  0.58894277924E+03  0.00000000000E+00 0. -1.
         -1   -1    0    0    0  501 -0.00000000000E+00 -0.00000000000E+00 -0.10956720756E+04  0.10956720756E+04  0.00000000000E+00 0.  1.
         24    2    1    2    0    0 -0.97488490351E+02 -0.46162097486E+03  0.10181471954E+03  0.48947682048E+03  0.81384215252E+02 0.  0.
        254    2    1    2    0    0  0.97488490351E+02  0.46162097486E+03 -0.60854401590E+03  0.11951380344E+04  0.91401924036E+03 0.  0.
         23    2    4    4    0    0 -0.60452965518E+01  0.61243960840E+03 -0.72884253345E+03  0.95625677855E+03  0.89982044878E+02 0.  0.
         23    2    4    4    0    0  0.10353378690E+03 -0.15081863354E+03  0.12029851755E+03  0.23888125583E+03  0.95535416522E+02 0.  0.
          2    1    3    3  502    0  0.84738075720E+01 -0.51365568828E+01 -0.62689409865E-01  0.99092664381E+01  0.00000000000E+00 0. -1.
         -1    1    3    3    0  502 -0.10596229792E+03 -0.45648441797E+03  0.10187740895E+03  0.47956755404E+03  0.00000000000E+00 0.  1.
         13    1    5    5    0    0 -0.35301338115E+02  0.46847623038E+03 -0.51840173944E+03  0.69961169684E+03  0.00000000000E+00 0.  1.
        -13    1    5    5    0    0  0.29256041563E+02  0.14396337802E+03 -0.21044079401E+03  0.25664508170E+03  0.00000000000E+00 0. -1.
          1    1    6    6  503    0  0.63259067057E+01  0.10329011332E+02 -0.46596160759E+01  0.12977580388E+02  0.00000000000E+00 0. -1.
         -1    1    6    6    0  503  0.97207880197E+02 -0.16114764487E+03  0.12495813362E+03  0.22590367544E+03  0.00000000000E+00 0.  1.
<mgrwt>
<rscale>  0 0.16065966E+04</rscale>
<asrwt>0</asrwt>
<pdfrwt beam="1">  1        2 0.90606581E-01 0.16065966E+04</pdfrwt>
<pdfrwt beam="2">  1       -1 0.16856494E+00 0.16065966E+04</pdfrwt>
<totfact> 0.14005021E+01</totfact>
</mgrwt>
</event>
<event>
12    7  0.1544987E-007  0.3345635E+04  0.7818608E-02  0.8151380E-01
          2   -1    0    0  501    0  0.00000000000E+00  0.00000000000E+00  0.81545370511E+03  0.81545370511E+03  0.00000000000E+00 0. -1.
         -1   -1    0    0    0  501 -0.00000000000E+00 -0.00000000000E+00 -0.34316098609E+04  0.34316098609E+04  0.00000000000E+00 0.  1.
         24    2    1    2    0    0 -0.94157044288E+03 -0.11711150689E+04 -0.16889527465E+04  0.22620706023E+04  0.79602929673E+02 0.  0.
        254    2    1    2    0    0  0.94157044288E+03  0.11711150689E+04 -0.92720340928E+03  0.19849929637E+04  0.90687678348E+03 0.  0.
         23    2    4    4    0    0  0.25629175073E+02  0.32665698041E+03 -0.60527695395E+03  0.69499928907E+03  0.96447827137E+02 0.  0.
         23    2    4    4    0    0  0.91594126781E+03  0.84445808845E+03 -0.32192645533E+03  0.12899936746E+04  0.91592405623E+02 0.  0.
          2    1    3    3  502    0 -0.18358068653E+03 -0.21806281794E+03 -0.36771163150E+03  0.46525810576E+03  0.00000000000E+00 0. -1.
         -1    1    3    3    0  502 -0.75798975636E+03 -0.95305225091E+03 -0.13212411150E+04  0.17968124965E+04  0.00000000000E+00 0.  1.
         13    1    5    5    0    0 -0.31677720164E+01  0.26979765247E+03 -0.54061292476E+03  0.60420455350E+03  0.00000000000E+00 0. -1.
        -13    1    5    5    0    0  0.28796947090E+02  0.56859327939E+02 -0.64664029193E+02  0.90794735568E+02  0.00000000000E+00 0.  1.
          2    1    6    6  503    0  0.23791685521E+03  0.18043571531E+03 -0.49769145569E+02  0.30271842561E+03  0.00000000000E+00 0.  1.
         -2    1    6    6    0  503  0.67802441260E+03  0.66402237313E+03 -0.27215730976E+03  0.98727524903E+03  0.00000000000E+00 0. -1.
<mgrwt>
<rscale>  0 0.33456354E+04</rscale>
<asrwt>0</asrwt>
<pdfrwt beam="1">  1        2 0.12545442E+00 0.33456354E+04</pdfrwt>
<pdfrwt beam="2">  1       -1 0.52793998E+00 0.33456354E+04</pdfrwt>
<totfact> 0.31743217E-02</totfact>
</mgrwt>
</event>
<event>
12    7  0.1544987E-007  0.1474586E+04  0.7818608E-02  0.8901531E-01
         -1   -1    0    0    0  501 -0.00000000000E+00  0.00000000000E+00  0.10187540966E+04  0.10187540966E+04  0.00000000000E+00 0.  1.
          2   -1    0    0  501    0  0.00000000000E+00 -0.00000000000E+00 -0.53359423242E+03  0.53359423242E+03  0.00000000000E+00 0. -1.
         24    2    1    2    0    0 -0.36305786720E+03  0.10888316846E+03 -0.10657528647E+03  0.40188376533E+03  0.80533904905E+02 0.  0.
        254    2    1    2    0    0  0.36305786720E+03 -0.10888316846E+03  0.59173515061E+03  0.11504645637E+04  0.91090705587E+03 0.  0.
         23    2    4    4    0    0  0.51177151535E+03 -0.53836773919E+01 -0.54617113442E+01  0.51978691659E+03  0.90606514406E+02 0.  0.
         23    2    4    4    0    0 -0.14871364816E+03 -0.10349949107E+03  0.59719686196E+03  0.63067764706E+03  0.91007190792E+02 0.  0.
          2    1    3    3  502    0 -0.25206235877E+03  0.36018478622E+02 -0.65775660426E+02  0.26298137009E+03  0.00000000000E+00 0. -1.
         -1    1    3    3    0  502 -0.11099550842E+03  0.72864689841E+02 -0.40799626047E+02  0.13890239523E+03  0.00000000000E+00 0.  1.
         13    1    5    5    0    0  0.50529584267E+03  0.73550672834E+01 -0.34907138962E+01  0.50536142583E+03  0.00000000000E+00 0.  1.
        -13    1    5    5    0    0  0.64756726865E+01 -0.12738744675E+02 -0.19709974480E+01  0.14425490757E+02  0.00000000000E+00 0. -1.
          1    1    6    6  503    0 -0.81163442394E+02 -0.27525445474E+01  0.25496060511E+03  0.26758174646E+03  0.00000000000E+00 0. -1.
         -1    1    6    6    0  503 -0.67550205763E+02 -0.10074694652E+03  0.34223625685E+03  0.36309590060E+03  0.00000000000E+00 0.  1.
<mgrwt>
<rscale>  0 0.14745865E+04</rscale>
<asrwt>0</asrwt>
<pdfrwt beam="1">  1        2 0.82091421E-01 0.14745865E+04</pdfrwt>
<pdfrwt beam="2">  1       -1 0.15673140E+00 0.14745865E+04</pdfrwt>
<totfact> 0.19541935E+01</totfact>
</mgrwt>
</event>
<event>
12    7  0.1544987E-007  0.2019366E+04  0.7818608E-02  0.8597620E-01
          2   -1    0    0  501    0  0.00000000000E+00  0.00000000000E+00  0.31841337436E+04  0.31841337436E+04  0.00000000000E+00 0. -1.
         -1   -1    0    0    0  501 -0.00000000000E+00 -0.00000000000E+00 -0.32016858592E+03  0.32016858592E+03  0.00000000000E+00 0.  1.
         24    2    1    2    0    0  0.18020230575E+03 -0.43506065221E+03 -0.24879599010E+01  0.47767124991E+03  0.80081152250E+02 0.  0.
        254    2    1    2    0    0 -0.18020230575E+03  0.43506065221E+03  0.28664531176E+04  0.30266310796E+04  0.84981855396E+03 0.  0.
         23    2    4    4    0    0  0.23759851147E+03  0.16771286384E+03  0.37322778469E+03  0.48299050993E+03  0.96954608304E+02 0.  0.
         23    2    4    4    0    0 -0.41780081722E+03  0.26734778836E+03  0.24932253329E+04  0.25436405697E+04  0.88895580883E+02 0.  0.
          4    1    3    3  502    0  0.66807698008E+02 -0.25978383697E+03 -0.13937855298E+02  0.26859853736E+03  0.00000000000E+00 0. -1.
         -3    1    3    3    0  502  0.11339460775E+03 -0.17527681524E+03  0.11449895397E+02  0.20907271254E+03  0.00000000000E+00 0.  1.
         13    1    5    5    0    0  0.14604167115E+03  0.82204526632E+02  0.28191720158E+03  0.32796808146E+03  0.00000000000E+00 0. -1.
        -13    1    5    5    0    0  0.91556840317E+02  0.85508337212E+02  0.91310583112E+02  0.15502242847E+03  0.00000000000E+00 0.  1.
          4    1    6    6  503    0 -0.39571554462E+03  0.27264958761E+03  0.24048616212E+04  0.24524045358E+04  0.00000000000E+00 0. -1.
         -4    1    6    6    0  503 -0.22085272598E+02 -0.53017992440E+01  0.88363711722E+02  0.91236033946E+02  0.00000000000E+00 0.  1.
<mgrwt>
<rscale>  0 0.20193658E+04</rscale>
<asrwt>0</asrwt>
<pdfrwt beam="1">  1        2 0.48986671E+00 0.20193658E+04</pdfrwt>
<pdfrwt beam="2">  1       -1 0.49256708E-01 0.20193658E+04</pdfrwt>
<totfact> 0.58095681E+00</totfact>
</mgrwt>
</event>
<event>
12    7  0.1544987E-007  0.3500619E+04  0.7818608E-02  0.8113643E-01
          2   -1    0    0  501    0  0.00000000000E+00  0.00000000000E+00  0.13748665214E+04  0.13748665214E+04  0.00000000000E+00 0. -1.
         -1   -1    0    0    0  501 -0.00000000000E+00 -0.00000000000E+00 -0.22282770036E+04  0.22282770036E+04  0.00000000000E+00 0.  1.
         24    2    1    2    0    0  0.94588903635E+03 -0.79628639257E+03  0.70941353228E+03  0.14276925218E+04  0.79121986967E+02 0.  0.
        254    2    1    2    0    0 -0.94588903635E+03  0.79628639257E+03 -0.15628240144E+04  0.21754510033E+04  0.87257668976E+03 0.  0.
         23    2    4    4    0    0 -0.55274202165E+03 -0.61909541980E+02 -0.62699980957E+03  0.84307113487E+03  0.91014522829E+02 0.  0.
         23    2    4    4    0    0 -0.39314701470E+03  0.85819593455E+03 -0.93582420484E+03  0.13323798684E+04  0.91675155215E+02 0.  0.
          4    1    3    3  502    0  0.39406185739E+03 -0.34517028274E+03  0.34419972837E+03  0.62681793572E+03  0.00000000000E+00 0. -1.
         -3    1    3    3    0  502  0.55182717896E+03 -0.45111610984E+03  0.36521380391E+03  0.80087458603E+03  0.00000000000E+00 0.  1.
         13    1    5    5    0    0 -0.20163455860E+03  0.16083288684E+02 -0.19521017137E+03  0.28110883729E+03  0.00000000000E+00 0.  1.
        -13    1    5    5    0    0 -0.35110746305E+03 -0.77992830665E+02 -0.43178963821E+03  0.56196229759E+03  0.00000000000E+00 0. -1.
          1    1    6    6  503    0 -0.25803493462E+03  0.52628642579E+03 -0.52118462943E+03  0.78434230244E+03  0.00000000000E+00 0. -1.
         -1    1    6    6    0  503 -0.13511208008E+03  0.33190950877E+03 -0.41463957541E+03  0.54803756595E+03  0.00000000000E+00 0.  1.
<mgrwt>
<rscale>  0 0.35006191E+04</rscale>
<asrwt>0</asrwt>
<pdfrwt beam="1">  1        2 0.21151793E+00 0.35006191E+04</pdfrwt>
<pdfrwt beam="2">  1       -1 0.34281184E+00 0.35006191E+04</pdfrwt>
<totfact> 0.24259290E-01</totfact>
</mgrwt>
</event>
<event>
12    7  0.1544987E-007  0.2388693E+04  0.7818608E-02  0.8443749E-01
         -1   -1    0    0    0  501 -0.00000000000E+00  0.00000000000E+00  0.35111635233E+03  0.35111635233E+03  0.00000000000E+00 0.  1.
          2   -1    0    0  501    0  0.00000000000E+00 -0.00000000000E+00 -0.40626522431E+04  0.40626522431E+04  0.00000000000E+00 0. -1.
         24    2    1    2    0    0 -0.61456940953E+03  0.81414078549E+03 -0.17510784009E+04  0.20281090490E+04  0.80187098179E+02 0.  0.
        254    2    1    2    0    0  0.61456940953E+03 -0.81414078549E+03 -0.19604574899E+04  0.23856595465E+04  0.89858618077E+03 0.  0.
         23    2    4    4    0    0  0.33876976466E+03 -0.96618748199E+03 -0.14120166791E+04  0.17465831793E+04  0.92078750800E+02 0.  0.
         23    2    4    4    0    0  0.27579964487E+03  0.15204669650E+03 -0.54844081073E+03  0.63907636712E+03  0.91911033693E+02 0.  0.
          4    1    3    3  502    0 -0.11646749689E+02  0.32430647750E+02 -0.81763577607E+02  0.88728103299E+02  0.00000000000E+00 0. -1.
         -1    1    3    3    0  502 -0.60292265984E+03  0.78171013774E+03 -0.16693148233E+04  0.19393809457E+04  0.00000000000E+00 0.  1.
         13    1    5    5    0    0  0.55306856455E+01 -0.13625032592E+02 -0.45529359269E+02  0.47845089113E+02  0.00000000000E+00 0. -1.
        -13    1    5    5    0    0  0.33323907901E+03 -0.95256244940E+03 -0.13664873199E+04  0.16987380902E+04  0.00000000000E+00 0.  1.
          1    1    6    6  503    0  0.15189895583E+03  0.43814352898E+02 -0.21087534848E+03  0.26355531278E+03  0.00000000000E+00 0. -1.
         -1    1    6    6    0  503  0.12390068905E+03  0.10823234360E+03 -0.33756546225E+03  0.37552105434E+03  0.00000000000E+00 0.  1.
<mgrwt>
<rscale>  0 0.23886931E+04</rscale>
<asrwt>0</asrwt>
<pdfrwt beam="1">  1        2 0.62502344E+00 0.23886931E+04</pdfrwt>
<pdfrwt beam="2">  1       -1 0.54017899E-01 0.23886931E+04</pdfrwt>
<totfact> 0.10824329E+00</totfact>
</mgrwt>
</event>
<event>
12    7  0.1544987E-007  0.1560653E+04  0.7818608E-02  0.8845092E-01
         -1   -1    0    0    0  501 -0.00000000000E+00  0.00000000000E+00  0.58882743115E+03  0.58882743115E+03  0.00000000000E+00 0.  1.
          2   -1    0    0  501    0  0.00000000000E+00 -0.00000000000E+00 -0.10341047123E+04  0.10341047123E+04  0.00000000000E+00 0. -1.
         24    2    1    2    0    0 -0.45415182682E+03 -0.22274907145E+03 -0.34220633457E+02  0.51378815913E+03  0.83283792400E+02 0.  0.
        254    2    1    2    0    0  0.45415182682E+03  0.22274907145E+03 -0.41105664771E+03  0.11091439843E+04  0.89741951156E+03 0.  0.
         23    2    4    4    0    0 -0.89338331732E+01 -0.15040107001E+03 -0.47259632085E+03  0.50436736039E+03  0.91317339553E+02 0.  0.
         23    2    4    4    0    0  0.46308565999E+03  0.37315014146E+03  0.61539673141E+02  0.60477662395E+03  0.90985036910E+02 0.  0.
          2    1    3    3  502    0 -0.13956541403E+02 -0.23048779187E+02  0.91851233117E+01  0.28467486018E+02  0.00000000000E+00 0. -1.
         -1    1    3    3    0  502 -0.44019528542E+03 -0.19970029226E+03 -0.43405756769E+02  0.48532067311E+03  0.00000000000E+00 0.  1.
         13    1    5    5    0    0  0.25358833006E+01 -0.23469786581E+02 -0.12034932019E+02  0.26497191832E+02  0.00000000000E+00 0.  1.
        -13    1    5    5    0    0 -0.11469716474E+02 -0.12693128343E+03 -0.46056138883E+03  0.47787016855E+03  0.00000000000E+00 0. -1.
          2    1    6    6  503    0  0.42475966702E+03  0.31525822385E+03  0.74371770710E+02  0.53417195987E+03  0.00000000000E+00 0. -1.
         -2    1    6    6    0  503  0.38325992977E+02  0.57891917608E+02 -0.12832097569E+02  0.70604664081E+02  0.00000000000E+00 0.  1.
<mgrwt>
<rscale>  0 0.15606527E+04</rscale>
<asrwt>0</asrwt>
<pdfrwt beam="1">  1        2 0.15909303E+00 0.15606527E+04</pdfrwt>
<pdfrwt beam="2">  1       -1 0.90588837E-01 0.15606527E+04</pdfrwt>
<totfact> 0.31303135E+01</totfact>
</mgrwt>
</event>
<event>
12    7  0.1544987E-007  0.1346589E+04  0.7818608E-02  0.8993414E-01
          2   -1    0    0  501    0  0.00000000000E+00  0.00000000000E+00  0.26825491229E+03  0.26825491229E+03  0.00000000000E+00 0. -1.
         -1   -1    0    0    0  501 -0.00000000000E+00 -0.00000000000E+00 -0.16899067161E+04  0.16899067161E+04  0.00000000000E+00 0.  1.
         24    2    1    2    0    0 -0.18843164051E+02 -0.29306217946E+03 -0.69151146406E+03  0.75637863321E+03  0.87635757482E+02 0.  0.
        254    2    1    2    0    0  0.18843164051E+02  0.29306217946E+03 -0.73014033976E+03  0.12017829952E+04  0.90826039543E+03 0.  0.
         23    2    4    4    0    0 -0.21616985228E+03  0.18202520032E+03  0.11040387378E+03  0.31726319406E+03  0.92759583722E+02 0.  0.
         23    2    4    4    0    0  0.23501301633E+03  0.11103697915E+03 -0.84054421355E+03  0.88451980113E+03  0.91106394264E+02 0.  0.
          2    1    3    3  502    0  0.18962586460E+02 -0.22445346002E+02 -0.37943490437E+02  0.47990433515E+02  0.00000000000E+00 0. -1.
         -1    1    3    3    0  502 -0.37805750511E+02 -0.27061683346E+03 -0.65356797362E+03  0.70838819970E+03  0.00000000000E+00 0.  1.
         13    1    5    5    0    0 -0.10457394631E+03  0.91675792610E+02  0.50275316528E+01  0.13915975450E+03  0.00000000000E+00 0.  1.
        -13    1    5    5    0    0 -0.11159590598E+03  0.90349407707E+02  0.10537634213E+03  0.17810343956E+03  0.00000000000E+00 0. -1.
          1    1    6    6  503    0  0.19676910147E+03  0.69486396269E+02 -0.74361029251E+03  0.77233587622E+03  0.00000000000E+00 0. -1.
         -1    1    6    6    0  503  0.38243914866E+02  0.41550582877E+02 -0.96933921035E+02  0.11218392491E+03  0.00000000000E+00 0.  1.
<mgrwt>
<rscale>  0 0.13465894E+04</rscale>
<asrwt>0</asrwt>
<pdfrwt beam="1">  1        2 0.41269986E-01 0.13465894E+04</pdfrwt>
<pdfrwt beam="2">  1       -1 0.25998565E+00 0.13465894E+04</pdfrwt>
<totfact> 0.83722708E+00</totfact>
</mgrwt>
</event>
<event>
12    7  0.1544987E-007  0.1749618E+04  0.7818608E-02  0.8733561E-01
          2   -1    0    0  501    0  0.00000000000E+00  0.00000000000E+00  0.10761559573E+04  0.10761559573E+04  0.00000000000E+00 0. -1.
         -1   -1    0    0    0  501 -0.00000000000E+00 -0.00000000000E+00 -0.71113335121E+03  0.71113335121E+03  0.00000000000E+00 0.  1.
         24    2    1    2    0    0 -0.22492776227E+03 -0.20743697279E+03  0.71043118244E+03  0.77755198644E+03  0.79069783861E+02 0.  0.
        254    2    1    2    0    0  0.22492776227E+03  0.20743697279E+03 -0.34540857636E+03  0.10097373221E+04  0.89813127047E+03 0.  0.
         23    2    4    4    0    0  0.36869613262E+03  0.33522745354E+03  0.99147931495E+02  0.51675441866E+03  0.94289623344E+02 0.  0.
         23    2    4    4    0    0 -0.14376837035E+03 -0.12779048074E+03 -0.44455650786E+03  0.49298290340E+03  0.91661895492E+02 0.  0.
          2    1    3    3  502    0 -0.15994993773E+03 -0.14564116958E+03  0.40399759310E+03  0.45826781262E+03  0.00000000000E+00 0. -1.
         -1    1    3    3    0  502 -0.64977824539E+02 -0.61795803216E+02  0.30643358934E+03  0.31928417382E+03  0.00000000000E+00 0.  1.
         13    1    5    5    0    0  0.30655036853E+03  0.22799006008E+03  0.89861833112E+02  0.39246368621E+03  0.00000000000E+00 0.  1.
        -13    1    5    5    0    0  0.62145764086E+02  0.10723739346E+03  0.92860983822E+01  0.12429073245E+03  0.00000000000E+00 0. -1.
          4    1    6    6  503    0 -0.14041927296E+01  0.11419744199E+02 -0.11133040632E+02  0.16010212631E+02  0.00000000000E+00 0. -1.
         -4    1    6    6    0  503 -0.14236417762E+03 -0.13921022494E+03 -0.43342346722E+03  0.47697269077E+03  0.00000000000E+00 0.  1.
<mgrwt>
<rscale>  0 0.17496175E+04</rscale>
<asrwt>0</asrwt>
<pdfrwt beam="1">  1        2 0.16556246E+00 0.17496175E+04</pdfrwt>
<pdfrwt beam="2">  1       -1 0.10940513E+00 0.17496175E+04</pdfrwt>
<totfact> 0.18842353E+01</totfact>
</mgrwt>
</event>
<event>
12    7  0.1544987E-007  0.2080052E+04  0.7818608E-02  0.8570082E-01
          2   -1    0    0  501    0  0.00000000000E+00  0.00000000000E+00  0.44721023861E+03  0.44721023861E+03  0.00000000000E+00 0. -1.
         -1   -1    0    0    0  501 -0.00000000000E+00 -0.00000000000E+00 -0.24186695884E+04  0.24186695884E+04  0.00000000000E+00 0.  1.
         24    2    1    2    0    0 -0.89081814288E+03  0.17080041031E+03 -0.97592009707E+03  0.13346925943E+04  0.79085660117E+02 0.  0.
        254    2    1    2    0    0  0.89081814288E+03 -0.17080041031E+03 -0.99553925270E+03  0.15311872327E+04  0.72849584347E+03 0.  0.
         23    2    4    4    0    0  0.39186845392E+03  0.27543434597E+03 -0.44080118565E+03  0.65723599023E+03  0.90711065815E+02 0.  0.
         23    2    4    4    0    0  0.49894968896E+03 -0.44623475628E+03 -0.55473806705E+03  0.87395124244E+03  0.89331972390E+02 0.  0.
          2    1    3    3  502    0 -0.89962029623E+02  0.33645519106E+02 -0.13153485948E+03  0.16286990817E+03  0.00000000000E+00 0. -1.
         -1    1    3    3    0  502 -0.80085611326E+03  0.13715489120E+03 -0.84438523759E+03  0.11718226862E+04  0.00000000000E+00 0.  1.
         13    1    5    5    0    0  0.32050089470E+03  0.26232575647E+03 -0.38774714956E+03  0.56734775755E+03  0.00000000000E+00 0.  1.
        -13    1    5    5    0    0  0.71367559220E+02  0.13108589507E+02 -0.53054036087E+02  0.89888232673E+02  0.00000000000E+00 0. -1.
          1    1    6    6  503    0  0.41166274187E+02 -0.43599976482E+02 -0.20592521715E+02  0.63400883514E+02  0.00000000000E+00 0. -1.
         -1    1    6    6    0  503  0.45778341478E+03 -0.40263477980E+03 -0.53414554534E+03  0.81055035892E+03  0.00000000000E+00 0.  1.
<mgrwt>
<rscale>  0 0.20800517E+04</rscale>
<asrwt>0</asrwt>
<pdfrwt beam="1">  1        2 0.68801577E-01 0.20800517E+04</pdfrwt>
<pdfrwt beam="2">  1       -1 0.37210301E+00 0.20800517E+04</pdfrwt>
<totfact> 0.81817710E-01</totfact>
</mgrwt>
</event>
<event>
12    7  0.1544987E-007  0.1915800E+04  0.7818608E-02  0.8647032E-01
         -1   -1    0    0    0  501 -0.00000000000E+00  0.00000000000E+00  0.38472358622E+03  0.38472358622E+03  0.00000000000E+00 0.  1.
          2   -1    0    0  501    0  0.00000000000E+00 -0.00000000000E+00 -0.23850161066E+04  0.23850161066E+04  0.00000000000E+00 0. -1.
         24    2    1    2    0    0 -0.13335788645E+03  0.23262123383E+03  0.22256978030E+03  0.35753271057E+03  0.79971042986E+02 0.  0.
        254    2    1    2    0    0  0.13335788645E+03 -0.23262123383E+03 -0.22228623007E+04  0.24122069822E+04  0.89762394863E+03 0.  0.
         23    2    4    4    0    0  0.19392300742E+03 -0.51241391036E+03 -0.91539975979E+03  0.10706650665E+04  0.90514175786E+02 0.  0.
         23    2    4    4    0    0 -0.60565120971E+02  0.27979267653E+03 -0.13074625409E+04  0.13415419158E+04  0.91237822388E+02 0.  0.
          2    1    3    3  502    0 -0.17844426539E+01 -0.22315532641E+01 -0.45174621795E+01  0.53452343352E+01  0.00000000000E+00 0. -1.
         -1    1    3    3    0  502 -0.13157344379E+03  0.23485278709E+03  0.22708724248E+03  0.35218747623E+03  0.00000000000E+00 0.  1.
         13    1    5    5    0    0  0.10162098207E+03 -0.20366289827E+03 -0.30675246157E+03  0.38197182201E+03  0.00000000000E+00 0.  1.
        -13    1    5    5    0    0  0.92302025348E+02 -0.30875101209E+03 -0.60864729822E+03  0.68869324447E+03  0.00000000000E+00 0. -1.
          3    1    6    6  503    0 -0.22801294443E+02  0.23025623361E+03 -0.89612901309E+03  0.92551879518E+03  0.00000000000E+00 0. -1.
         -3    1    6    6    0  503 -0.37763826528E+02  0.49536442922E+02 -0.41133352779E+03  0.41602312058E+03  0.00000000000E+00 0.  1.
<mgrwt>
<rscale>  0 0.19157995E+04</rscale>
<asrwt>0</asrwt>
<pdfrwt beam="1">  1        2 0.36692556E+00 0.19157995E+04</pdfrwt>
<pdfrwt beam="2">  1       -1 0.59188244E-01 0.19157995E+04</pdfrwt>
<totfact> 0.12500444E+01</totfact>
</mgrwt>
</event>
<event>
12    7  0.1544987E-007  0.1211750E+04  0.7818608E-02  0.9102634E-01
         -1   -1    0    0    0  501 -0.00000000000E+00  0.00000000000E+00  0.37387364342E+03  0.37387364342E+03  0.00000000000E+00 0.  1.
          2   -1    0    0  501    0  0.00000000000E+00 -0.00000000000E+00 -0.98184099777E+03  0.98184099777E+03  0.00000000000E+00 0. -1.
         24    2    1    2    0    0  0.45949805240E+02 -0.21183438888E+03 -0.31138389688E+03  0.38727325085E+03  0.77688137239E+02 0.  0.
        254    2    1    2    0    0 -0.45949805240E+02  0.21183438888E+03 -0.29658345747E+03  0.96844139035E+03  0.89606461061E+03 0.  0.
         23    2    4    4    0    0 -0.36345943380E+03  0.18118989610E+02  0.12817125696E+03  0.39650286203E+03  0.91408920158E+02 0.  0.
         23    2    4    4    0    0  0.31750962856E+03  0.19371539927E+03 -0.42475471443E+03  0.57193852832E+03  0.91428073348E+02 0.  0.
          2    1    3    3  502    0  0.30971666960E+02 -0.15136663556E+03 -0.15460864847E+03  0.21857478513E+03  0.00000000000E+00 0. -1.
         -1    1    3    3    0  502  0.14978138281E+02 -0.60467753323E+02 -0.15677524842E+03  0.16869846571E+03  0.00000000000E+00 0.  1.
         13    1    5    5    0    0 -0.19238116086E+03  0.40877946400E+02  0.33030503330E+02  0.19943051849E+03  0.00000000000E+00 0. -1.
        -13    1    5    5    0    0 -0.17107827295E+03 -0.22758956790E+02  0.95140753632E+02  0.19707234354E+03  0.00000000000E+00 0.  1.
          1    1    6    6  503    0  0.13972934098E+03  0.46653856293E+02 -0.12188449231E+03  0.19119806616E+03  0.00000000000E+00 0. -1.
         -1    1    6    6    0  503  0.17778028759E+03  0.14706154298E+03 -0.30287022212E+03  0.38074046216E+03  0.00000000000E+00 0.  1.
<mgrwt>
<rscale>  0 0.12117499E+04</rscale>
<asrwt>0</asrwt>
<pdfrwt beam="1">  1        2 0.15105246E+00 0.12117499E+04</pdfrwt>
<pdfrwt beam="2">  1       -1 0.57519022E-01 0.12117499E+04</pdfrwt>
<totfact> 0.89103526E+01</totfact>
</mgrwt>
</event>
<event>
12    7  0.1544987E-007  0.2156735E+04  0.7818608E-02  0.8536655E-01
         -1   -1    0    0    0  501 -0.00000000000E+00  0.00000000000E+00  0.14039731221E+04  0.14039731221E+04  0.00000000000E+00 0.  1.
          2   -1    0    0  501    0  0.00000000000E+00 -0.00000000000E+00 -0.82827565833E+03  0.82827565833E+03  0.00000000000E+00 0. -1.
         24    2    1    2    0    0  0.87383767214E+02  0.81687016911E+03  0.58674296935E+03  0.10126663708E+04  0.79454832823E+02 0.  0.
        254    2    1    2    0    0 -0.87383767214E+02 -0.81687016911E+03 -0.11045505556E+02  0.12195824097E+04  0.90130264334E+03 0.  0.
         23    2    4    4    0    0  0.13096851563E+03 -0.63603103993E+03 -0.36949754220E+03  0.75333221212E+03  0.96398922644E+02 0.  0.
         23    2    4    4    0    0 -0.21835228285E+03 -0.18083912917E+03  0.35845203664E+03  0.46625019757E+03  0.92308580833E+02 0.  0.
          4    1    3    3  502    0  0.36671190462E+02  0.12514715174E+03  0.11488849413E+03  0.17379859574E+03  0.00000000000E+00 0. -1.
         -3    1    3    3    0  502  0.50712576752E+02  0.69172301737E+03  0.47185447522E+03  0.83886777503E+03  0.00000000000E+00 0.  1.
         13    1    5    5    0    0  0.14245700039E+03 -0.62085663850E+03 -0.36332994733E+03  0.73332503923E+03  0.00000000000E+00 0.  1.
        -13    1    5    5    0    0 -0.11488484757E+02 -0.15174401435E+02 -0.61675948675E+01  0.20007172898E+02  0.00000000000E+00 0. -1.
          4    1    6    6  503    0 -0.88199423156E+02 -0.78222392259E+02  0.80900745677E+02  0.14297836041E+03  0.00000000000E+00 0. -1.
         -4    1    6    6    0  503 -0.13015285969E+03 -0.10261673691E+03  0.27755129096E+03  0.32327183715E+03  0.00000000000E+00 0.  1.
<mgrwt>
<rscale>  0 0.21567353E+04</rscale>
<asrwt>0</asrwt>
<pdfrwt beam="1">  1        2 0.12742702E+00 0.21567353E+04</pdfrwt>
<pdfrwt beam="2">  1       -1 0.21599586E+00 0.21567353E+04</pdfrwt>
<totfact> 0.40283811E+00</totfact>
</mgrwt>
</event>
<event>
12    7  0.1544987E-007  0.3855207E+04  0.7818608E-02  0.8034410E-01
         -1   -1    0    0    0  501 -0.00000000000E+00  0.00000000000E+00  0.16470562361E+04  0.16470562361E+04  0.00000000000E+00 0.  1.
          2   -1    0    0  501    0  0.00000000000E+00 -0.00000000000E+00 -0.22559368487E+04  0.22559368487E+04  0.00000000000E+00 0. -1.
         24    2    1    2    0    0 -0.11171411598E+04 -0.10024013517E+04 -0.13283368809E+04  0.20061028709E+04  0.84599164754E+02 0.  0.
        254    2    1    2    0    0  0.11171411598E+04  0.10024013517E+04  0.71945626825E+03  0.18968902139E+04  0.90981444306E+03 0.  0.
         23    2    4    4    0    0  0.68130111899E+03  0.85963864997E+03  0.79275195097E+02  0.11036560119E+04  0.92855871337E+02 0.  0.
         23    2    4    4    0    0  0.43584004083E+03  0.14276270176E+03  0.64018107316E+03  0.79323420199E+03  0.95136547011E+02 0.  0.
          2    1    3    3  502    0 -0.59126722972E+03 -0.47500076024E+03 -0.65823851803E+03  0.10042413085E+04  0.00000000000E+00 0. -1.
         -1    1    3    3    0  502 -0.52587393011E+03 -0.52740059149E+03 -0.67009836287E+03  0.10018615624E+04  0.00000000000E+00 0.  1.
         13    1    5    5    0    0  0.17384761170E+03  0.16009662334E+03  0.26799727127E+02  0.23784899889E+03  0.00000000000E+00 0. -1.
        -13    1    5    5    0    0  0.50745350729E+03  0.69954202663E+03  0.52475467970E+02  0.86580701303E+03  0.00000000000E+00 0.  1.
          4    1    6    6  503    0  0.95537628421E+02  0.74227642495E+02  0.15383709259E+03  0.19571160520E+03  0.00000000000E+00 0. -1.
         -4    1    6    6    0  503  0.34030241241E+03  0.68535059267E+02  0.48634398057E+03  0.59752259679E+03  0.00000000000E+00 0.  1.
<mgrwt>
<rscale>  0 0.38552068E+04</rscale>
<asrwt>0</asrwt>
<pdfrwt beam="1">  1        2 0.34706720E+00 0.38552068E+04</pdfrwt>
<pdfrwt beam="2">  1       -1 0.25339327E+00 0.38552068E+04</pdfrwt>
<totfact> 0.28874112E-01</totfact>
</mgrwt>
</event>
<event>
12    7  0.1544987E-007  0.1941681E+04  0.7818608E-02  0.8634383E-01
          2   -1    0    0  501    0  0.00000000000E+00  0.00000000000E+00  0.81522980253E+03  0.81522980253E+03  0.00000000000E+00 0. -1.
         -1   -1    0    0    0  501 -0.00000000000E+00 -0.00000000000E+00 -0.11561545667E+04  0.11561545667E+04  0.00000000000E+00 0.  1.
         24    2    1    2    0    0  0.24452519196E+03 -0.49375932701E+03 -0.66166615475E+03  0.86481389861E+03  0.80685416156E+02 0.  0.
        254    2    1    2    0    0 -0.24452519196E+03  0.49375932701E+03  0.32074139054E+03  0.11065704707E+04  0.90445139418E+03 0.  0.
         23    2    4    4    0    0 -0.12728581566E+03  0.63989328299E+03 -0.71313095871E+02  0.66260843944E+03  0.91100460414E+02 0.  0.
         23    2    4    4    0    0 -0.11723937630E+03 -0.14613395598E+03  0.39205448641E+03  0.44396203123E+03  0.91078869192E+02 0.  0.
          2    1    3    3  502    0  0.10547637707E+03 -0.23193635693E+03 -0.24523586249E+03  0.35363875358E+03  0.00000000000E+00 0. -1.
         -1    1    3    3    0  502  0.13904881489E+03 -0.26182297008E+03 -0.41643029226E+03  0.51117514503E+03  0.00000000000E+00 0.  1.
         13    1    5    5    0    0 -0.56531375980E+02  0.31809515106E+03  0.10015540726E+02  0.32323464025E+03  0.00000000000E+00 0. -1.
        -13    1    5    5    0    0 -0.70754439684E+02  0.32179813193E+03 -0.81328636597E+02  0.33937379919E+03  0.00000000000E+00 0.  1.
          4    1    6    6  503    0 -0.89870463992E+02 -0.14854934883E+03  0.28749223421E+03  0.33585025542E+03  0.00000000000E+00 0.  1.
         -4    1    6    6    0  503 -0.27368912304E+02  0.24153928466E+01  0.10456225219E+03  0.10811177580E+03  0.00000000000E+00 0. -1.
<mgrwt>
<rscale>  0 0.19416814E+04</rscale>
<asrwt>0</asrwt>
<pdfrwt beam="1">  1        2 0.12541997E+00 0.19416814E+04</pdfrwt>
<pdfrwt beam="2">  1       -1 0.17786993E+00 0.19416814E+04</pdfrwt>
<totfact> 0.77141510E+00</totfact>
</mgrwt>
</event>
<event>
12    7  0.1544987E-007  0.1290247E+04  0.7818608E-02  0.9037335E-01
          2   -1    0    0  501    0  0.00000000000E+00  0.00000000000E+00  0.24760422914E+04  0.24760422914E+04  0.00000000000E+00 0. -1.
         -1   -1    0    0    0  501 -0.00000000000E+00 -0.00000000000E+00 -0.16808462716E+03  0.16808462716E+03  0.00000000000E+00 0.  1.
         24    2    1    2    0    0 -0.28220914502E+03 -0.18613930887E+03  0.77473645919E+03  0.84904779741E+03  0.79848213829E+02 0.  0.
        254    2    1    2    0    0  0.28220914502E+03  0.18613930887E+03  0.15332212051E+04  0.17950791212E+04  0.87020224302E+03 0.  0.
         23    2    4    4    0    0 -0.11325616868E+03 -0.21712570750E+03  0.92083250100E+03  0.95707294068E+03  0.89919888068E+02 0.  0.
         23    2    4    4    0    0  0.39546531370E+03  0.40326501637E+03  0.61238870406E+03  0.83800618050E+03  0.90658402395E+02 0.  0.
          2    1    3    3  502    0 -0.11765806966E+03 -0.98380622984E+02  0.26383583588E+03  0.30517456747E+03  0.00000000000E+00 0. -1.
         -1    1    3    3    0  502 -0.16455107536E+03 -0.87758685887E+02  0.51090062330E+03  0.54387322994E+03  0.00000000000E+00 0.  1.
         13    1    5    5    0    0 -0.11611664864E+03 -0.17747685192E+03  0.66029922208E+03  0.69352445648E+03  0.00000000000E+00 0. -1.
        -13    1    5    5    0    0  0.28604799671E+01 -0.39648855581E+02  0.26053327893E+03  0.26354848420E+03  0.00000000000E+00 0.  1.
          3    1    6    6  503    0  0.38438238385E+03  0.39299340827E+03  0.61234222434E+03  0.82289527625E+03  0.00000000000E+00 0. -1.
         -3    1    6    6    0  503  0.11082929848E+02  0.10271608095E+02  0.46479720910E-01  0.15110904249E+02  0.00000000000E+00 0.  1.
<mgrwt>
<rscale>  0 0.12902475E+04</rscale>
<asrwt>0</asrwt>
<pdfrwt beam="1">  1        2 0.38092956E+00 0.12902475E+04</pdfrwt>
<pdfrwt beam="2">  1       -1 0.25859175E-01 0.12902475E+04</pdfrwt>
<totfact> 0.53310668E+01</totfact>
</mgrwt>
</event>
<event>
12    7  0.1544987E-007  0.2419261E+04  0.7818608E-02  0.8432327E-01
         -1   -1    0    0    0  501 -0.00000000000E+00  0.00000000000E+00  0.14937705231E+04  0.14937705231E+04  0.00000000000E+00 0.  1.
          2   -1    0    0  501    0  0.00000000000E+00 -0.00000000000E+00 -0.97953896185E+03  0.97953896185E+03  0.00000000000E+00 0. -1.
         24    2    1    2    0    0 -0.14432940205E+03  0.87315961117E+03 -0.33735738401E+03  0.95070312325E+03  0.82387748740E+02 0.  0.
        254    2    1    2    0    0  0.14432940205E+03 -0.87315961117E+03  0.85158894523E+03  0.15226063617E+04  0.89993761899E+03 0.  0.
         23    2    4    4    0    0  0.43390105632E+03 -0.75846509466E+03  0.81042976566E+03  0.11952893253E+04  0.91546380046E+02 0.  0.
         23    2    4    4    0    0 -0.28957165426E+03 -0.11469451651E+03  0.41159179565E+02  0.32731703633E+03  0.91846552121E+02 0.  0.
          4    1    3    3  502    0 -0.14316558383E+03  0.68756038184E+03 -0.24900248338E+03  0.74514287207E+03  0.00000000000E+00 0. -1.
         -3    1    3    3    0  502 -0.11638182253E+01  0.18559922933E+03 -0.88354900634E+02  0.20556025118E+03  0.00000000000E+00 0.  1.
         13    1    5    5    0    0  0.65077227199E+02 -0.17151813727E+03  0.20289398940E+03  0.27353151162E+03  0.00000000000E+00 0. -1.
        -13    1    5    5    0    0  0.36882382912E+03 -0.58694695739E+03  0.60753577627E+03  0.92175781372E+03  0.00000000000E+00 0.  1.
          2    1    6    6  503    0 -0.15369725778E+03 -0.10821874599E+03  0.13138491818E+02  0.18843238575E+03  0.00000000000E+00 0. -1.
         -2    1    6    6    0  503 -0.13587439648E+03 -0.64757705207E+01  0.28020687747E+02  0.13888465058E+03  0.00000000000E+00 0.  1.
<mgrwt>
<rscale>  0 0.24192614E+04</rscale>
<asrwt>0</asrwt>
<pdfrwt beam="1">  1        2 0.15069830E+00 0.24192614E+04</pdfrwt>
<pdfrwt beam="2">  1       -1 0.22981085E+00 0.24192614E+04</pdfrwt>
<totfact> 0.25164461E+00</totfact>
</mgrwt>
</event>
<event>
12    7  0.1544987E-007  0.1627213E+04  0.7818608E-02  0.8804002E-01
         -1   -1    0    0    0  501 -0.00000000000E+00  0.00000000000E+00  0.42986344393E+03  0.42986344393E+03  0.00000000000E+00 0.  1.
          2   -1    0    0  501    0  0.00000000000E+00 -0.00000000000E+00 -0.15399201477E+04  0.15399201477E+04  0.00000000000E+00 0. -1.
         24    2    1    2    0    0 -0.24122430607E+03  0.17249308539E+03  0.18829150274E+03  0.36181877996E+03  0.86695496887E+02 0.  0.
        254    2    1    2    0    0  0.24122430607E+03 -0.17249308539E+03 -0.12983482065E+04  0.16079648116E+04  0.90105479292E+03 0.  0.
         23    2    4    4    0    0  0.23063080655E+03 -0.31284051008E+03 -0.13687598346E+04  0.14257121014E+04  0.89954197201E+02 0.  0.
         23    2    4    4    0    0  0.10593499519E+02  0.14034742469E+03  0.70411628093E+02  0.18225271026E+03  0.91916435839E+02 0.  0.
          4    1    3    3  502    0 -0.23766912603E+02  0.22237374818E+02 -0.68605721861E+01  0.33263109058E+02  0.00000000000E+00 0. -1.
         -3    1    3    3    0  502 -0.21745739347E+03  0.15025571057E+03  0.19515207493E+03  0.32855567090E+03  0.00000000000E+00 0.  1.
         13    1    5    5    0    0  0.73283802096E+02 -0.15771007302E+03 -0.70536746334E+03  0.72648898211E+03  0.00000000000E+00 0.  1.
        -13    1    5    5    0    0  0.15734700445E+03 -0.15513043706E+03 -0.66339237122E+03  0.69922311926E+03  0.00000000000E+00 0. -1.
          1    1    6    6  503    0 -0.33467541432E+02  0.99220837350E+02  0.61184115608E+02  0.12127797367E+03  0.00000000000E+00 0. -1.
         -1    1    6    6    0  503  0.44061040952E+02  0.41126587339E+02  0.92275124853E+01  0.60974736593E+02  0.00000000000E+00 0.  1.
<mgrwt>
<rscale>  0 0.16272128E+04</rscale>
<asrwt>0</asrwt>
<pdfrwt beam="1">  1        2 0.23691079E+00 0.16272128E+04</pdfrwt>
<pdfrwt beam="2">  1       -1 0.66132838E-01 0.16272128E+04</pdfrwt>
<totfact> 0.30450902E+01</totfact>
</mgrwt>
</event>
<event>
12    7  0.1544987E-007  0.1646414E+04  0.7818608E-02  0.8792531E-01
         -1   -1    0    0    0  501 -0.00000000000E+00  0.00000000000E+00  0.33340268293E+03  0.33340268293E+03  0.00000000000E+00 0.  1.
          2   -1    0    0  501    0  0.00000000000E+00 -0.00000000000E+00 -0.20325856606E+04  0.20325856606E+04  0.00000000000E+00 0. -1.
         24    2    1    2    0    0  0.36888555981E+03 -0.25456695295E+03 -0.89804084969E+02  0.46389437995E+03  0.79071690894E+02 0.  0.
        254    2    1    2    0    0 -0.36888555981E+03  0.25456695295E+03 -0.16093788927E+04  0.19020939636E+04  0.90938448207E+03 0.  0.
         23    2    4    4    0    0 -0.54865984029E+03  0.44532578852E+03 -0.96516764895E+03  0.11996527531E+04  0.90969550863E+02 0.  0.
         23    2    4    4    0    0  0.17977428048E+03 -0.19075883557E+03 -0.64421124378E+03  0.70244121049E+03  0.98528180328E+02 0.  0.
          2    1    3    3  502    0  0.41747551230E+02 -0.47661289163E+02 -0.36616661487E+02  0.73179480846E+02  0.00000000000E+00 0. -1.
         -1    1    3    3    0  502  0.32713800858E+03 -0.20690566379E+03 -0.53187423482E+02  0.39071489911E+03  0.00000000000E+00 0.  1.
         13    1    5    5    0    0 -0.25641462304E+03  0.15592899670E+03 -0.37475688546E+03  0.48010939807E+03  0.00000000000E+00 0.  1.
        -13    1    5    5    0    0 -0.29224521725E+03  0.28939679183E+03 -0.59041076350E+03  0.71954335504E+03  0.00000000000E+00 0. -1.
          4    1    6    6  503    0  0.40338269240E+02 -0.81930964150E+02 -0.13168677184E+03  0.16025375106E+03  0.00000000000E+00 0. -1.
         -4    1    6    6    0  503  0.13943601124E+03 -0.10882787142E+03 -0.51252447194E+03  0.54218745943E+03  0.00000000000E+00 0.  1.
<mgrwt>
<rscale>  0 0.16464137E+04</rscale>
<asrwt>0</asrwt>
<pdfrwt beam="1">  1        2 0.31270549E+00 0.16464137E+04</pdfrwt>
<pdfrwt beam="2">  1       -1 0.51292720E-01 0.16464137E+04</pdfrwt>
<totfact> 0.26664574E+01</totfact>
</mgrwt>
</event>
<event>
12    7  0.1544987E-007  0.2273818E+04  0.7818608E-02  0.8488316E-01
         -1   -1    0    0    0  501 -0.00000000000E+00  0.00000000000E+00  0.61617760368E+03  0.61617760368E+03  0.00000000000E+00 0.  1.
          2   -1    0    0  501    0  0.00000000000E+00 -0.00000000000E+00 -0.20977105763E+04  0.20977105763E+04  0.00000000000E+00 0. -1.
         24    2    1    2    0    0 -0.64399402023E+03  0.42747012644E+03  0.53410925076E+02  0.77862151883E+03  0.77069679962E+02 0.  0.
        254    2    1    2    0    0  0.64399402023E+03 -0.42747012644E+03 -0.15349438977E+04  0.19352666612E+04  0.88980069322E+03 0.  0.
         23    2    4    4    0    0  0.12568602640E+03 -0.10452807361E+03  0.82878875249E+02  0.20341374349E+03  0.88233483844E+02 0.  0.
         23    2    4    4    0    0  0.51830799383E+03 -0.32294205283E+03 -0.16178227730E+04  0.17318529177E+04  0.95022407104E+02 0.  0.
          2    1    3    3  502    0 -0.52401907293E+02  0.20420480512E+02  0.20179547094E+02  0.59750899853E+02  0.00000000000E+00 0. -1.
         -1    1    3    3    0  502 -0.59159211294E+03  0.40704964593E+03  0.33231377982E+02  0.71887061898E+03  0.00000000000E+00 0.  1.
         13    1    5    5    0    0  0.39486511945E+02 -0.75048129925E+02  0.74316099776E+01  0.85127171089E+02  0.00000000000E+00 0. -1.
        -13    1    5    5    0    0  0.86199514459E+02 -0.29479943683E+02  0.75447265272E+02  0.11828657240E+03  0.00000000000E+00 0.  1.
          3    1    6    6  503    0  0.71138673427E+02 -0.58614588051E+02 -0.34531255663E+03  0.35740333316E+03  0.00000000000E+00 0. -1.
         -3    1    6    6    0  503  0.44716932040E+03 -0.26432746478E+03 -0.12725102163E+04  0.13744495845E+04  0.00000000000E+00 0.  1.
<mgrwt>
<rscale>  0 0.22738182E+04</rscale>
<asrwt>0</asrwt>
<pdfrwt beam="1">  1        2 0.32272470E+00 0.22738182E+04</pdfrwt>
<pdfrwt beam="2">  1       -1 0.94796555E-01 0.22738182E+04</pdfrwt>
<totfact> 0.65554328E+00</totfact>
</mgrwt>
</event>
<event>
12    7  0.1544987E-007  0.1675257E+04  0.7818608E-02  0.8775604E-01
          2   -1    0    0  501    0  0.00000000000E+00  0.00000000000E+00  0.14407694577E+04  0.14407694577E+04  0.00000000000E+00 0. -1.
         -1   -1    0    0    0  501 -0.00000000000E+00 -0.00000000000E+00 -0.48697665165E+03  0.48697665165E+03  0.00000000000E+00 0.  1.
         24    2    1    2    0    0 -0.49756117665E+03  0.91516999851E+02 -0.32301162704E+02  0.51412377006E+03  0.85658625083E+02 0.  0.
        254    2    1    2    0    0  0.49756117665E+03 -0.91516999851E+02  0.98609396875E+03  0.14136223393E+04  0.87749889867E+03 0.  0.
         23    2    4    4    0    0  0.23852550698E+00  0.22620150116E+03  0.71904112130E+03  0.75941958828E+03  0.92362334917E+02 0.  0.
         23    2    4    4    0    0  0.49732265115E+03 -0.31771850101E+03  0.26705284744E+03  0.65420275101E+03  0.91592307961E+02 0.  0.
          4    1    3    3  502    0 -0.10544828322E+03  0.55254215931E+02 -0.41098159882E+00  0.11904846793E+03  0.00000000000E+00 0. -1.
         -3    1    3    3    0  502 -0.39211289344E+03  0.36262783921E+02 -0.31890181105E+02  0.39507530212E+03  0.00000000000E+00 0.  1.
         13    1    5    5    0    0 -0.29972200215E+02  0.10939226161E+03  0.45813511689E+03  0.47196693212E+03  0.00000000000E+00 0.  1.
        -13    1    5    5    0    0  0.30210725722E+02  0.11680923955E+03  0.26090600442E+03  0.28745265616E+03  0.00000000000E+00 0. -1.
          2    1    6    6  503    0  0.22578295028E+03 -0.11861890250E+03  0.15913563925E+03  0.30062025272E+03  0.00000000000E+00 0.  1.
         -2    1    6    6    0  503  0.27153970086E+03 -0.19909959851E+03  0.10791720819E+03  0.35358249829E+03  0.00000000000E+00 0. -1.
<mgrwt>
<rscale>  0 0.16752565E+04</rscale>
<asrwt>0</asrwt>
<pdfrwt beam="1">  1        2 0.22165684E+00 0.16752565E+04</pdfrwt>
<pdfrwt beam="2">  1       -1 0.74919486E-01 0.16752565E+04</pdfrwt>
<totfact> 0.26702780E+01</totfact>
</mgrwt>
</event>
<event>
12    7  0.1544987E-007  0.2202775E+04  0.7818608E-02  0.8517274E-01
          2   -1    0    0  501    0  0.00000000000E+00  0.00000000000E+00  0.82747491800E+03  0.82747491800E+03  0.00000000000E+00 0. -1.
         -1   -1    0    0    0  501 -0.00000000000E+00 -0.00000000000E+00 -0.14659707318E+04  0.14659707318E+04  0.00000000000E+00 0.  1.
         24    2    1    2    0    0 -0.85007409802E+03 -0.12372673410E+03 -0.58406593900E+03  0.10418708538E+04  0.80172176998E+02 0.  0.
        254    2    1    2    0    0  0.85007409802E+03  0.12372673410E+03 -0.54429874822E+02  0.12515747961E+04  0.90859373868E+03 0.  0.
         23    2    4    4    0    0  0.51719115951E+03 -0.33632549573E+03  0.14993076602E+03  0.64137191203E+03  0.90978900767E+02 0.  0.
         23    2    4    4    0    0  0.33288293851E+03  0.46005222983E+03 -0.20436064084E+03  0.61020288402E+03  0.90139798223E+02 0.  0.
          4    1    3    3  502    0 -0.82877588517E+03 -0.11581966812E+03 -0.58144738329E+03  0.10190018267E+04  0.00000000000E+00 0. -1.
         -3    1    3    3    0  502 -0.21298212849E+02 -0.79070659789E+01 -0.26185557098E+01  0.22869027022E+02  0.00000000000E+00 0.  1.
         13    1    5    5    0    0  0.71905706028E+02 -0.22683078506E+02 -0.36170121832E+01  0.75485332265E+02  0.00000000000E+00 0.  1.
        -13    1    5    5    0    0  0.44528545348E+03 -0.31364241722E+03  0.15354777820E+03  0.56588657976E+03  0.00000000000E+00 0. -1.
          3    1    6    6  503    0  0.19185278012E+03  0.32850955027E+03 -0.11337951846E+03  0.39696464460E+03  0.00000000000E+00 0. -1.
         -3    1    6    6    0  503  0.14103015839E+03  0.13154267956E+03 -0.90981122389E+02  0.21323823942E+03  0.00000000000E+00 0.  1.
<mgrwt>
<rscale>  0 0.22027746E+04</rscale>
<asrwt>0</asrwt>
<pdfrwt beam="1">  1        2 0.12730383E+00 0.22027746E+04</pdfrwt>
<pdfrwt beam="2">  1       -1 0.22553396E+00 0.22027746E+04</pdfrwt>
<totfact> 0.34684946E+00</totfact>
</mgrwt>
</event>
<event>
12    7  0.1544987E-007  0.1246617E+04  0.7818608E-02  0.9073004E-01
         -1   -1    0    0    0  501 -0.00000000000E+00  0.00000000000E+00  0.46353295427E+03  0.46353295427E+03  0.00000000000E+00 0.  1.
          2   -1    0    0  501    0  0.00000000000E+00 -0.00000000000E+00 -0.83815725048E+03  0.83815725048E+03  0.00000000000E+00 0. -1.
         24    2    1    2    0    0 -0.76266904037E+02 -0.19422065659E+03  0.11936884215E+03  0.25194557953E+03  0.75427783154E+02 0.  0.
        254    2    1    2    0    0  0.76266904037E+02  0.19422065659E+03 -0.49399313835E+03  0.10497446252E+04  0.90243905796E+03 0.  0.
         23    2    4    4    0    0 -0.15975711333E+03 -0.30526380472E+03 -0.11446660911E+03  0.37440940146E+03  0.91495735261E+02 0.  0.
         23    2    4    4    0    0  0.23602401737E+03  0.49948446131E+03 -0.37952652924E+03  0.67533522376E+03  0.82735809547E+02 0.  0.
          4    1    3    3  502    0 -0.30039598392E+02 -0.54912292382E+02 -0.25914264160E+00  0.62592367595E+02  0.00000000000E+00 0. -1.
         -3    1    3    3    0  502 -0.46227305645E+02 -0.13930836421E+03  0.11962798479E+03  0.18935321194E+03  0.00000000000E+00 0.  1.
         13    1    5    5    0    0 -0.24706597942E+02 -0.13183399705E+03 -0.65242600096E+02  0.14915500537E+03  0.00000000000E+00 0.  1.
        -13    1    5    5    0    0 -0.13505051539E+03 -0.17342980767E+03 -0.49224009013E+02  0.22525439609E+03  0.00000000000E+00 0. -1.
          3    1    6    6  503    0  0.90159432808E+02  0.11782769705E+03 -0.12462678103E+03  0.19376254557E+03  0.00000000000E+00 0. -1.
         -3    1    6    6    0  503  0.14586458456E+03  0.38165676426E+03 -0.25489974821E+03  0.48157267819E+03  0.00000000000E+00 0.  1.
<mgrwt>
<rscale>  0 0.12466170E+04</rscale>
<asrwt>0</asrwt>
<pdfrwt beam="1">  1        2 0.12894727E+00 0.12466170E+04</pdfrwt>
<pdfrwt beam="2">  1       -1 0.71312763E-01 0.12466170E+04</pdfrwt>
<totfact> 0.72156650E+01</totfact>
</mgrwt>
</event>
<event>
12    7  0.1544987E-007  0.3840782E+04  0.7818608E-02  0.8037459E-01
          2   -1    0    0  501    0  0.00000000000E+00  0.00000000000E+00  0.16456233540E+04  0.16456233540E+04  0.00000000000E+00 0. -1.
         -1   -1    0    0    0  501 -0.00000000000E+00 -0.00000000000E+00 -0.22410359594E+04  0.22410359594E+04  0.00000000000E+00 0.  1.
         24    2    1    2    0    0 -0.10187503044E+04 -0.11598309080E+04 -0.12472556570E+04  0.19862309124E+04  0.80041523381E+02 0.  0.
        254    2    1    2    0    0  0.10187503044E+04  0.11598309080E+04  0.65184305163E+03  0.19004284010E+04  0.89647578072E+03 0.  0.
         23    2    4    4    0    0 -0.85860706291E+02  0.44893705295E+03  0.19491948484E+03  0.50582812442E+03  0.94614731911E+02 0.  0.
         23    2    4    4    0    0  0.11046110106E+04  0.71089385508E+03  0.45692356680E+03  0.13946002766E+04  0.10293312112E+03 0.  0.
          2    1    3    3  502    0 -0.65404695121E+03 -0.80054900433E+03 -0.82447769275E+03  0.13222781812E+04  0.00000000000E+00 0. -1.
         -1    1    3    3    0  502 -0.36470335314E+03 -0.35928190370E+03 -0.42277796426E+03  0.66395273114E+03  0.00000000000E+00 0.  1.
         13    1    5    5    0    0 -0.79370677371E+02  0.34212002354E+03  0.18856441765E+03  0.39862558189E+03  0.00000000000E+00 0. -1.
        -13    1    5    5    0    0 -0.64900289192E+01  0.10681702940E+03  0.63550671879E+01  0.10720254253E+03  0.00000000000E+00 0.  1.
          3    1    6    6  503    0  0.43201450700E+03  0.30672819232E+03  0.13743119302E+03  0.54736281481E+03  0.00000000000E+00 0. -1.
         -3    1    6    6    0  503  0.67259650365E+03  0.40416566276E+03  0.31949237377E+03  0.84723746174E+03  0.00000000000E+00 0.  1.
<mgrwt>
<rscale>  0 0.38407817E+04</rscale>
<asrwt>0</asrwt>
<pdfrwt beam="1">  1        2 0.25317282E+00 0.38407817E+04</pdfrwt>
<pdfrwt beam="2">  1       -1 0.34477476E+00 0.38407817E+04</pdfrwt>
<totfact> 0.16092205E-01</totfact>
</mgrwt>
</event>
<event>
12    7  0.1544987E-007  0.2975100E+04  0.7818608E-02  0.8250877E-01
         -1   -1    0    0    0  501 -0.00000000000E+00  0.00000000000E+00  0.15562229664E+04  0.15562229664E+04  0.00000000000E+00 0.  1.
          2   -1    0    0  501    0  0.00000000000E+00 -0.00000000000E+00 -0.14219070793E+04  0.14219070793E+04  0.00000000000E+00 0. -1.
         24    2    1    2    0    0 -0.34570174131E+03  0.63538690103E+03  0.11964611027E+04  0.14002927383E+04  0.77938274426E+02 0.  0.
        254    2    1    2    0    0  0.34570174131E+03 -0.63538690103E+03 -0.10621452156E+04  0.15778373074E+04  0.91552820909E+03 0.  0.
         23    2    4    4    0    0  0.63306144373E+03 -0.55178558016E+03 -0.69692788564E+03  0.10951968837E+04  0.92269270957E+02 0.  0.
         23    2    4    4    0    0 -0.28735970241E+03 -0.83601320866E+02 -0.36521732994E+03  0.48264042364E+03  0.99966499501E+02 0.  0.
          4    1    3    3  502    0 -0.31012826566E+02  0.64116489446E+02  0.16784632159E+03  0.18233240881E+03  0.00000000000E+00 0. -1.
         -3    1    3    3    0  502 -0.31468891475E+03  0.57127041158E+03  0.10286147811E+04  0.12179603295E+04  0.00000000000E+00 0.  1.
         13    1    5    5    0    0  0.44502303244E+03 -0.43994612462E+03 -0.50406410946E+03  0.80354136074E+03  0.00000000000E+00 0. -1.
        -13    1    5    5    0    0  0.18803841128E+03 -0.11183945554E+03 -0.19286377618E+03  0.29165552300E+03  0.00000000000E+00 0.  1.
          4    1    6    6  503    0 -0.62267883958E+02  0.92346698723E+01 -0.12831203656E+03  0.14292147224E+03  0.00000000000E+00 0. -1.
         -4    1    6    6    0  503 -0.22509181846E+03 -0.92835990738E+02 -0.23690529338E+03  0.33971895141E+03  0.00000000000E+00 0.  1.
<mgrwt>
<rscale>  0 0.29750996E+04</rscale>
<asrwt>0</asrwt>
<pdfrwt beam="1">  1        2 0.21875494E+00 0.29750996E+04</pdfrwt>
<pdfrwt beam="2">  1       -1 0.23941892E+00 0.29750996E+04</pdfrwt>
<totfact> 0.11232652E+00</totfact>
</mgrwt>
</event>
<event>
12    7  0.1544987E-007  0.1745526E+04  0.7818608E-02  0.8735817E-01
         -1   -1    0    0    0  501 -0.00000000000E+00  0.00000000000E+00  0.60436075171E+03  0.60436075171E+03  0.00000000000E+00 0.  1.
          2   -1    0    0  501    0  0.00000000000E+00 -0.00000000000E+00 -0.12603656981E+04  0.12603656981E+04  0.00000000000E+00 0. -1.
         24    2    1    2    0    0  0.24688669232E+03 -0.40974895787E+03 -0.68571711582E+03  0.83967442382E+03  0.77446289585E+02 0.  0.
        254    2    1    2    0    0 -0.24688669232E+03  0.40974895787E+03  0.29712169425E+02  0.10250520260E+04  0.90609138374E+03 0.  0.
         23    2    4    4    0    0 -0.48842428376E+03  0.32450272164E+03 -0.24161609898E+03  0.64076689473E+03  0.91343181325E+02 0.  0.
         23    2    4    4    0    0  0.24153759144E+03  0.85246236229E+02  0.27132826841E+03  0.38428513128E+03  0.91916832057E+02 0.  0.
          2    1    3    3  502    0  0.18585355251E+03 -0.33156506672E+03 -0.58998208911E+03  0.70182319848E+03  0.00000000000E+00 0. -1.
         -1    1    3    3    0  502  0.61033139804E+02 -0.78183891146E+02 -0.95735026718E+02  0.13785122535E+03  0.00000000000E+00 0.  1.
         13    1    5    5    0    0 -0.30327476559E+03  0.15458419117E+03 -0.11447175099E+03  0.35913178274E+03  0.00000000000E+00 0. -1.
        -13    1    5    5    0    0 -0.18514951817E+03  0.16991853047E+03 -0.12714434799E+03  0.28163511198E+03  0.00000000000E+00 0.  1.
          1    1    6    6  503    0  0.69886553258E+02  0.56664942963E+01  0.26699022107E+02  0.75027176845E+02  0.00000000000E+00 0. -1.
         -1    1    6    6    0  503  0.17165103818E+03  0.79579741933E+02  0.24462924630E+03  0.30925795443E+03  0.00000000000E+00 0.  1.
<mgrwt>
<rscale>  0 0.17455264E+04</rscale>
<asrwt>0</asrwt>
<pdfrwt beam="1">  1        2 0.19390241E+00 0.17455264E+04</pdfrwt>
<pdfrwt beam="2">  1       -1 0.92978578E-01 0.17455264E+04</pdfrwt>
<totfact> 0.21185731E+01</totfact>
</mgrwt>
</event>
<event>
12    7  0.1544987E-007  0.1756607E+04  0.7818608E-02  0.8729722E-01
          2   -1    0    0  501    0  0.00000000000E+00  0.00000000000E+00  0.71250985226E+03  0.71250985226E+03  0.00000000000E+00 0. -1.
         -1   -1    0    0    0  501 -0.00000000000E+00 -0.00000000000E+00 -0.10826761602E+04  0.10826761602E+04  0.00000000000E+00 0.  1.
         24    2    1    2    0    0 -0.35387979741E+03  0.28881563020E+03 -0.59921616161E+03  0.75779610510E+03  0.80929285850E+02 0.  0.
        254    2    1    2    0    0  0.35387979741E+03 -0.28881563020E+03  0.22904985367E+03  0.10373899074E+04  0.90281150037E+03 0.  0.
         23    2    4    4    0    0 -0.23221934055E+03 -0.33406652886E+03  0.82640999201E+02  0.42457601826E+03  0.88932517662E+02 0.  0.
         23    2    4    4    0    0  0.58609913796E+03  0.45250898666E+02  0.14640885447E+03  0.61281388911E+03  0.92441693416E+02 0.  0.
          4    1    3    3  502    0 -0.19426046455E+03  0.17036396624E+03 -0.40137284908E+03  0.47734806280E+03  0.00000000000E+00 0. -1.
         -3    1    3    3    0  502 -0.15961933286E+03  0.11845166396E+03 -0.19784331253E+03  0.28044804230E+03  0.00000000000E+00 0.  1.
         13    1    5    5    0    0 -0.26512645255E+02 -0.33762796999E+01  0.15391065643E+01  0.26771037933E+02  0.00000000000E+00 0. -1.
        -13    1    5    5    0    0 -0.20570669530E+03 -0.33069024916E+03  0.81101892636E+02  0.39780498032E+03  0.00000000000E+00 0.  1.
          4    1    6    6  503    0  0.46079352073E+01 -0.53368120585E+01  0.11894115466E+02  0.13826952396E+02  0.00000000000E+00 0. -1.
         -4    1    6    6    0  503  0.58149120275E+03  0.50587710725E+02  0.13451473900E+03  0.59898693672E+03  0.00000000000E+00 0.  1.
<mgrwt>
<rscale>  0 0.17566074E+04</rscale>
<asrwt>0</asrwt>
<pdfrwt beam="1">  1        2 0.10961690E+00 0.17566074E+04</pdfrwt>
<pdfrwt beam="2">  1       -1 0.16656556E+00 0.17566074E+04</pdfrwt>
<totfact> 0.11304614E+01</totfact>
</mgrwt>
</event>
<event>
12    7  0.1544987E-007  0.3192127E+04  0.7818608E-02  0.8190899E-01
         -1   -1    0    0    0  501 -0.00000000000E+00  0.00000000000E+00  0.16615555364E+04  0.16615555364E+04  0.00000000000E+00 0.  1.
          2   -1    0    0  501    0  0.00000000000E+00 -0.00000000000E+00 -0.15331533675E+04  0.15331533675E+04  0.00000000000E+00 0. -1.
         24    2    1    2    0    0  0.83993998225E+03 -0.77981120522E+03  0.97277741886E+03  0.15052852104E+04  0.77349650679E+02 0.  0.
        254    2    1    2    0    0 -0.83993998225E+03  0.77981120522E+03 -0.84437524995E+03  0.16894236935E+04  0.90971323171E+03 0.  0.
         23    2    4    4    0    0 -0.80758276314E+03  0.47092951878E+03 -0.96207521072E+03  0.13446232333E+04  0.91969545952E+02 0.  0.
         23    2    4    4    0    0 -0.32357219101E+02  0.30888168645E+03  0.11769996076E+03  0.34480046026E+03  0.92623921211E+02 0.  0.
          2    1    3    3  502    0  0.28781269965E+03 -0.23606806865E+03  0.35297198434E+03  0.51298489729E+03  0.00000000000E+00 0. -1.
         -1    1    3    3    0  502  0.55212728259E+03 -0.54374313657E+03  0.61980543452E+03  0.99230031312E+03  0.00000000000E+00 0.  1.
         13    1    5    5    0    0 -0.11122793653E+03  0.10144055034E+03 -0.13811956707E+03  0.20430089066E+03  0.00000000000E+00 0. -1.
        -13    1    5    5    0    0 -0.69635482662E+03  0.36948896844E+03 -0.82395564365E+03  0.11403223426E+04  0.00000000000E+00 0.  1.
          1    1    6    6  503    0 -0.53685881585E+02  0.96385832727E+02  0.45818704356E+02  0.11946445622E+03  0.00000000000E+00 0. -1.
         -1    1    6    6    0  503  0.21328662484E+02  0.21249585372E+03  0.71881256408E+02  0.22533600403E+03  0.00000000000E+00 0.  1.
<mgrwt>
<rscale>  0 0.31921275E+04</rscale>
<asrwt>0</asrwt>
<pdfrwt beam="1">  1        2 0.23586975E+00 0.31921275E+04</pdfrwt>
<pdfrwt beam="2">  1       -1 0.25562393E+00 0.31921275E+04</pdfrwt>
<totfact> 0.74726581E-01</totfact>
</mgrwt>
</event>
<event>
12    7  0.1917627E-007  0.1868616E+04  0.7818608E-02  0.8670638E-01
         -1   -1    0    0    0  501 -0.00000000000E+00  0.00000000000E+00  0.29664163435E+03  0.29664163435E+03  0.00000000000E+00 0.  1.
          2   -1    0    0  501    0  0.00000000000E+00 -0.00000000000E+00 -0.29427131432E+04  0.29427131432E+04  0.00000000000E+00 0. -1.
         24    2    1    2    0    0 -0.52338465159E+03 -0.16239375715E+02 -0.18559253870E+04  0.19300115480E+04  0.79311554222E+02 0.  0.
        254    2    1    2    0    0  0.52338465159E+03  0.16239375715E+02 -0.79014612190E+03  0.13093432296E+04  0.90324613920E+03 0.  0.
         23    2    4    4    0    0  0.22865837759E+03  0.24035111684E+03  0.84276748909E+02  0.35537061240E+03  0.95563532479E+02 0.  0.
         23    2    4    4    0    0  0.29472627400E+03 -0.22411174113E+03 -0.87442287081E+03  0.95397261715E+03  0.91426189862E+02 0.  0.
          4    1    3    3  502    0 -0.35802782356E+03 -0.12227821166E+02 -0.11274952871E+04  0.11830380656E+04  0.00000000000E+00 0. -1.
         -3    1    3    3    0  502 -0.16535682803E+03 -0.40115545489E+01 -0.72843009986E+03  0.74697348248E+03  0.00000000000E+00 0.  1.
         13    1    5    5    0    0  0.24026378347E+02  0.20608453004E+02 -0.20078834993E+02  0.37485127802E+02  0.00000000000E+00 0. -1.
        -13    1    5    5    0    0  0.20463199924E+03  0.21974266384E+03  0.10435558390E+03  0.31788548460E+03  0.00000000000E+00 0.  1.
          2    1    6    6  503    0  0.11327858124E+03 -0.74958761292E+02 -0.21868995116E+03  0.25744154211E+03  0.00000000000E+00 0. -1.
         -2    1    6    6    0  503  0.18144769275E+03 -0.14915297983E+03 -0.65573291965E+03  0.69653107505E+03  0.00000000000E+00 0.  1.
<mgrwt>
<rscale>  0 0.18686158E+04</rscale>
<asrwt>0</asrwt>
<pdfrwt beam="1">  1        2 0.45272510E+00 0.18686158E+04</pdfrwt>
<pdfrwt beam="2">  1       -1 0.45637174E-01 0.18686158E+04</pdfrwt>
<totfact> 0.96675886E+00</totfact>
</mgrwt>
</event>
<event>
12    7  0.1544987E-007  0.2157129E+04  0.7818608E-02  0.8536487E-01
          2   -1    0    0  501    0  0.00000000000E+00  0.00000000000E+00  0.37106162520E+04  0.37106162520E+04  0.00000000000E+00 0. -1.
         -1   -1    0    0    0  501 -0.00000000000E+00 -0.00000000000E+00 -0.31350623317E+03  0.31350623317E+03  0.00000000000E+00 0.  1.
         24    2    1    2    0    0  0.17361701601E+03 -0.39189428292E+01 -0.21988638334E+03  0.29187431594E+03  0.81745754432E+02 0.  0.
        254    2    1    2    0    0 -0.17361701601E+03  0.39189428292E+01  0.36169964022E+04  0.37322481692E+04  0.90380041877E+03 0.  0.
         23    2    4    4    0    0  0.34746087307E+03 -0.38759378533E+02  0.19168160110E+04  0.19511657091E+04  0.10311477418E+03 0.  0.
         23    2    4    4    0    0 -0.52107788907E+03  0.42678321362E+02  0.17001803912E+04  0.17810824601E+04  0.91092050083E+02 0.  0.
          2    1    3    3  502    0  0.51333753558E+02  0.36573070191E+02 -0.67939028402E+02  0.92673919188E+02  0.00000000000E+00 0. -1.
         -1    1    3    3    0  502  0.12228326245E+03 -0.40492013021E+02 -0.15194735494E+03  0.19920039675E+03  0.00000000000E+00 0.  1.
         13    1    5    5    0    0  0.14063636774E+03 -0.63677077821E+02  0.72139829164E+03  0.73773223689E+03  0.00000000000E+00 0. -1.
        -13    1    5    5    0    0  0.20682450533E+03  0.24917699289E+02  0.11954177193E+04  0.12134334722E+04  0.00000000000E+00 0.  1.
          2    1    6    6  503    0 -0.52400096703E+03  0.43065870453E+02  0.16712261016E+04  0.17519784147E+04  0.00000000000E+00 0. -1.
         -2    1    6    6    0  503  0.29230779513E+01 -0.38754909083E+00  0.28954289560E+02  0.29104045473E+02  0.00000000000E+00 0.  1.
<mgrwt>
<rscale>  0 0.21571289E+04</rscale>
<asrwt>0</asrwt>
<pdfrwt beam="1">  1        2 0.57086401E+00 0.21571289E+04</pdfrwt>
<pdfrwt beam="2">  1       -1 0.48231731E-01 0.21571289E+04</pdfrwt>
<totfact> 0.25856494E+00</totfact>
</mgrwt>
</event>
<event>
12    7  0.1544987E-007  0.1073986E+04  0.7818608E-02  0.9230925E-01
         -1   -1    0    0    0  501 -0.00000000000E+00  0.00000000000E+00  0.86108920654E+02  0.86108920654E+02  0.00000000000E+00 0.  1.
          2   -1    0    0  501    0  0.00000000000E+00 -0.00000000000E+00 -0.33487967756E+04  0.33487967756E+04  0.00000000000E+00 0. -1.
         24    2    1    2    0    0  0.22028698534E+02 -0.78836103465E+02 -0.93187931709E+03  0.93790849329E+03  0.67623112952E+02 0.  0.
        254    2    1    2    0    0 -0.22028698534E+02  0.78836103465E+02 -0.23308085378E+04  0.24969972029E+04  0.89197880954E+03 0.  0.
         23    2    4    4    0    0 -0.27697332331E+03 -0.29265471437E+03 -0.82765138638E+03  0.92510343810E+03  0.91915995053E+02 0.  0.
         23    2    4    4    0    0  0.25494462478E+03  0.37149081783E+03 -0.15031571514E+04  0.15718937648E+04  0.91468008174E+02 0.  0.
          2    1    3    3  502    0  0.28140380553E+02 -0.81665396735E+02 -0.92147524978E+03  0.92551485888E+03  0.00000000000E+00 0. -1.
         -1    1    3    3    0  502 -0.61116820192E+01  0.28292932709E+01 -0.10404067306E+02  0.12393634416E+02  0.00000000000E+00 0.  1.
         13    1    5    5    0    0 -0.27462620838E+03 -0.25278373069E+03 -0.75339687570E+03  0.84078892782E+03  0.00000000000E+00 0.  1.
        -13    1    5    5    0    0 -0.23471149303E+01 -0.39870983678E+02 -0.74254510680E+02  0.84314510283E+02  0.00000000000E+00 0. -1.
          3    1    6    6  503    0  0.57249422920E+02  0.13998205400E+03 -0.60184625464E+03  0.62055731894E+03  0.00000000000E+00 0. -1.
         -3    1    6    6    0  503  0.19769520186E+03  0.23150876383E+03 -0.90131089680E+03  0.95133644588E+03  0.00000000000E+00 0.  1.
<mgrwt>
<rscale>  0 0.10739856E+04</rscale>
<asrwt>0</asrwt>
<pdfrwt beam="1">  1        2 0.51519947E+00 0.10739856E+04</pdfrwt>
<pdfrwt beam="2">  1       -1 0.13247527E-01 0.10739856E+04</pdfrwt>
<totfact> 0.48480285E+01</totfact>
</mgrwt>
</event>
<event>
12    7  0.1544987E-007  0.1585643E+04  0.7818608E-02  0.8829417E-01
         -1   -1    0    0    0  501 -0.00000000000E+00  0.00000000000E+00  0.72043838730E+03  0.72043838730E+03  0.00000000000E+00 0.  1.
          2   -1    0    0  501    0  0.00000000000E+00 -0.00000000000E+00 -0.87247690816E+03  0.87247690816E+03  0.00000000000E+00 0. -1.
         24    2    1    2    0    0  0.10565716920E+03 -0.12397497184E+03  0.44053900471E+03  0.47656340001E+03  0.80652517133E+02 0.  0.
        254    2    1    2    0    0 -0.10565716920E+03  0.12397497184E+03 -0.59257752557E+03  0.11163518954E+04  0.93196577170E+03 0.  0.
         23    2    4    4    0    0 -0.57063265236E+02 -0.25116597135E+03 -0.66652371225E+03  0.72046378195E+03  0.92052380250E+02 0.  0.
         23    2    4    4    0    0 -0.48593903964E+02  0.37514094318E+03  0.73946186680E+02  0.39588811349E+03  0.90372922523E+02 0.  0.
          2    1    3    3  502    0  0.49944628247E+02 -0.62410859832E+02  0.11138935620E+03  0.13710277164E+03  0.00000000000E+00 0. -1.
         -1    1    3    3    0  502  0.55712540953E+02 -0.61564112003E+02  0.32914964851E+03  0.33946062838E+03  0.00000000000E+00 0.  1.
         13    1    5    5    0    0  0.24376288312E+02 -0.77281406756E+02 -0.17886405836E+03  0.19636438229E+03  0.00000000000E+00 0.  1.
        -13    1    5    5    0    0 -0.81439553548E+02 -0.17388456459E+03 -0.48765965389E+03  0.52409939966E+03  0.00000000000E+00 0. -1.
          4    1    6    6  503    0 -0.18528426797E+02  0.34129541130E+03  0.52544153102E+02  0.34581316979E+03  0.00000000000E+00 0. -1.
         -4    1    6    6    0  503 -0.30065477168E+02  0.33845531886E+02  0.21402033578E+02  0.50074943707E+02  0.00000000000E+00 0.  1.
<mgrwt>
<rscale>  0 0.15856429E+04</rscale>
<asrwt>0</asrwt>
<pdfrwt beam="1">  1        2 0.13422722E+00 0.15856429E+04</pdfrwt>
<pdfrwt beam="2">  1       -1 0.11083667E+00 0.15856429E+04</pdfrwt>
<totfact> 0.25155466E+01</totfact>
</mgrwt>
</event>
<event>
12    7  0.1544987E-007  0.4042618E+04  0.7818608E-02  0.7996004E-01
          2   -1    0    0  501    0  0.00000000000E+00  0.00000000000E+00  0.18559326452E+04  0.18559326452E+04  0.00000000000E+00 0. -1.
         -1   -1    0    0    0  501 -0.00000000000E+00 -0.00000000000E+00 -0.22014211488E+04  0.22014211488E+04  0.00000000000E+00 0.  1.
         24    2    1    2    0    0 -0.11839891744E+04  0.18546375847E+02 -0.16791453460E+04  0.20562001797E+04  0.79093316365E+02 0.  0.
        254    2    1    2    0    0  0.11839891744E+04 -0.18546375847E+02  0.13336568423E+04  0.20011536144E+04  0.90763477346E+03 0.  0.
         23    2    4    4    0    0 -0.26893881457E+02  0.22347340198E+02 -0.85757222484E+02  0.13292237793E+03  0.95348690980E+02 0.  0.
         23    2    4    4    0    0  0.12108830559E+04 -0.40893716044E+02  0.14194140648E+04  0.18682312364E+04  0.87416213610E+02 0.  0.
          4    1    3    3  502    0 -0.64145907285E+03  0.37102219222E+02 -0.86036207894E+03  0.10738106088E+04  0.00000000000E+00 0. -1.
         -3    1    3    3    0  502 -0.54253010155E+03 -0.18555843376E+02 -0.81878326706E+03  0.98238957081E+03  0.00000000000E+00 0.  1.
         13    1    5    5    0    0 -0.10913447686E+02  0.77943297159E+00 -0.10131006342E+03  0.10189916489E+03  0.00000000000E+00 0. -1.
        -13    1    5    5    0    0 -0.15980433771E+02  0.21567907226E+02  0.15552840935E+02  0.31023213031E+02  0.00000000000E+00 0.  1.
          1    1    6    6  503    0  0.81644478233E+03 -0.46254810099E+02  0.90042199901E+03  0.12163393303E+04  0.00000000000E+00 0. -1.
         -1    1    6    6    0  503  0.39443827353E+03  0.53610940545E+01  0.51899206580E+03  0.65189190616E+03  0.00000000000E+00 0.  1.
<mgrwt>
<rscale>  0 0.40426177E+04</rscale>
<asrwt>0</asrwt>
<pdfrwt beam="1">  1        2 0.28552810E+00 0.40426177E+04</pdfrwt>
<pdfrwt beam="2">  1       -1 0.33868018E+00 0.40426177E+04</pdfrwt>
<totfact> 0.13266193E-01</totfact>
</mgrwt>
</event>
<event>
12    7  0.1544987E-007  0.1378455E+04  0.7818608E-02  0.8969563E-01
          2   -1    0    0  501    0  0.00000000000E+00  0.00000000000E+00  0.23273431714E+04  0.23273431714E+04  0.00000000000E+00 0. -1.
         -1   -1    0    0    0  501 -0.00000000000E+00 -0.00000000000E+00 -0.20411014516E+03  0.20411014516E+03  0.00000000000E+00 0.  1.
         24    2    1    2    0    0  0.57417840387E+02  0.85641806431E+02 -0.69903148671E+02  0.15759720679E+03  0.96535496008E+02 0.  0.
        254    2    1    2    0    0 -0.57417840387E+02 -0.85641806431E+02  0.21931361750E+04  0.23738561098E+04  0.90261576588E+03 0.  0.
         23    2    4    4    0    0  0.32074238120E+03 -0.25757824298E+03  0.65900600704E+03  0.78189302131E+03  0.88575126853E+02 0.  0.
         23    2    4    4    0    0 -0.37816022159E+03  0.17193643655E+03  0.15341301679E+04  0.15919630885E+04  0.90685234006E+02 0.  0.
          2    1    3    3  502    0  0.17124373422E+02  0.69914377893E+02  0.38633099770E+01  0.72084600056E+02  0.00000000000E+00 0. -1.
         -1    1    3    3    0  502  0.40293466965E+02  0.15727428538E+02 -0.73766458648E+02  0.85512606731E+02  0.00000000000E+00 0.  1.
         13    1    5    5    0    0  0.14497916643E+03 -0.61796673467E+02  0.23902584460E+03  0.28630602847E+03  0.00000000000E+00 0. -1.
        -13    1    5    5    0    0  0.17576321478E+03 -0.19578156952E+03  0.41998016244E+03  0.49558699284E+03  0.00000000000E+00 0.  1.
          2    1    6    6  503    0 -0.19616818883E+03  0.12249823053E+03  0.96815339163E+03  0.99539377360E+03  0.00000000000E+00 0.  1.
         -2    1    6    6    0  503 -0.18199203275E+03  0.49438206021E+02  0.56597677629E+03  0.59656931491E+03  0.00000000000E+00 0. -1.
<mgrwt>
<rscale>  0 0.13784547E+04</rscale>
<asrwt>0</asrwt>
<pdfrwt beam="1">  1        2 0.35805278E+00 0.13784547E+04</pdfrwt>
<pdfrwt beam="2">  1       -1 0.31401562E-01 0.13784547E+04</pdfrwt>
<totfact> 0.45836975E+01</totfact>
</mgrwt>
</event>
<event>
12    7  0.1544987E-007  0.1471758E+04  0.7818608E-02  0.8903454E-01
         -1   -1    0    0    0  501 -0.00000000000E+00  0.00000000000E+00  0.33427556929E+04  0.33427556929E+04  0.00000000000E+00 0.  1.
          2   -1    0    0  501    0  0.00000000000E+00 -0.00000000000E+00 -0.16199742353E+03  0.16199742353E+03  0.00000000000E+00 0. -1.
         24    2    1    2    0    0 -0.55256090919E+02  0.42691394550E+03  0.65505800997E+03  0.78943512004E+03  0.93797973695E+02 0.  0.
        254    2    1    2    0    0  0.55256090919E+02 -0.42691394550E+03  0.25257002594E+04  0.27153179964E+04  0.89915586457E+03 0.  0.
         23    2    4    4    0    0 -0.31084347062E+03 -0.34129794102E+03  0.66460721249E+03  0.81444882652E+03  0.92283239794E+02 0.  0.
         23    2    4    4    0    0  0.36609956154E+03 -0.85616004481E+02  0.18610930469E+04  0.19008691699E+04  0.90979572319E+02 0.  0.
          4    1    3    3  502    0 -0.60626487804E+02  0.24566301804E+03  0.44524974436E+03  0.51212618007E+03  0.00000000000E+00 0. -1.
         -3    1    3    3    0  502  0.53703968843E+01  0.18125092746E+03  0.20980826561E+03  0.27730893997E+03  0.00000000000E+00 0.  1.
         13    1    5    5    0    0 -0.47526505206E+02 -0.10249086652E+03  0.19656070261E+03  0.22671404065E+03  0.00000000000E+00 0.  1.
        -13    1    5    5    0    0 -0.26331696541E+03 -0.23880707450E+03  0.46804650989E+03  0.58773478587E+03  0.00000000000E+00 0. -1.
          4    1    6    6  503    0  0.11933597340E+03 -0.30073458179E+01  0.76840551288E+03  0.77762275616E+03  0.00000000000E+00 0. -1.
         -4    1    6    6    0  503  0.24676358814E+03 -0.82608658663E+02  0.10926875340E+04  0.11232464137E+04  0.00000000000E+00 0.  1.
<mgrwt>
<rscale>  0 0.14717579E+04</rscale>
<asrwt>0</asrwt>
<pdfrwt beam="1">  1        2 0.24922683E-01 0.14717579E+04</pdfrwt>
<pdfrwt beam="2">  1       -1 0.51427005E+00 0.14717579E+04</pdfrwt>
<totfact> 0.29516512E-01</totfact>
</mgrwt>
</event>
<event>
12    7  0.1544987E-007  0.1906945E+04  0.7818608E-02  0.8651407E-01
          2   -1    0    0  501    0  0.00000000000E+00  0.00000000000E+00  0.11596508229E+04  0.11596508229E+04  0.00000000000E+00 0. -1.
         -1   -1    0    0    0  501 -0.00000000000E+00 -0.00000000000E+00 -0.78395159975E+03  0.78395159975E+03  0.00000000000E+00 0.  1.
         24    2    1    2    0    0  0.26033454604E+03 -0.46643035918E+03 -0.36652343963E+03  0.65278451133E+03  0.80354406257E+02 0.  0.
        254    2    1    2    0    0 -0.26033454604E+03  0.46643035918E+03  0.74222266279E+03  0.12908179113E+04  0.91103514929E+03 0.  0.
         23    2    4    4    0    0 -0.44939469336E+03  0.15713513899E+03  0.28828358267E+02  0.48531062251E+03  0.89712227459E+02 0.  0.
         23    2    4    4    0    0  0.18906014731E+03  0.30929522018E+03  0.71339430452E+03  0.80550728882E+03  0.92213264198E+02 0.  0.
          2    1    3    3  502    0  0.19245583532E+02 -0.73786818185E+02 -0.78366040428E+02  0.10934405935E+03  0.00000000000E+00 0. -1.
         -1    1    3    3    0  502  0.24108896251E+03 -0.39264354099E+03 -0.28815739920E+03  0.54344045197E+03  0.00000000000E+00 0.  1.
         13    1    5    5    0    0 -0.99806137364E+02  0.73317840815E+02  0.21799571493E+02  0.12574574408E+03  0.00000000000E+00 0.  1.
        -13    1    5    5    0    0 -0.34958855599E+03  0.83817298178E+02  0.70287867744E+01  0.35956487843E+03  0.00000000000E+00 0. -1.
          3    1    6    6  503    0  0.80282719496E+01  0.86932615237E+02  0.16436996812E+03  0.18611614428E+03  0.00000000000E+00 0. -1.
         -3    1    6    6    0  503  0.18103187536E+03  0.22236260495E+03  0.54902433640E+03  0.61939114454E+03  0.00000000000E+00 0.  1.
<mgrwt>
<rscale>  0 0.19069453E+04</rscale>
<asrwt>0</asrwt>
<pdfrwt beam="1">  1        2 0.17840782E+00 0.19069453E+04</pdfrwt>
<pdfrwt beam="2">  1       -1 0.12060794E+00 0.19069453E+04</pdfrwt>
<totfact> 0.13074339E+01</totfact>
</mgrwt>
</event>
<event>
12    7  0.1544987E-007  0.1008057E+04  0.7818608E-02  0.9299752E-01
         -1   -1    0    0    0  501 -0.00000000000E+00  0.00000000000E+00  0.25029791539E+03  0.25029791539E+03  0.00000000000E+00 0.  1.
          2   -1    0    0  501    0  0.00000000000E+00 -0.00000000000E+00 -0.10149698369E+04  0.10149698369E+04  0.00000000000E+00 0. -1.
         24    2    1    2    0    0  0.43023809961E+02 -0.38509088856E+02 -0.24225271933E+02  0.10141438212E+03  0.79774776413E+02 0.  0.
        254    2    1    2    0    0 -0.43023809961E+02  0.38509088856E+02 -0.74044664962E+03  0.11638533702E+04  0.89608003453E+03 0.  0.
         23    2    4    4    0    0  0.26120724425E+03 -0.27808907026E+03 -0.14296903013E+03  0.41705579382E+03  0.89065347586E+02 0.  0.
         23    2    4    4    0    0 -0.30423105421E+03  0.31659815911E+03 -0.59747761949E+03  0.74679757639E+03  0.89085271617E+02 0.  0.
          4    1    3    3  502    0  0.19883196307E+02 -0.46046609070E+02 -0.46520244361E+02  0.68408806726E+02  0.00000000000E+00 0. -1.
         -3    1    3    3    0  502  0.23140613654E+02  0.75375202144E+01  0.22294972428E+02  0.33005575390E+02  0.00000000000E+00 0.  1.
         13    1    5    5    0    0  0.59659265188E+02 -0.36261495960E+02  0.33776568812E+01  0.69896584881E+02  0.00000000000E+00 0. -1.
        -13    1    5    5    0    0  0.20154797906E+03 -0.24182757430E+03 -0.14634668701E+03  0.34715920894E+03  0.00000000000E+00 0.  1.
          3    1    6    6  503    0 -0.28091625780E+02  0.41142913935E+02 -0.12221011550E+03  0.13197420633E+03  0.00000000000E+00 0. -1.
         -3    1    6    6    0  503 -0.27613942843E+03  0.27545524518E+03 -0.47526750399E+03  0.61482337007E+03  0.00000000000E+00 0.  1.
<mgrwt>
<rscale>  0 0.10080572E+04</rscale>
<asrwt>0</asrwt>
<pdfrwt beam="1">  1        2 0.15614921E+00 0.10080572E+04</pdfrwt>
<pdfrwt beam="2">  1       -1 0.38507371E-01 0.10080572E+04</pdfrwt>
<totfact> 0.18284855E+02</totfact>
</mgrwt>
</event>
<event>
12    7  0.1544987E-007  0.1650432E+04  0.7818608E-02  0.8790151E-01
         -1   -1    0    0    0  501 -0.00000000000E+00  0.00000000000E+00  0.47767640626E+03  0.47767640626E+03  0.00000000000E+00 0.  1.
          2   -1    0    0  501    0  0.00000000000E+00 -0.00000000000E+00 -0.14256123095E+04  0.14256123095E+04  0.00000000000E+00 0. -1.
         24    2    1    2    0    0 -0.28022059098E+03  0.14539453405E+02 -0.92195288318E+03  0.96700428508E+03  0.79782161188E+02 0.  0.
        254    2    1    2    0    0  0.28022059098E+03 -0.14539453405E+02 -0.25983020071E+02  0.93628443070E+03  0.89287089913E+03 0.  0.
         23    2    4    4    0    0  0.11160769928E+03 -0.12742479659E+03 -0.43210942957E+03  0.47318576491E+03  0.92156669179E+02 0.  0.
         23    2    4    4    0    0  0.16861289170E+03  0.11288534318E+03  0.40612640949E+03  0.46309866578E+03  0.91369063726E+02 0.  0.
          2    1    3    3  502    0 -0.19189230674E+03  0.31612415549E+02 -0.72221092204E+03  0.74793757635E+03  0.00000000000E+00 0. -1.
         -1    1    3    3    0  502 -0.88328284244E+02 -0.17072962143E+02 -0.19974196114E+03  0.21906670873E+03  0.00000000000E+00 0.  1.
         13    1    5    5    0    0  0.65417292096E+02 -0.11758047800E+03 -0.37868453152E+03  0.40187879432E+03  0.00000000000E+00 0. -1.
        -13    1    5    5    0    0  0.46190407182E+02 -0.98443185895E+01 -0.53424898047E+02  0.71306970595E+02  0.00000000000E+00 0.  1.
          1    1    6    6  503    0  0.11263880122E+03  0.77900423977E+02  0.17210150269E+03  0.21994295357E+03  0.00000000000E+00 0. -1.
         -1    1    6    6    0  503  0.55974090484E+02  0.34984919207E+02  0.23402490681E+03  0.24315571222E+03  0.00000000000E+00 0.  1.
<mgrwt>
<rscale>  0 0.16504319E+04</rscale>
<asrwt>0</asrwt>
<pdfrwt beam="1">  1        2 0.21932496E+00 0.16504319E+04</pdfrwt>
<pdfrwt beam="2">  1       -1 0.73488681E-01 0.16504319E+04</pdfrwt>
<totfact> 0.28414743E+01</totfact>
</mgrwt>
</event>
<event>
12    7  0.1544987E-007  0.1465907E+04  0.7818608E-02  0.8907446E-01
         -1   -1    0    0    0  501 -0.00000000000E+00  0.00000000000E+00  0.22903785489E+03  0.22903785489E+03  0.00000000000E+00 0.  1.
          2   -1    0    0  501    0  0.00000000000E+00 -0.00000000000E+00 -0.23455546340E+04  0.23455546340E+04  0.00000000000E+00 0. -1.
         24    2    1    2    0    0  0.77305692214E+02  0.43591352848E+03 -0.82340555744E+03  0.93829441299E+03  0.80018242114E+02 0.  0.
        254    2    1    2    0    0 -0.77305692214E+02 -0.43591352848E+03 -0.12931112217E+04  0.16362980759E+04  0.89963213997E+03 0.  0.
         23    2    4    4    0    0  0.35877490429E+03 -0.34254625925E+03 -0.91541599702E+03  0.10452283853E+04  0.91970419710E+02 0.  0.
         23    2    4    4    0    0 -0.43608059650E+03 -0.93367269224E+02 -0.37769522469E+03  0.59106969067E+03  0.88464472365E+02 0.  0.
          4    1    3    3  502    0  0.57536036032E+02  0.30282041321E+03 -0.64470643337E+03  0.71460267515E+03  0.00000000000E+00 0. -1.
         -3    1    3    3    0  502  0.19769656182E+02  0.13309311526E+03 -0.17869912407E+03  0.22369173784E+03  0.00000000000E+00 0.  1.
         13    1    5    5    0    0  0.22667742445E+03 -0.24372909047E+03 -0.68794022827E+03  0.76423051625E+03  0.00000000000E+00 0. -1.
        -13    1    5    5    0    0  0.13209747983E+03 -0.98817168781E+02 -0.22747576875E+03  0.28099786901E+03  0.00000000000E+00 0.  1.
          3    1    6    6  503    0 -0.42427679487E+03 -0.88515688163E+02 -0.33875519346E+03  0.55009172582E+03  0.00000000000E+00 0. -1.
         -3    1    6    6    0  503 -0.11803801635E+02 -0.48515810611E+01 -0.38940031227E+02  0.40977964857E+02  0.00000000000E+00 0.  1.
<mgrwt>
<rscale>  0 0.14659070E+04</rscale>
<asrwt>0</asrwt>
<pdfrwt beam="1">  1        2 0.36085456E+00 0.14659070E+04</pdfrwt>
<pdfrwt beam="2">  1       -1 0.35236593E-01 0.14659070E+04</pdfrwt>
<totfact> 0.36195952E+01</totfact>
</mgrwt>
</event>
<event>
12    7  0.1544987E-007  0.2203529E+04  0.7818608E-02  0.8516961E-01
          2   -1    0    0  501    0  0.00000000000E+00  0.00000000000E+00  0.32978288060E+04  0.32978288060E+04  0.00000000000E+00 0. -1.
         -1   -1    0    0    0  501 -0.00000000000E+00 -0.00000000000E+00 -0.36808610158E+03  0.36808610158E+03  0.00000000000E+00 0.  1.
         24    2    1    2    0    0 -0.45848595453E+02 -0.80597745295E+03  0.19466268393E+04  0.21089235050E+04  0.80625990451E+02 0.  0.
        254    2    1    2    0    0  0.45848595453E+02  0.80597745295E+03  0.98311586510E+03  0.15569914025E+04  0.89777707418E+03 0.  0.
         23    2    4    4    0    0  0.26167490314E+03  0.81438013714E+03  0.10037296248E+04  0.13219720115E+04  0.91913420283E+02 0.  0.
         23    2    4    4    0    0 -0.21582630768E+03 -0.84026841931E+01 -0.20613759714E+02  0.23501939098E+03  0.90319360378E+02 0.  0.
          2    1    3    3  502    0 -0.43378655381E+02 -0.80526888378E+03  0.19456820878E+04  0.21061857633E+04  0.00000000000E+00 0. -1.
         -1    1    3    3    0  502 -0.24699400720E+01 -0.70856916995E+00  0.94475147762E+00  0.27377416939E+01  0.00000000000E+00 0.  1.
         13    1    5    5    0    0  0.93073861486E+02  0.30334657604E+03  0.30582951426E+03  0.44069669919E+03  0.00000000000E+00 0.  1.
        -13    1    5    5    0    0  0.16860104165E+03  0.51103356110E+03  0.69790011055E+03  0.88127531233E+03  0.00000000000E+00 0. -1.
          4    1    6    6  503    0 -0.15144058256E+03  0.20339773571E+02 -0.46795562437E+02  0.15980544765E+03  0.00000000000E+00 0. -1.
         -4    1    6    6    0  503 -0.64385725128E+02 -0.28742457764E+02  0.26181802723E+02  0.75213943338E+02  0.00000000000E+00 0.  1.
<mgrwt>
<rscale>  0 0.22035289E+04</rscale>
<asrwt>0</asrwt>
<pdfrwt beam="1">  1        2 0.50735826E+00 0.22035289E+04</pdfrwt>
<pdfrwt beam="2">  1       -1 0.56628633E-01 0.22035289E+04</pdfrwt>
<totfact> 0.36764513E+00</totfact>
</mgrwt>
</event>
<event>
12    7  0.1544987E-007  0.2384934E+04  0.7818608E-02  0.8445166E-01
         -1   -1    0    0    0  501 -0.00000000000E+00  0.00000000000E+00  0.99883669702E+03  0.99883669702E+03  0.00000000000E+00 0.  1.
          2   -1    0    0  501    0  0.00000000000E+00 -0.00000000000E+00 -0.14236340969E+04  0.14236340969E+04  0.00000000000E+00 0. -1.
         24    2    1    2    0    0  0.35335497281E+03  0.92056085838E+03  0.83695282480E+02  0.99211883905E+03  0.70730896309E+02 0.  0.
        254    2    1    2    0    0 -0.35335497281E+03 -0.92056085838E+03 -0.50849268240E+03  0.14303519549E+04  0.90280112766E+03 0.  0.
         23    2    4    4    0    0 -0.41888752333E+03 -0.21425728745E+03  0.10160494227E+03  0.49028896173E+03  0.93202785780E+02 0.  0.
         23    2    4    4    0    0  0.65532550513E+02 -0.70630357093E+03 -0.61009762466E+03  0.94006299319E+03  0.91323984059E+02 0.  0.
          4    1    3    3  502    0  0.29151361363E+03  0.79505675839E+03  0.50485003360E+02  0.84831843759E+03  0.00000000000E+00 0. -1.
         -3    1    3    3    0  502  0.61841359185E+02  0.12550409998E+03  0.33210279119E+02  0.14380040145E+03  0.00000000000E+00 0.  1.
         13    1    5    5    0    0 -0.66326542269E+02  0.31987378039E+00  0.57345836741E+01  0.66574754814E+02  0.00000000000E+00 0. -1.
        -13    1    5    5    0    0 -0.35256098106E+03 -0.21457716123E+03  0.95870358592E+02  0.42371420692E+03  0.00000000000E+00 0.  1.
          3    1    6    6  503    0  0.20144588075E+02 -0.19018852716E+03 -0.11348958505E+03  0.22239012165E+03  0.00000000000E+00 0. -1.
         -3    1    6    6    0  503  0.45387962438E+02 -0.51611504377E+03 -0.49660803962E+03  0.71767287154E+03  0.00000000000E+00 0.  1.
<mgrwt>
<rscale>  0 0.23849344E+04</rscale>
<asrwt>0</asrwt>
<pdfrwt beam="1">  1        2 0.21902063E+00 0.23849344E+04</pdfrwt>
<pdfrwt beam="2">  1       -1 0.15366718E+00 0.23849344E+04</pdfrwt>
<totfact> 0.47016199E+00</totfact>
</mgrwt>
</event>
<event>
12    7  0.1544987E-007  0.1808218E+04  0.7818608E-02  0.8701941E-01
         -1   -1    0    0    0  501 -0.00000000000E+00  0.00000000000E+00  0.40338927280E+03  0.40338927280E+03  0.00000000000E+00 0.  1.
          2   -1    0    0  501    0  0.00000000000E+00 -0.00000000000E+00 -0.20263637462E+04  0.20263637462E+04  0.00000000000E+00 0. -1.
         24    2    1    2    0    0 -0.60266512690E+03 -0.27489525291E+03 -0.81771461930E+03  0.10553708028E+04  0.79860362528E+02 0.  0.
        254    2    1    2    0    0  0.60266512690E+03  0.27489525291E+03 -0.80525985410E+03  0.13743822162E+04  0.89538281667E+03 0.  0.
         23    2    4    4    0    0  0.40643338722E+03 -0.21066560678E+03 -0.77353781247E+02  0.47289703549E+03  0.89888278270E+02 0.  0.
         23    2    4    4    0    0  0.19623173968E+03  0.48556085969E+03 -0.72790607285E+03  0.90148518073E+03  0.92477219152E+02 0.  0.
          4    1    3    3  502    0 -0.38674695134E+03 -0.18701939781E+03 -0.58684244795E+03  0.72727815741E+03  0.00000000000E+00 0. -1.
         -1    1    3    3    0  502 -0.21591817556E+03 -0.87875855102E+02 -0.23087217135E+03  0.32809264538E+03  0.00000000000E+00 0.  1.
         13    1    5    5    0    0  0.27848950691E+03 -0.18632350229E+03 -0.70950277764E+02  0.34250079545E+03  0.00000000000E+00 0. -1.
        -13    1    5    5    0    0  0.12794388031E+03 -0.24342104487E+02 -0.64035034832E+01  0.13039624004E+03  0.00000000000E+00 0.  1.
          2    1    6    6  503    0  0.19292951545E+03  0.45330150659E+03 -0.63907774598E+03  0.80692280871E+03  0.00000000000E+00 0. -1.
         -2    1    6    6    0  503  0.33022242244E+01  0.32259353103E+02 -0.88828326877E+02  0.94562372026E+02  0.00000000000E+00 0.  1.
<mgrwt>
<rscale>  0 0.18082183E+04</rscale>
<asrwt>0</asrwt>
<pdfrwt beam="1">  1        2 0.31174827E+00 0.18082183E+04</pdfrwt>
<pdfrwt beam="2">  1       -1 0.62059888E-01 0.18082183E+04</pdfrwt>
<totfact> 0.18276607E+01</totfact>
</mgrwt>
</event>
<event>
12    7  0.1544987E-007  0.1938997E+04  0.7818608E-02  0.8635685E-01
          2   -1    0    0  501    0  0.00000000000E+00  0.00000000000E+00  0.26574226797E+04  0.26574226797E+04  0.00000000000E+00 0. -1.
         -1   -1    0    0    0  501 -0.00000000000E+00 -0.00000000000E+00 -0.35369888243E+03  0.35369888243E+03  0.00000000000E+00 0.  1.
         24    2    1    2    0    0  0.15014500269E+03  0.87879205448E+02 -0.23850422053E+03  0.30546288994E+03  0.78466791276E+02 0.  0.
        254    2    1    2    0    0 -0.15014500269E+03 -0.87879205448E+02  0.25422280178E+04  0.27056586721E+04  0.90961490713E+03 0.  0.
         23    2    4    4    0    0 -0.46018958140E+03  0.18270748645E+03  0.13341758473E+04  0.14260556310E+04  0.91940169068E+02 0.  0.
         23    2    4    4    0    0  0.31004457871E+03 -0.27058669190E+03  0.12080521705E+04  0.12796030412E+04  0.93000525774E+02 0.  0.
          4    1    3    3  502    0  0.13012750208E+03  0.95165575370E+02 -0.17249769849E+03  0.23610402266E+03  0.00000000000E+00 0. -1.
         -3    1    3    3    0  502  0.20017500611E+02 -0.72863699225E+01 -0.66006522042E+02  0.69358867273E+02  0.00000000000E+00 0.  1.
         13    1    5    5    0    0 -0.38457815701E+03  0.12737238879E+03  0.11527047724E+04  0.12218233819E+04  0.00000000000E+00 0. -1.
        -13    1    5    5    0    0 -0.75611424385E+02  0.55335097663E+02  0.18147107486E+03  0.20423224902E+03  0.00000000000E+00 0.  1.
          3    1    6    6  503    0  0.20693295802E+03 -0.14449772364E+03  0.61982808500E+03  0.66924412303E+03  0.00000000000E+00 0. -1.
         -3    1    6    6    0  503  0.10311162068E+03 -0.12608896826E+03  0.58822408548E+03  0.61035891816E+03  0.00000000000E+00 0.  1.
<mgrwt>
<rscale>  0 0.19389971E+04</rscale>
<asrwt>0</asrwt>
<pdfrwt beam="1">  1        2 0.40883425E+00 0.19389971E+04</pdfrwt>
<pdfrwt beam="2">  1       -1 0.54415214E-01 0.19389971E+04</pdfrwt>
<totfact> 0.10217596E+01</totfact>
</mgrwt>
</event>
<event>
12    7  0.1544987E-007  0.1700296E+04  0.7818608E-02  0.8761195E-01
          2   -1    0    0  501    0  0.00000000000E+00  0.00000000000E+00  0.12445512213E+04  0.12445512213E+04  0.00000000000E+00 0. -1.
         -1   -1    0    0    0  501 -0.00000000000E+00 -0.00000000000E+00 -0.58073297030E+03  0.58073297030E+03  0.00000000000E+00 0.  1.
         24    2    1    2    0    0 -0.39678644603E+03  0.23287648160E+03 -0.18899354858E+03  0.50391742188E+03  0.80890464431E+02 0.  0.
        254    2    1    2    0    0  0.39678644603E+03 -0.23287648160E+03  0.85281179957E+03  0.13213667697E+04  0.89836030362E+03 0.  0.
         23    2    4    4    0    0  0.18055619355E+03  0.45143077057E+02 -0.14965914039E+03  0.25488644743E+03  0.89055074776E+02 0.  0.
         23    2    4    4    0    0  0.21623025248E+03 -0.27801955866E+03  0.10024709400E+04  0.10664803223E+04  0.91552691081E+02 0.  0.
          2    1    3    3  502    0 -0.19860456196E+02  0.27738602526E+01 -0.26780805612E+02  0.33456592328E+02  0.00000000000E+00 0. -1.
         -1    1    3    3    0  502 -0.37692598983E+03  0.23010262135E+03 -0.16221274297E+03  0.47046082955E+03  0.00000000000E+00 0.  1.
         13    1    5    5    0    0  0.18790230026E+03  0.36604525086E+02 -0.15061572510E+03  0.24358214702E+03  0.00000000000E+00 0. -1.
        -13    1    5    5    0    0 -0.73461067026E+01  0.85385519711E+01  0.95658471059E+00  0.11304300410E+02  0.00000000000E+00 0.  1.
          2    1    6    6  503    0  0.17162565086E+03 -0.14920121090E+03  0.61049320683E+03  0.65147396030E+03  0.00000000000E+00 0. -1.
         -2    1    6    6    0  503  0.44604601618E+02 -0.12881834776E+03  0.39197773312E+03  0.41500636196E+03  0.00000000000E+00 0.  1.
<mgrwt>
<rscale>  0 0.17002964E+04</rscale>
<asrwt>0</asrwt>
<pdfrwt beam="1">  1        2 0.19146942E+00 0.17002964E+04</pdfrwt>
<pdfrwt beam="2">  1       -1 0.89343534E-01 0.17002964E+04</pdfrwt>
<totfact> 0.23734653E+01</totfact>
</mgrwt>
</event>
<event>
12    7  0.1544987E-007  0.1595471E+04  0.7818608E-02  0.8823335E-01
          2   -1    0    0  501    0  0.00000000000E+00  0.00000000000E+00  0.27410118961E+04  0.27410118961E+04  0.00000000000E+00 0. -1.
         -1   -1    0    0    0  501 -0.00000000000E+00 -0.00000000000E+00 -0.23217032056E+03  0.23217032056E+03  0.00000000000E+00 0.  1.
         24    2    1    2    0    0 -0.23710688346E+03 -0.31272325975E+02  0.17688433611E+04  0.17867692031E+04  0.80868514717E+02 0.  0.
        254    2    1    2    0    0  0.23710688346E+03  0.31272325975E+02  0.73999821444E+03  0.11864130135E+04  0.89598038411E+03 0.  0.
         23    2    4    4    0    0  0.40974410176E+03 -0.30300488267E+03  0.29500189859E+03  0.59603455794E+03  0.92351969305E+02 0.  0.
         23    2    4    4    0    0 -0.17263721830E+03  0.33427720865E+03  0.44499631585E+03  0.59037845558E+03  0.94763591752E+02 0.  0.
          4    1    3    3  502    0 -0.21430898359E+03 -0.52921841343E+02  0.15192204765E+04  0.15351742305E+04  0.00000000000E+00 0. -1.
         -3    1    3    3    0  502 -0.22797899870E+02  0.21649515368E+02  0.24962288458E+03  0.25159497264E+03  0.00000000000E+00 0.  1.
         13    1    5    5    0    0  0.18571205314E+02 -0.11008466572E+02 -0.61841107879E+01  0.22457052997E+02  0.00000000000E+00 0.  1.
        -13    1    5    5    0    0  0.39117289645E+03 -0.29199641610E+03  0.30118600937E+03  0.57357750494E+03  0.00000000000E+00 0. -1.
          1    1    6    6  503    0 -0.53528314518E+02  0.10850565153E+03  0.80261813465E+02  0.14519199555E+03  0.00000000000E+00 0. -1.
         -1    1    6    6    0  503 -0.11910890379E+03  0.22577155711E+03  0.36473450239E+03  0.44518646003E+03  0.00000000000E+00 0.  1.
<mgrwt>
<rscale>  0 0.15954706E+04</rscale>
<asrwt>0</asrwt>
<pdfrwt beam="1">  1        2 0.42169411E+00 0.15954706E+04</pdfrwt>
<pdfrwt beam="2">  1       -1 0.35718513E-01 0.15954706E+04</pdfrwt>
<totfact> 0.20587733E+01</totfact>
</mgrwt>
</event>
<event>
12    7  0.1544987E-007  0.2178284E+04  0.7818608E-02  0.8527522E-01
         -1   -1    0    0    0  501 -0.00000000000E+00  0.00000000000E+00  0.64830342361E+03  0.64830342361E+03  0.00000000000E+00 0.  1.
          2   -1    0    0  501    0  0.00000000000E+00 -0.00000000000E+00 -0.18297453469E+04  0.18297453469E+04  0.00000000000E+00 0. -1.
         24    2    1    2    0    0 -0.99422884572E+02 -0.35893565204E+03 -0.14368634878E+04  0.14867941141E+04  0.85207645989E+02 0.  0.
        254    2    1    2    0    0  0.99422884572E+02  0.35893565204E+03  0.25542156446E+03  0.99125465644E+03  0.88239781620E+03 0.  0.
         23    2    4    4    0    0 -0.14673959066E+03  0.47738752409E+03 -0.11594170061E+03  0.52112143865E+03  0.93240121500E+02 0.  0.
         23    2    4    4    0    0  0.24616247523E+03 -0.11845187206E+03  0.37136326507E+03  0.47013321778E+03  0.92129026986E+02 0.  0.
          2    1    3    3  502    0 -0.11447437970E+03 -0.31718404416E+03 -0.12443698502E+04  0.12892503348E+04  0.00000000000E+00 0. -1.
         -1    1    3    3    0  502  0.15051495127E+02 -0.41751607876E+02 -0.19249363755E+03  0.19754377936E+03  0.00000000000E+00 0.  1.
         13    1    5    5    0    0 -0.12208403332E+03  0.26592065148E+03 -0.92793633572E+02  0.30696736391E+03  0.00000000000E+00 0. -1.
        -13    1    5    5    0    0 -0.24655557338E+02  0.21146687262E+03 -0.23148067035E+02  0.21415407474E+03  0.00000000000E+00 0.  1.
          1    1    6    6  503    0  0.27194193287E+02  0.14037953715E+02  0.57626466426E+02  0.65248738883E+02  0.00000000000E+00 0. -1.
         -1    1    6    6    0  503  0.21896828195E+03 -0.13248982577E+03  0.31373679864E+03  0.40488447890E+03  0.00000000000E+00 0.  1.
<mgrwt>
<rscale>  0 0.21782839E+04</rscale>
<asrwt>0</asrwt>
<pdfrwt beam="1">  1        2 0.28149928E+00 0.21782839E+04</pdfrwt>
<pdfrwt beam="2">  1       -1 0.99738991E-01 0.21782839E+04</pdfrwt>
<totfact> 0.83033052E+00</totfact>
</mgrwt>
</event>
<event>
12    7  0.1544987E-007  0.1240351E+04  0.7818608E-02  0.9078253E-01
          2   -1    0    0  501    0  0.00000000000E+00  0.00000000000E+00  0.12950796746E+04  0.12950796746E+04  0.00000000000E+00 0. -1.
         -1   -1    0    0    0  501 -0.00000000000E+00 -0.00000000000E+00 -0.29698368353E+03  0.29698368353E+03  0.00000000000E+00 0.  1.
         24    2    1    2    0    0 -0.20704319193E+03  0.52013928783E+00 -0.14128122368E+02  0.22280647804E+03  0.81092348252E+02 0.  0.
        254    2    1    2    0    0  0.20704319193E+03 -0.52013928783E+00  0.10122241135E+04  0.13692568801E+04  0.89855416865E+03 0.  0.
         23    2    4    4    0    0  0.14698761804E+03 -0.47876762955E+02 -0.12931803472E+03  0.22171967007E+03  0.92406242772E+02 0.  0.
         23    2    4    4    0    0  0.60055573890E+02  0.47356623667E+02  0.11415421482E+04  0.11475372101E+04  0.88734720377E+02 0.  0.
          4    1    3    3  502    0 -0.13467400878E+03 -0.82079067003E+01  0.29145186245E+02  0.13803586582E+03  0.00000000000E+00 0. -1.
         -3    1    3    3    0  502 -0.72369183151E+02  0.87280459881E+01 -0.43273308613E+02  0.84770612214E+02  0.00000000000E+00 0.  1.
         13    1    5    5    0    0  0.60118969895E+02  0.23225271164E+02 -0.68473587181E+02  0.94033695574E+02  0.00000000000E+00 0. -1.
        -13    1    5    5    0    0  0.86868648144E+02 -0.71102034118E+02 -0.60844447540E+02  0.12768597449E+03  0.00000000000E+00 0.  1.
          1    1    6    6  503    0  0.40354784817E+02 -0.16794820503E+02  0.64519676955E+03  0.64667568850E+03  0.00000000000E+00 0. -1.
         -1    1    6    6    0  503  0.19700789073E+02  0.64151444169E+02  0.49634537865E+03  0.50086152156E+03  0.00000000000E+00 0.  1.
<mgrwt>
<rscale>  0 0.12403508E+04</rscale>
<asrwt>0</asrwt>
<pdfrwt beam="1">  1        2 0.19924302E+00 0.12403508E+04</pdfrwt>
<pdfrwt beam="2">  1       -1 0.45689798E-01 0.12403508E+04</pdfrwt>
<totfact> 0.88816886E+01</totfact>
</mgrwt>
</event>
<event>
12    7  0.1544987E-007  0.1321302E+04  0.7818608E-02  0.9012841E-01
          2   -1    0    0  501    0  0.00000000000E+00  0.00000000000E+00  0.11404837937E+04  0.11404837937E+04  0.00000000000E+00 0. -1.
         -1   -1    0    0    0  501 -0.00000000000E+00 -0.00000000000E+00 -0.38269698305E+03  0.38269698305E+03  0.00000000000E+00 0.  1.
         24    2    1    2    0    0  0.14147279033E+03 -0.24019619174E+03 -0.13423605827E+02  0.29025805337E+03  0.79754519763E+02 0.  0.
        254    2    1    2    0    0 -0.14147279033E+03  0.24019619174E+03  0.77121041643E+03  0.12329227233E+04  0.92066507177E+03 0.  0.
         23    2    4    4    0    0  0.28541449027E+03  0.35804188366E+03  0.57117051281E+03  0.73782491593E+03  0.92165232856E+02 0.  0.
         23    2    4    4    0    0 -0.42688728060E+03 -0.11784569192E+03  0.20003990362E+03  0.49509780741E+03  0.94791974460E+02 0.  0.
          2    1    3    3  502    0  0.11727593207E+02  0.67532318996E+00  0.10321043179E+02  0.15637021332E+02  0.00000000000E+00 0. -1.
         -1    1    3    3    0  502  0.12974519712E+03 -0.24087151493E+03 -0.23744649006E+02  0.27462103203E+03  0.00000000000E+00 0.  1.
         13    1    5    5    0    0  0.20418276074E+02  0.79793568054E+02  0.11359495054E+03  0.14031297976E+03  0.00000000000E+00 0. -1.
        -13    1    5    5    0    0  0.26499621420E+03  0.27824831560E+03  0.45757556227E+03  0.59751193617E+03  0.00000000000E+00 0.  1.
          2    1    6    6  503    0 -0.48142363172E+02 -0.42142577279E+02  0.10418167630E+02  0.64824549117E+02  0.00000000000E+00 0. -1.
         -2    1    6    6    0  503 -0.37874491743E+03 -0.75703114640E+02  0.18962173599E+03  0.43027325829E+03  0.00000000000E+00 0.  1.
<mgrwt>
<rscale>  0 0.13213019E+04</rscale>
<asrwt>0</asrwt>
<pdfrwt beam="1">  1        2 0.17545904E+00 0.13213019E+04</pdfrwt>
<pdfrwt beam="2">  1       -1 0.58876460E-01 0.13213019E+04</pdfrwt>
<totfact> 0.67138403E+01</totfact>
</mgrwt>
</event>
<event>
12    7  0.1544987E-007  0.1755945E+04  0.7818608E-02  0.8730085E-01
          2   -1    0    0  501    0  0.00000000000E+00  0.00000000000E+00  0.18473193250E+04  0.18473193250E+04  0.00000000000E+00 0. -1.
         -1   -1    0    0    0  501 -0.00000000000E+00 -0.00000000000E+00 -0.41727258240E+03  0.41727258240E+03  0.00000000000E+00 0.  1.
         24    2    1    2    0    0  0.19340269787E+03  0.61257903513E+03  0.48642684863E+03  0.80962143529E+03  0.78855003541E+02 0.  0.
        254    2    1    2    0    0 -0.19340269787E+03 -0.61257903513E+03  0.94361989395E+03  0.14549704721E+04  0.90214349889E+03 0.  0.
         23    2    4    4    0    0 -0.34365099695E+02 -0.48343377567E+03  0.10838746915E+04  0.11914302331E+04  0.99158851854E+02 0.  0.
         23    2    4    4    0    0 -0.15903759818E+03 -0.12914525946E+03 -0.14025479753E+03  0.26354023903E+03  0.88377563219E+02 0.  0.
          2    1    3    3  502    0  0.70581099317E+02  0.23190351025E+03  0.23216496041E+03  0.33565085802E+03  0.00000000000E+00 0. -1.
         -1    1    3    3    0  502  0.12282159855E+03  0.38067552488E+03  0.25426188822E+03  0.47397057727E+03  0.00000000000E+00 0.  1.
         13    1    5    5    0    0 -0.16550208353E+02 -0.84759125739E+02  0.11687412907E+03  0.14531889360E+03  0.00000000000E+00 0.  1.
        -13    1    5    5    0    0 -0.17814891341E+02 -0.39867464993E+03  0.96700056242E+03  0.10461113395E+04  0.00000000000E+00 0. -1.
          1    1    6    6  503    0 -0.12346725191E+03 -0.85159439428E+02 -0.14255403162E+03  0.20692497276E+03  0.00000000000E+00 0. -1.
         -1    1    6    6    0  503 -0.35570346262E+02 -0.43985820034E+02  0.22992340917E+01  0.56615266269E+02  0.00000000000E+00 0.  1.
<mgrwt>
<rscale>  0 0.17559450E+04</rscale>
<asrwt>0</asrwt>
<pdfrwt beam="1">  1        2 0.28420297E+00 0.17559450E+04</pdfrwt>
<pdfrwt beam="2">  1       -1 0.64195783E-01 0.17559450E+04</pdfrwt>
<totfact> 0.21565829E+01</totfact>
</mgrwt>
</event>
<event>
12    7  0.1544987E-007  0.2311133E+04  0.7818608E-02  0.8473544E-01
          2   -1    0    0  501    0  0.00000000000E+00  0.00000000000E+00  0.88868707367E+03  0.88868707367E+03  0.00000000000E+00 0. -1.
         -1   -1    0    0    0  501 -0.00000000000E+00 -0.00000000000E+00 -0.15025917841E+04  0.15025917841E+04  0.00000000000E+00 0.  1.
         24    2    1    2    0    0 -0.68605582081E+03 -0.69153336134E+03 -0.25866120150E+03  0.10109415166E+04  0.78779145095E+02 0.  0.
        254    2    1    2    0    0  0.68605582081E+03  0.69153336134E+03 -0.35524350891E+03  0.13803373412E+04  0.91117629779E+03 0.  0.
         23    2    4    4    0    0  0.62989315640E+03  0.16924679909E+02 -0.26941292162E+03  0.69164722199E+03  0.93491839692E+02 0.  0.
         23    2    4    4    0    0  0.56162664418E+02  0.67460868143E+03 -0.85830587291E+02  0.68869011917E+03  0.93145437828E+02 0.  0.
          4    1    3    3  502    0 -0.22823249047E+03 -0.21405520522E+03 -0.11956968811E+03  0.33497255246E+03  0.00000000000E+00 0. -1.
         -3    1    3    3    0  502 -0.45782333035E+03 -0.47747815612E+03 -0.13909151339E+03  0.67596896414E+03  0.00000000000E+00 0.  1.
         13    1    5    5    0    0  0.14085608140E+03  0.16904000629E+02 -0.21919053971E+02  0.14355008126E+03  0.00000000000E+00 0. -1.
        -13    1    5    5    0    0  0.48903707500E+03  0.20679280017E-01 -0.24749386765E+03  0.54809714073E+03  0.00000000000E+00 0.  1.
          4    1    6    6  503    0 -0.20079029849E+02  0.29981616924E+03 -0.48931399014E+02  0.30444570055E+03  0.00000000000E+00 0. -1.
         -4    1    6    6    0  503  0.76241694267E+02  0.37479251219E+03 -0.36899188277E+02  0.38424441861E+03  0.00000000000E+00 0.  1.
<mgrwt>
<rscale>  0 0.23111330E+04</rscale>
<asrwt>0</asrwt>
<pdfrwt beam="1">  1        2 0.13672109E+00 0.23111330E+04</pdfrwt>
<pdfrwt beam="2">  1       -1 0.23116796E+00 0.23111330E+04</pdfrwt>
<totfact> 0.28588791E+00</totfact>
</mgrwt>
</event>
<event>
12    7  0.1544987E-007  0.1156325E+04  0.7818608E-02  0.9151968E-01
         -1   -1    0    0    0  501 -0.00000000000E+00  0.00000000000E+00  0.23148380657E+04  0.23148380657E+04  0.00000000000E+00 0.  1.
          2   -1    0    0  501    0  0.00000000000E+00 -0.00000000000E+00 -0.14440396707E+03  0.14440396707E+03  0.00000000000E+00 0. -1.
         24    2    1    2    0    0 -0.51623434133E+01 -0.74340957911E+02 -0.22629114679E+00  0.10888029018E+03  0.79382860671E+02 0.  0.
        254    2    1    2    0    0  0.51623434133E+01  0.74340957911E+02  0.21706603897E+04  0.23503617425E+04  0.89826530905E+03 0.  0.
         23    2    4    4    0    0 -0.43249753939E+03  0.96831893099E+02  0.10255294686E+04  0.11208698587E+04  0.90598080141E+02 0.  0.
         23    2    4    4    0    0  0.43765988280E+03 -0.22490935188E+02  0.11451309212E+04  0.12294918838E+04  0.90958510670E+02 0.  0.
          4    1    3    3  502    0 -0.47742884703E+01 -0.71120957876E+02 -0.31147720220E+02  0.77789234182E+02  0.00000000000E+00 0. -1.
         -3    1    3    3    0  502 -0.38805494298E+00 -0.32200000350E+01  0.30921429073E+02  0.31091055994E+02  0.00000000000E+00 0.  1.
         13    1    5    5    0    0 -0.17618674868E+03  0.85379158320E+02  0.43872702592E+03  0.48042978088E+03  0.00000000000E+00 0.  1.
        -13    1    5    5    0    0 -0.25631079071E+03  0.11452734779E+02  0.58680244266E+03  0.64044007782E+03  0.00000000000E+00 0. -1.
          3    1    6    6  503    0  0.34630827992E+02  0.11807338924E+01  0.18029513323E+03  0.18359472609E+03  0.00000000000E+00 0. -1.
         -3    1    6    6    0  503  0.40302905481E+03 -0.23671669080E+02  0.96483578792E+03  0.10458971578E+04  0.00000000000E+00 0.  1.
<mgrwt>
<rscale>  0 0.11563249E+04</rscale>
<asrwt>0</asrwt>
<pdfrwt beam="1">  1        2 0.22215997E-01 0.11563249E+04</pdfrwt>
<pdfrwt beam="2">  1       -1 0.35612891E+00 0.11563249E+04</pdfrwt>
<totfact> 0.41002137E+00</totfact>
</mgrwt>
</event>
<event>
12    7  0.1544987E-007  0.1960691E+04  0.7818608E-02  0.8625222E-01
          2   -1    0    0  501    0  0.00000000000E+00  0.00000000000E+00  0.21220747027E+04  0.21220747027E+04  0.00000000000E+00 0. -1.
         -1   -1    0    0    0  501 -0.00000000000E+00 -0.00000000000E+00 -0.45289529628E+03  0.45289529628E+03  0.00000000000E+00 0.  1.
         24    2    1    2    0    0 -0.16196763725E+03  0.22164287293E+03 -0.27969944275E+03  0.39901705713E+03  0.74991699332E+02 0.  0.
        254    2    1    2    0    0  0.16196763725E+03 -0.22164287293E+03  0.19488788492E+04  0.21759529418E+04  0.92805353176E+03 0.  0.
         23    2    4    4    0    0  0.24541147364E+03  0.16176904168E+03  0.16399156142E+04  0.16684047277E+04  0.88629000285E+02 0.  0.
         23    2    4    4    0    0 -0.83443836393E+02 -0.38341191462E+03  0.30896323499E+03  0.50754821411E+03  0.90439697998E+02 0.  0.
          4    1    3    3  502    0 -0.56645796959E+02  0.27883724552E+02 -0.49507234924E+02  0.80232254848E+02  0.00000000000E+00 0. -1.
         -3    1    3    3    0  502 -0.10532184029E+03  0.19375914838E+03 -0.23019220782E+03  0.31878480228E+03  0.00000000000E+00 0.  1.
         13    1    5    5    0    0  0.18785821718E+02 -0.47894122198E+01  0.46846142984E+02  0.50699178292E+02  0.00000000000E+00 0. -1.
        -13    1    5    5    0    0  0.22662565192E+03  0.16655845390E+03  0.15930694712E+04  0.16177055494E+04  0.00000000000E+00 0.  1.
          1    1    6    6  503    0 -0.12945044304E+02 -0.24054091396E+02  0.56478166634E+02  0.62737204204E+02  0.00000000000E+00 0. -1.
         -1    1    6    6    0  503 -0.70498792089E+02 -0.35935782322E+03  0.25248506835E+03  0.44481100991E+03  0.00000000000E+00 0.  1.
<mgrwt>
<rscale>  0 0.19606914E+04</rscale>
<asrwt>0</asrwt>
<pdfrwt beam="1">  1        2 0.32647302E+00 0.19606914E+04</pdfrwt>
<pdfrwt beam="2">  1       -1 0.69676201E-01 0.19606914E+04</pdfrwt>
<totfact> 0.12623622E+01</totfact>
</mgrwt>
</event>
<event>
12    7  0.1544987E-007  0.3169418E+04  0.7818608E-02  0.8196941E-01
          2   -1    0    0  501    0  0.00000000000E+00  0.00000000000E+00  0.20562566708E+04  0.20562566708E+04  0.00000000000E+00 0. -1.
         -1   -1    0    0    0  501 -0.00000000000E+00 -0.00000000000E+00 -0.12212983503E+04  0.12212983503E+04  0.00000000000E+00 0.  1.
         24    2    1    2    0    0  0.11634448558E+04 -0.12195863404E+03 -0.50324342443E+03  0.12759448270E+04  0.79394056420E+02 0.  0.
        254    2    1    2    0    0 -0.11634448558E+04  0.12195863404E+03  0.13382017450E+04  0.20016101941E+04  0.92042469434E+03 0.  0.
         23    2    4    4    0    0 -0.81743842088E+02  0.35549634126E+03  0.39628778804E+03  0.54548595106E+03  0.86320376989E+02 0.  0.
         23    2    4    4    0    0 -0.10817010138E+04 -0.23353770722E+03  0.94191395697E+03  0.14561242431E+04  0.92081296169E+02 0.  0.
          4    1    3    3  502    0  0.24026784363E+03 -0.57705625948E+02 -0.10614329111E+03  0.26893302920E+03  0.00000000000E+00 0. -1.
         -3    1    3    3    0  502  0.92317701222E+03 -0.64253008095E+02 -0.39710013332E+03  0.10070117978E+04  0.00000000000E+00 0.  1.
         13    1    5    5    0    0 -0.31088230699E+02  0.25437557394E+03  0.31566204982E+03  0.40659063000E+03  0.00000000000E+00 0. -1.
        -13    1    5    5    0    0 -0.50655611389E+02  0.10112076732E+03  0.80625738211E+02  0.13889532105E+03  0.00000000000E+00 0.  1.
          3    1    6    6  503    0 -0.70538787507E+02 -0.25629253165E+02  0.38618741498E+02  0.84403710557E+02  0.00000000000E+00 0. -1.
         -3    1    6    6    0  503 -0.10111622263E+04 -0.20790845406E+03  0.90329521547E+03  0.13717205325E+04  0.00000000000E+00 0.  1.
<mgrwt>
<rscale>  0 0.31694182E+04</rscale>
<asrwt>0</asrwt>
<pdfrwt beam="1">  1        2 0.31634718E+00 0.31694182E+04</pdfrwt>
<pdfrwt beam="2">  1       -1 0.18789205E+00 0.31694182E+04</pdfrwt>
<totfact> 0.10912254E+00</totfact>
</mgrwt>
</event>
<event>
12    7  0.1544987E-007  0.1955330E+04  0.7818608E-02  0.8627795E-01
          2   -1    0    0  501    0  0.00000000000E+00  0.00000000000E+00  0.77812700000E+03  0.77812700000E+03  0.00000000000E+00 0. -1.
         -3   -1    0    0    0  501 -0.00000000000E+00 -0.00000000000E+00 -0.12283709660E+04  0.12283709660E+04  0.00000000000E+00 0.  1.
         24    2    1    2    0    0 -0.26345514550E+03  0.83341933534E+02  0.55431706542E+03  0.62467816847E+03  0.81246006535E+02 0.  0.
        254    2    1    2    0    0  0.26345514550E+03 -0.83341933534E+02 -0.10045610314E+04  0.13818197975E+04  0.90770512582E+03 0.  0.
         23    2    4    4    0    0  0.37045884406E+03 -0.40256936363E+03 -0.81527673526E+03  0.98595810177E+03  0.90196317599E+02 0.  0.
         23    2    4    4    0    0 -0.10700369855E+03  0.31922743010E+03 -0.18928429617E+03  0.39586169577E+03  0.86729428533E+02 0.  0.
          2    1    3    3  502    0 -0.15032724227E+03  0.89025482887E+02  0.34126631744E+03  0.38338820508E+03  0.00000000000E+00 0. -1.
         -1    1    3    3    0  502 -0.11312790324E+03 -0.56835493532E+01  0.21305074797E+03  0.24128996339E+03  0.00000000000E+00 0.  1.
         13    1    5    5    0    0  0.28484390937E+03 -0.35583120007E+03 -0.69450066166E+03  0.83071238386E+03  0.00000000000E+00 0.  1.
        -13    1    5    5    0    0  0.85614934690E+02 -0.46738163558E+02 -0.12077607360E+03  0.15524571791E+03  0.00000000000E+00 0. -1.
          2    1    6    6  503    0 -0.45377598748E+02  0.43872726300E+02 -0.53415515722E+02  0.82687120526E+02  0.00000000000E+00 0. -1.
         -2    1    6    6    0  503 -0.61626099806E+02  0.27535470380E+03 -0.13586878044E+03  0.31317457525E+03  0.00000000000E+00 0.  1.
<mgrwt>
<rscale>  0 0.19553298E+04</rscale>
<asrwt>0</asrwt>
<pdfrwt beam="1">  1        2 0.11971185E+00 0.19553298E+04</pdfrwt>
<pdfrwt beam="2">  1       -3 0.18898015E+00 0.19553298E+04</pdfrwt>
<totfact> 0.36099405E+00</totfact>
</mgrwt>
</event>
<event>
12    7  0.1544987E-007  0.1469447E+04  0.7818608E-02  0.8905028E-01
         -1   -1    0    0    0  501 -0.00000000000E+00  0.00000000000E+00  0.57577949337E+03  0.57577949337E+03  0.00000000000E+00 0.  1.
          2   -1    0    0  501    0  0.00000000000E+00 -0.00000000000E+00 -0.93754397164E+03  0.93754397164E+03  0.00000000000E+00 0. -1.
         24    2    1    2    0    0 -0.23926132977E+03  0.30612156026E+03  0.15516980131E+03  0.42639619160E+03  0.82338638514E+02 0.  0.
        254    2    1    2    0    0  0.23926132977E+03 -0.30612156026E+03 -0.51693427958E+03  0.10869272734E+04  0.87363233382E+03 0.  0.
         23    2    4    4    0    0  0.41192744822E+03 -0.51773656746E+03 -0.35305453177E+03  0.75557470219E+03  0.92251028744E+02 0.  0.
         23    2    4    4    0    0 -0.17266611845E+03  0.21161500720E+03 -0.16387974781E+03  0.33135257122E+03  0.91342514619E+02 0.  0.
          2    1    3    3  502    0 -0.32835662997E+02  0.18892431847E+02 -0.48118520745E+01  0.38187153153E+02  0.00000000000E+00 0. -1.
         -1    1    3    3    0  502 -0.20642566677E+03  0.28722912842E+03  0.15998165338E+03  0.38820903845E+03  0.00000000000E+00 0.  1.
         13    1    5    5    0    0  0.10225499134E+03 -0.17267793474E+03 -0.14388772404E+03  0.24693608390E+03  0.00000000000E+00 0. -1.
        -13    1    5    5    0    0  0.30967245688E+03 -0.34505863272E+03 -0.20916680773E+03  0.50863861830E+03  0.00000000000E+00 0.  1.
          3    1    6    6  503    0 -0.49623468305E+01  0.30068166607E+02  0.65048932170E+01  0.31161405054E+02  0.00000000000E+00 0. -1.
         -3    1    6    6    0  503 -0.16770377162E+03  0.18154684060E+03 -0.17038464102E+03  0.30019116616E+03  0.00000000000E+00 0.  1.
<mgrwt>
<rscale>  0 0.14694470E+04</rscale>
<asrwt>0</asrwt>
<pdfrwt beam="1">  1        2 0.14423753E+00 0.14694470E+04</pdfrwt>
<pdfrwt beam="2">  1       -1 0.88581462E-01 0.14694470E+04</pdfrwt>
<totfact> 0.38264011E+01</totfact>
</mgrwt>
</event>
<event>
12    7  0.1748976E-007  0.2446393E+04  0.7818608E-02  0.8422336E-01
          2   -1    0    0  501    0  0.00000000000E+00  0.00000000000E+00  0.17461851242E+04  0.17461851242E+04  0.00000000000E+00 0. -1.
         -1   -1    0    0    0  501 -0.00000000000E+00 -0.00000000000E+00 -0.85684501229E+03  0.85684501229E+03  0.00000000000E+00 0.  1.
         24    2    1    2    0    0  0.73416988101E+03 -0.66511751927E+03  0.12374833079E+02  0.99410628385E+03  0.81898952860E+02 0.  0.
        254    2    1    2    0    0 -0.73416988101E+03  0.66511751927E+03  0.87696527884E+03  0.16089238526E+04  0.91552232888E+03 0.  0.
         23    2    4    4    0    0  0.16800709881E+03  0.26036298816E+03  0.37879200178E+03  0.49792888965E+03  0.91839684659E+02 0.  0.
         23    2    4    4    0    0 -0.90217697981E+03  0.40475453112E+03  0.49817327706E+03  0.11109949630E+04  0.91562330968E+02 0.  0.
          4    1    3    3  502    0  0.33926287390E+03 -0.31385756887E+03 -0.34800153973E+02  0.46348346450E+03  0.00000000000E+00 0. -1.
         -3    1    3    3    0  502  0.39490700711E+03 -0.35125995040E+03  0.47174987051E+02  0.53062281936E+03  0.00000000000E+00 0.  1.
         13    1    5    5    0    0  0.15358681260E+02  0.23969028745E+02  0.32424180275E+01  0.28651643996E+02  0.00000000000E+00 0. -1.
        -13    1    5    5    0    0  0.15264841755E+03  0.23639395941E+03  0.37554958376E+03  0.46927724565E+03  0.00000000000E+00 0.  1.
          1    1    6    6  503    0 -0.23638557274E+03  0.96476116812E+02  0.85775737962E+02  0.26933855524E+03  0.00000000000E+00 0. -1.
         -1    1    6    6    0  503 -0.66579140707E+03  0.30827841430E+03  0.41239753910E+03  0.84165640775E+03  0.00000000000E+00 0.  1.
<mgrwt>
<rscale>  0 0.24463933E+04</rscale>
<asrwt>0</asrwt>
<pdfrwt beam="1">  1        2 0.26864386E+00 0.24463933E+04</pdfrwt>
<pdfrwt beam="2">  1       -1 0.13182231E+00 0.24463933E+04</pdfrwt>
<totfact> 0.46150318E+00</totfact>
</mgrwt>
</event>
<event>
12    7  0.1544987E-007  0.1701097E+04  0.7818608E-02  0.8760739E-01
         -1   -1    0    0    0  501 -0.00000000000E+00  0.00000000000E+00  0.10428858351E+04  0.10428858351E+04  0.00000000000E+00 0.  1.
          2   -1    0    0  501    0  0.00000000000E+00 -0.00000000000E+00 -0.69368357461E+03  0.69368357461E+03  0.00000000000E+00 0. -1.
         24    2    1    2    0    0 -0.16559547395E+03 -0.31109258772E+03  0.63609130647E+03  0.73151501908E+03  0.79382704968E+02 0.  0.
        254    2    1    2    0    0  0.16559547395E+03  0.31109258772E+03 -0.28688904601E+03  0.10050543906E+04  0.89645331402E+03 0.  0.
         23    2    4    4    0    0 -0.44294654990E+02  0.77715655752E+02 -0.56308164442E+03  0.57705149784E+03  0.89026699737E+02 0.  0.
         23    2    4    4    0    0  0.20989012894E+03  0.23337693197E+03  0.27619259841E+03  0.42800289276E+03  0.91572191150E+02 0.  0.
          4    1    3    3  502    0  0.24631856150E+01 -0.14854399968E+02  0.80684825243E+01  0.17082765936E+02  0.00000000000E+00 0. -1.
         -1    1    3    3    0  502 -0.16805865957E+03 -0.29623818775E+03  0.62802282394E+03  0.71443225314E+03  0.00000000000E+00 0.  1.
         13    1    5    5    0    0 -0.66229442589E+02  0.42975827429E+02 -0.44687692249E+03  0.45379758115E+03  0.00000000000E+00 0. -1.
        -13    1    5    5    0    0  0.21934787600E+02  0.34739828323E+02 -0.11620472193E+03  0.12325391668E+03  0.00000000000E+00 0.  1.
          3    1    6    6  503    0  0.21441560187E+03  0.23806411177E+03  0.26950691439E+03  0.41866758716E+03  0.00000000000E+00 0. -1.
         -3    1    6    6    0  503 -0.45254729223E+01 -0.46871798080E+01  0.66856840241E+01  0.93353055972E+01  0.00000000000E+00 0.  1.
<mgrwt>
<rscale>  0 0.17010970E+04</rscale>
<asrwt>0</asrwt>
<pdfrwt beam="1">  1        2 0.10672055E+00 0.17010970E+04</pdfrwt>
<pdfrwt beam="2">  1       -1 0.16044397E+00 0.17010970E+04</pdfrwt>
<totfact> 0.13059323E+01</totfact>
</mgrwt>
</event>
<event>
12    7  0.1544987E-007  0.2692413E+04  0.7818608E-02  0.8337471E-01
         -1   -1    0    0    0  501 -0.00000000000E+00  0.00000000000E+00  0.72205949790E+03  0.72205949790E+03  0.00000000000E+00 0.  1.
          2   -1    0    0  501    0  0.00000000000E+00 -0.00000000000E+00 -0.25098643833E+04  0.25098643833E+04  0.00000000000E+00 0. -1.
         24    2    1    2    0    0  0.29339271892E+02 -0.79520650975E+03  0.27272009424E+03  0.84498229514E+03  0.80029015158E+02 0.  0.
        254    2    1    2    0    0 -0.29339271892E+02  0.79520650975E+03 -0.20605249797E+04  0.23869415861E+04  0.90471694887E+03 0.  0.
         23    2    4    4    0    0  0.38365867334E+03  0.25736667241E+03 -0.11890555819E+04  0.12789411720E+04  0.91682947919E+02 0.  0.
         23    2    4    4    0    0 -0.41299794524E+03  0.53783983734E+03 -0.87146939775E+03  0.11080004141E+04  0.91471377710E+02 0.  0.
          4    1    3    3  502    0  0.43525154313E+01 -0.54088973674E+03  0.22070192103E+03  0.58420029925E+03  0.00000000000E+00 0. -1.
         -3    1    3    3    0  502  0.24986756460E+02 -0.25431677302E+03  0.52018173214E+02  0.26078199589E+03  0.00000000000E+00 0.  1.
         13    1    5    5    0    0  0.15819132471E+03  0.60350120450E+02 -0.49130313593E+03  0.51965893009E+03  0.00000000000E+00 0.  1.
        -13    1    5    5    0    0  0.22546734864E+03  0.19701655196E+03 -0.69775244600E+03  0.75928224195E+03  0.00000000000E+00 0. -1.
          1    1    6    6  503    0 -0.38641448777E+03  0.49101191008E+03 -0.75745453457E+03  0.98190947859E+03  0.00000000000E+00 0. -1.
         -1    1    6    6    0  503 -0.26583457466E+02  0.46827927263E+02 -0.11401486318E+03  0.12609093547E+03  0.00000000000E+00 0.  1.
<mgrwt>
<rscale>  0 0.26924126E+04</rscale>
<asrwt>0</asrwt>
<pdfrwt beam="1">  1        2 0.38613298E+00 0.26924126E+04</pdfrwt>
<pdfrwt beam="2">  1       -1 0.11108608E+00 0.26924126E+04</pdfrwt>
<totfact> 0.25560365E+00</totfact>
</mgrwt>
</event>
<event>
12    7  0.1544987E-007  0.1817945E+04  0.7818608E-02  0.8696814E-01
          2   -1    0    0  501    0  0.00000000000E+00  0.00000000000E+00  0.81415469192E+03  0.81415469192E+03  0.00000000000E+00 0. -1.
         -1   -1    0    0    0  501 -0.00000000000E+00 -0.00000000000E+00 -0.10148333499E+04  0.10148333499E+04  0.00000000000E+00 0.  1.
         24    2    1    2    0    0 -0.62144204005E+03  0.24227715500E+03  0.80398595234E+02  0.67689836094E+03  0.82698415633E+02 0.  0.
        254    2    1    2    0    0  0.62144204005E+03 -0.24227715500E+03 -0.28107725319E+03  0.11520896808E+04  0.89633575265E+03 0.  0.
         23    2    4    4    0    0  0.43657382349E+03  0.16133240098E+03  0.17800627305E+03  0.50662705233E+03  0.91432433788E+02 0.  0.
         23    2    4    4    0    0  0.18486821656E+03 -0.40360955597E+03 -0.45908352623E+03  0.64546262851E+03  0.93741077342E+02 0.  0.
          2    1    3    3  502    0 -0.49642310438E+03  0.16434336118E+03  0.83505069793E+02  0.52954483815E+03  0.00000000000E+00 0. -1.
         -3    1    3    3    0  502 -0.12501893567E+03  0.77933793815E+02 -0.31064745592E+01  0.14735352279E+03  0.00000000000E+00 0.  1.
         13    1    5    5    0    0  0.57222158394E+02  0.33997691662E+02 -0.47230924937E+01  0.66727251197E+02  0.00000000000E+00 0. -1.
        -13    1    5    5    0    0  0.37935166510E+03  0.12733470932E+03  0.18272936554E+03  0.43989980114E+03  0.00000000000E+00 0.  1.
          1    1    6    6  503    0  0.95044989662E+02 -0.16917475945E+03 -0.26337588996E+03  0.32713989165E+03  0.00000000000E+00 0. -1.
         -1    1    6    6    0  503  0.89823226900E+02 -0.23443479652E+03 -0.19570763628E+03  0.31832273687E+03  0.00000000000E+00 0.  1.
<mgrwt>
<rscale>  0 0.18179454E+04</rscale>
<asrwt>0</asrwt>
<pdfrwt beam="1">  1        2 0.12525457E+00 0.18179454E+04</pdfrwt>
<pdfrwt beam="2">  1       -1 0.15612821E+00 0.18179454E+04</pdfrwt>
<totfact> 0.11326076E+01</totfact>
</mgrwt>
</event>
<event>
12    7  0.1544987E-007  0.1704576E+04  0.7818608E-02  0.8758759E-01
         -3   -1    0    0    0  501 -0.00000000000E+00  0.00000000000E+00  0.50365825618E+03  0.50365825618E+03  0.00000000000E+00 0.  1.
          2   -1    0    0  501    0  0.00000000000E+00 -0.00000000000E+00 -0.14422368331E+04  0.14422368331E+04  0.00000000000E+00 0. -1.
         24    2    1    2    0    0 -0.49211349761E+03 -0.87939128706E+02  0.54409990620E+02  0.50890295100E+03  0.78184279587E+02 0.  0.
        254    2    1    2    0    0  0.49211349761E+03  0.87939128706E+02 -0.99298856753E+03  0.14369921383E+04  0.91050048068E+03 0.  0.
         23    2    4    4    0    0  0.42744644075E+03  0.11224168715E+03 -0.11543223134E+04  0.12395131963E+04  0.92867133904E+02 0.  0.
         23    2    4    4    0    0  0.64667056852E+02 -0.24302558441E+02  0.16133374584E+03  0.19747894199E+03  0.90536801337E+02 0.  0.
          4    1    3    3  502    0 -0.11837489349E+03 -0.31581804730E+02  0.45936402046E+02  0.13084410125E+03  0.00000000000E+00 0. -1.
         -3    1    3    3    0  502 -0.37373860411E+03 -0.56357323976E+02  0.84735885735E+01  0.37805884975E+03  0.00000000000E+00 0.  1.
         13    1    5    5    0    0  0.11969107636E+03 -0.10158322929E+02 -0.28876121056E+03  0.31274939170E+03  0.00000000000E+00 0. -1.
        -13    1    5    5    0    0  0.30775536440E+03  0.12240001008E+03 -0.86556110281E+03  0.92676380458E+03  0.00000000000E+00 0.  1.
          2    1    6    6  503    0  0.19794595058E+00 -0.41068148687E+02  0.94876607472E+02  0.10338376403E+03  0.00000000000E+00 0.  1.
         -2    1    6    6    0  503  0.64469110902E+02  0.16765590246E+02  0.66457138366E+02  0.94095177967E+02  0.00000000000E+00 0. -1.
<mgrwt>
<rscale>  0 0.17045756E+04</rscale>
<asrwt>0</asrwt>
<pdfrwt beam="1">  1        2 0.22188259E+00 0.17045756E+04</pdfrwt>
<pdfrwt beam="2">  1       -3 0.77485887E-01 0.17045756E+04</pdfrwt>
<totfact> 0.12959250E+01</totfact>
</mgrwt>
</event>
<event>
12    7  0.1544987E-007  0.1705306E+04  0.7818608E-02  0.8758344E-01
         -1   -1    0    0    0  501 -0.00000000000E+00  0.00000000000E+00  0.34671735058E+03  0.34671735058E+03  0.00000000000E+00 0.  1.
          2   -1    0    0  501    0  0.00000000000E+00 -0.00000000000E+00 -0.20968594767E+04  0.20968594767E+04  0.00000000000E+00 0. -1.
         24    2    1    2    0    0  0.24463535804E+03  0.38850463305E+03 -0.51964918665E+02  0.47075727048E+03  0.90165107595E+02 0.  0.
        254    2    1    2    0    0 -0.24463535804E+03 -0.38850463305E+03 -0.16981772075E+04  0.19728195568E+04  0.89298872753E+03 0.  0.
         23    2    4    4    0    0  0.18736925042E+03  0.25588687821E+02 -0.11058741239E+04  0.11256100531E+04  0.90985694951E+02 0.  0.
         23    2    4    4    0    0 -0.43200460847E+03 -0.41409332087E+03 -0.59230308354E+03  0.84720950373E+03  0.94019893190E+02 0.  0.
          2    1    3    3  502    0  0.21668253284E+02  0.13527650994E+02 -0.21582846033E+02  0.33441438137E+02  0.00000000000E+00 0. -1.
         -1    1    3    3    0  502  0.22296710476E+03  0.37497698206E+03 -0.30382072633E+02  0.43731583234E+03  0.00000000000E+00 0.  1.
         13    1    5    5    0    0  0.59614368975E+02 -0.26001002047E+02 -0.50332183444E+03  0.50750644737E+03  0.00000000000E+00 0.  1.
        -13    1    5    5    0    0  0.12775488145E+03  0.51589689867E+02 -0.60255228948E+03  0.61810360571E+03  0.00000000000E+00 0. -1.
          2    1    6    6  503    0 -0.38024090724E+03 -0.37264381853E+03 -0.56251446385E+03  0.77451215940E+03  0.00000000000E+00 0. -1.
         -2    1    6    6    0  503 -0.51763701228E+02 -0.41449502344E+02 -0.29788619693E+02  0.72697344330E+02  0.00000000000E+00 0.  1.
<mgrwt>
<rscale>  0 0.17053065E+04</rscale>
<asrwt>0</asrwt>
<pdfrwt beam="1">  1        2 0.32259376E+00 0.17053065E+04</pdfrwt>
<pdfrwt beam="2">  1       -1 0.53341132E-01 0.17053065E+04</pdfrwt>
<totfact> 0.22663725E+01</totfact>
</mgrwt>
</event>
<event>
12    7  0.1544987E-007  0.1099125E+04  0.7818608E-02  0.9206045E-01
          2   -1    0    0  501    0  0.00000000000E+00  0.00000000000E+00  0.85176479670E+03  0.85176479670E+03  0.00000000000E+00 0. -1.
         -1   -1    0    0    0  501 -0.00000000000E+00 -0.00000000000E+00 -0.35458017822E+03  0.35458017822E+03  0.00000000000E+00 0.  1.
         24    2    1    2    0    0 -0.13208323656E+03 -0.57305421146E+02  0.49690941241E+02  0.17487795145E+03  0.85925639878E+02 0.  0.
        254    2    1    2    0    0  0.13208323656E+03  0.57305421146E+02  0.44749367725E+03  0.10314670235E+04  0.91811967447E+03 0.  0.
         23    2    4    4    0    0  0.36905326279E+03  0.15627457078E+03  0.59335772079E+03  0.72184356437E+03  0.91447768468E+02 0.  0.
         23    2    4    4    0    0 -0.23697002623E+03 -0.98969149630E+02 -0.14586404354E+03  0.30962345910E+03  0.92955265127E+02 0.  0.
          4    1    3    3  502    0 -0.57451919639E+01 -0.30381176626E+02  0.31999271091E+02  0.44496926571E+02  0.00000000000E+00 0. -1.
         -3    1    3    3    0  502 -0.12633804460E+03 -0.26924244521E+02  0.17691670150E+02  0.13038102488E+03  0.00000000000E+00 0.  1.
         13    1    5    5    0    0  0.23288531462E+03  0.14294020478E+03  0.37111432137E+03  0.46086148834E+03  0.00000000000E+00 0. -1.
        -13    1    5    5    0    0  0.13616794817E+03  0.13334365998E+02  0.22224339941E+03  0.26098207603E+03  0.00000000000E+00 0.  1.
          4    1    6    6  503    0 -0.22776748177E+03 -0.11249973215E+03 -0.14649272691E+03  0.29324790626E+03  0.00000000000E+00 0. -1.
         -4    1    6    6    0  503 -0.92025444537E+01  0.13530582525E+02  0.62868336656E+00  0.16375552835E+02  0.00000000000E+00 0.  1.
<mgrwt>
<rscale>  0 0.10991249E+04</rscale>
<asrwt>0</asrwt>
<pdfrwt beam="1">  1        2 0.13104074E+00 0.10991249E+04</pdfrwt>
<pdfrwt beam="2">  1       -1 0.54550797E-01 0.10991249E+04</pdfrwt>
<totfact> 0.12172441E+02</totfact>
</mgrwt>
</event>
<event>
12    7  0.1544987E-007  0.1325880E+04  0.7818608E-02  0.9009290E-01
         -1   -1    0    0    0  501 -0.00000000000E+00  0.00000000000E+00  0.16530053957E+03  0.16530053957E+03  0.00000000000E+00 0.  1.
          2   -1    0    0  501    0  0.00000000000E+00 -0.00000000000E+00 -0.26587314564E+04  0.26587314564E+04  0.00000000000E+00 0. -1.
         24    2    1    2    0    0 -0.17893948194E+03  0.19396460455E+03 -0.18129742341E+03  0.33015312831E+03  0.80565044428E+02 0.  0.
        254    2    1    2    0    0  0.17893948194E+03 -0.19396460455E+03 -0.23121334934E+04  0.24938788677E+04  0.89656506132E+03 0.  0.
         23    2    4    4    0    0  0.47001962903E+03 -0.23415218167E+03 -0.19362586512E+04  0.20082307300E+04  0.90262975145E+02 0.  0.
         23    2    4    4    0    0 -0.29108014709E+03  0.40187577120E+02 -0.37587484226E+03  0.48564813771E+03  0.90716719705E+02 0.  0.
          4    1    3    3  502    0  0.61852928558E+01  0.22521746898E+02 -0.11588272104E+02  0.26072494729E+02  0.00000000000E+00 0. -1.
         -3    1    3    3    0  502 -0.18512477480E+03  0.17144285765E+03 -0.16970915131E+03  0.30408063358E+03  0.00000000000E+00 0.  1.
         13    1    5    5    0    0  0.30262702317E+03 -0.12691417467E+03 -0.10565695888E+04  0.11063587207E+04  0.00000000000E+00 0. -1.
        -13    1    5    5    0    0  0.16739260586E+03 -0.10723800700E+03 -0.87968906244E+03  0.90187200933E+03  0.00000000000E+00 0.  1.
          1    1    6    6  503    0 -0.35215529205E+01 -0.14207046450E+02 -0.22180314359E+02  0.26574571471E+02  0.00000000000E+00 0. -1.
         -1    1    6    6    0  503 -0.28755859417E+03  0.54394623569E+02 -0.35369452790E+03  0.45907356624E+03  0.00000000000E+00 0.  1.
<mgrwt>
<rscale>  0 0.13258805E+04</rscale>
<asrwt>0</asrwt>
<pdfrwt beam="1">  1        2 0.40903560E+00 0.13258805E+04</pdfrwt>
<pdfrwt beam="2">  1       -1 0.25430853E-01 0.13258805E+04</pdfrwt>
<totfact> 0.42852096E+01</totfact>
</mgrwt>
</event>
<event>
12    7  0.1544987E-007  0.2400251E+04  0.7818608E-02  0.8439410E-01
          2   -1    0    0  501    0  0.00000000000E+00  0.00000000000E+00  0.10998660237E+04  0.10998660237E+04  0.00000000000E+00 0. -1.
         -1   -1    0    0    0  501 -0.00000000000E+00 -0.00000000000E+00 -0.13095238671E+04  0.13095238671E+04  0.00000000000E+00 0.  1.
         24    2    1    2    0    0  0.38863179365E+03  0.88453314226E+03  0.21531363319E+03  0.99303960605E+03  0.79587359208E+02 0.  0.
        254    2    1    2    0    0 -0.38863179365E+03 -0.88453314226E+03 -0.42497147659E+03  0.14163502847E+04  0.94446483382E+03 0.  0.
         23    2    4    4    0    0 -0.84733818452E+02 -0.98056304041E+03 -0.44170912556E+03  0.10825554716E+04  0.90198122938E+02 0.  0.
         23    2    4    4    0    0 -0.30389797520E+03  0.96029898148E+02  0.16737648975E+02  0.33379481308E+03  0.97791143131E+02 0.  0.
          4    1    3    3  502    0  0.36479276145E+03  0.82389669437E+03  0.22065073970E+03  0.92766711202E+03  0.00000000000E+00 0. -1.
         -3    1    3    3    0  502  0.23839032199E+02  0.60636447894E+02 -0.53371065044E+01  0.65372494027E+02  0.00000000000E+00 0.  1.
         13    1    5    5    0    0 -0.75424574851E+02 -0.93326984895E+03 -0.43942766636E+03  0.10343008032E+04  0.00000000000E+00 0. -1.
        -13    1    5    5    0    0 -0.93092436012E+01 -0.47293191457E+02 -0.22814592003E+01  0.48254668486E+02  0.00000000000E+00 0.  1.
          4    1    6    6  503    0 -0.30205539473E+03  0.10199882870E+03  0.28902642420E+02  0.32011964213E+03  0.00000000000E+00 0. -1.
         -4    1    6    6    0  503 -0.18425804699E+01 -0.59689305542E+01 -0.12164993445E+02  0.13675170941E+02  0.00000000000E+00 0.  1.
<mgrwt>
<rscale>  0 0.24002507E+04</rscale>
<asrwt>0</asrwt>
<pdfrwt beam="1">  1        2 0.16921016E+00 0.24002507E+04</pdfrwt>
<pdfrwt beam="2">  1       -1 0.20146521E+00 0.24002507E+04</pdfrwt>
<totfact> 0.32845308E+00</totfact>
</mgrwt>
</event>
<event>
12    7  0.1544987E-007  0.2597804E+04  0.7818608E-02  0.8368947E-01
          2   -1    0    0  501    0  0.00000000000E+00  0.00000000000E+00  0.18375465891E+04  0.18375465891E+04  0.00000000000E+00 0. -1.
         -1   -1    0    0    0  501 -0.00000000000E+00 -0.00000000000E+00 -0.91815193078E+03  0.91815193078E+03  0.00000000000E+00 0.  1.
         24    2    1    2    0    0  0.56612005644E+03  0.48485098852E+03  0.13225314382E+04  0.15201711566E+04  0.79110941163E+02 0.  0.
        254    2    1    2    0    0 -0.56612005644E+03 -0.48485098852E+03 -0.40313677990E+03  0.12355273632E+04  0.89913080397E+03 0.  0.
         23    2    4    4    0    0 -0.69417887160E+03 -0.64559175977E+02 -0.14430926758E+03  0.71767121043E+03  0.90413542084E+02 0.  0.
         23    2    4    4    0    0  0.12805881516E+03 -0.42029181255E+03 -0.25882751232E+03  0.51785615281E+03  0.90216661655E+02 0.  0.
          4    1    3    3  502    0  0.53410204158E+03  0.43935621409E+03  0.11888760647E+04  0.13754000040E+04  0.00000000000E+00 0. -1.
         -1    1    3    3    0  502  0.32018014858E+02  0.45494774437E+02  0.13365537350E+03  0.14477115266E+03  0.00000000000E+00 0.  1.
         13    1    5    5    0    0 -0.57789393646E+03 -0.87454870117E+02 -0.12206600726E+03  0.59708447161E+03  0.00000000000E+00 0.  1.
        -13    1    5    5    0    0 -0.11628493514E+03  0.22895694140E+02 -0.22243260327E+02  0.12058673882E+03  0.00000000000E+00 0. -1.
          2    1    6    6  503    0 -0.11557629992E+02 -0.66470541774E+02 -0.28945436896E+02  0.73414917094E+02  0.00000000000E+00 0. -1.
         -2    1    6    6    0  503  0.13961644515E+03 -0.35382127077E+03 -0.22988207542E+03  0.44444123572E+03  0.00000000000E+00 0.  1.
<mgrwt>
<rscale>  0 0.25978044E+04</rscale>
<asrwt>0</asrwt>
<pdfrwt beam="1">  1        2 0.28269947E+00 0.25978044E+04</pdfrwt>
<pdfrwt beam="2">  1       -1 0.14125414E+00 0.25978044E+04</pdfrwt>
<totfact> 0.33909397E+00</totfact>
</mgrwt>
</event>
<event>
12    7  0.1544987E-007  0.1809536E+04  0.7818608E-02  0.8701244E-01
         -1   -1    0    0    0  501 -0.00000000000E+00  0.00000000000E+00  0.45232248509E+03  0.45232248509E+03  0.00000000000E+00 0.  1.
          2   -1    0    0  501    0  0.00000000000E+00 -0.00000000000E+00 -0.18097829823E+04  0.18097829823E+04  0.00000000000E+00 0. -1.
         24    2    1    2    0    0 -0.85085808315E+02 -0.64566241791E+03 -0.25533675869E+03  0.70521266795E+03  0.89490189574E+02 0.  0.
        254    2    1    2    0    0  0.85085808315E+02  0.64566241791E+03 -0.11021237385E+04  0.15568927994E+04  0.88606935465E+03 0.  0.
         23    2    4    4    0    0 -0.31131205641E+03  0.49832113384E+03 -0.35331485385E+03  0.69075133802E+03  0.84064713892E+02 0.  0.
         23    2    4    4    0    0  0.39639786472E+03  0.14734128406E+03 -0.74880888464E+03  0.86614146140E+03  0.10317734388E+03 0.  0.
          2    1    3    3  502    0 -0.15752299319E+02 -0.42652817654E+02  0.29438206360E+01  0.45563843863E+02  0.00000000000E+00 0. -1.
         -1    1    3    3    0  502 -0.69333508995E+02 -0.60300960025E+03 -0.25828057932E+03  0.65964882409E+03  0.00000000000E+00 0.  1.
         13    1    5    5    0    0  0.79718675146E+00  0.30377025696E+02 -0.11118584686E+02  0.32357721216E+02  0.00000000000E+00 0.  1.
        -13    1    5    5    0    0 -0.31210924316E+03  0.46794410815E+03 -0.34219626917E+03  0.65839361680E+03  0.00000000000E+00 0. -1.
          4    1    6    6  503    0  0.38126384564E+03  0.12547960394E+03 -0.65108797474E+03  0.76486783293E+03  0.00000000000E+00 0. -1.
         -4    1    6    6    0  503  0.15134019077E+02  0.21861680120E+02 -0.97720909901E+02  0.10127362847E+03  0.00000000000E+00 0.  1.
<mgrwt>
<rscale>  0 0.18095364E+04</rscale>
<asrwt>0</asrwt>
<pdfrwt beam="1">  1        2 0.27842815E+00 0.18095364E+04</pdfrwt>
<pdfrwt beam="2">  1       -1 0.69588075E-01 0.18095364E+04</pdfrwt>
<totfact> 0.19120322E+01</totfact>
</mgrwt>
</event>
<event>
12    7  0.1544987E-007  0.3340326E+04  0.7818608E-02  0.8152710E-01
         -1   -1    0    0    0  501 -0.00000000000E+00  0.00000000000E+00  0.18919979061E+04  0.18919979061E+04  0.00000000000E+00 0.  1.
          2   -1    0    0  501    0  0.00000000000E+00 -0.00000000000E+00 -0.14743382363E+04  0.14743382363E+04  0.00000000000E+00 0. -1.
         24    2    1    2    0    0 -0.12181235719E+04  0.92014795413E+03  0.43883552257E+03  0.15903963318E+04  0.79287971582E+02 0.  0.
        254    2    1    2    0    0  0.12181235719E+04 -0.92014795413E+03 -0.21175852731E+02  0.17759398106E+04  0.90720256836E+03 0.  0.
         23    2    4    4    0    0  0.10171070352E+04 -0.10857263129E+04  0.57969857152E+02  0.14911490771E+04  0.82805302760E+02 0.  0.
         23    2    4    4    0    0  0.20101653668E+03  0.16557835873E+03 -0.79145709883E+02  0.28479073348E+03  0.83772773536E+02 0.  0.
          4    1    3    3  502    0 -0.10054102101E+04  0.77903001632E+03  0.33903828229E+03  0.13163147092E+04  0.00000000000E+00 0. -1.
         -3    1    3    3    0  502 -0.21271336186E+03  0.14111793781E+03  0.99797240278E+02  0.27408162261E+03  0.00000000000E+00 0.  1.
         13    1    5    5    0    0  0.81560165783E+03 -0.83339759071E+03  0.68119689552E+02  0.11680744414E+04  0.00000000000E+00 0.  1.
        -13    1    5    5    0    0  0.20150537741E+03 -0.25232872215E+03 -0.10149832400E+02  0.32307463572E+03  0.00000000000E+00 0. -1.
          1    1    6    6  503    0  0.24239881603E+02 -0.58294079692E+01  0.32406944867E+01  0.25140723103E+02  0.00000000000E+00 0. -1.
         -1    1    6    6    0  503  0.17677665507E+03  0.17140776670E+03 -0.82386404370E+02  0.25965001038E+03  0.00000000000E+00 0.  1.
<mgrwt>
<rscale>  0 0.33403262E+04</rscale>
<asrwt>0</asrwt>
<pdfrwt beam="1">  1        2 0.22682127E+00 0.33403262E+04</pdfrwt>
<pdfrwt beam="2">  1       -1 0.29107660E+00 0.33403262E+04</pdfrwt>
<totfact> 0.46934341E-01</totfact>
</mgrwt>
</event>
<event>
12    7  0.1544987E-007  0.1652413E+04  0.7818608E-02  0.8788980E-01
          2   -1    0    0  501    0  0.00000000000E+00  0.00000000000E+00  0.57110801138E+03  0.57110801138E+03  0.00000000000E+00 0. -1.
         -1   -1    0    0    0  501 -0.00000000000E+00 -0.00000000000E+00 -0.11952501268E+04  0.11952501268E+04  0.00000000000E+00 0.  1.
         24    2    1    2    0    0 -0.55123024086E+03  0.12461156354E+03 -0.32761088699E+03  0.65809605611E+03  0.79866799031E+02 0.  0.
        254    2    1    2    0    0  0.55123024086E+03 -0.12461156354E+03 -0.29653122842E+03  0.11082620821E+04  0.90605256629E+03 0.  0.
         23    2    4    4    0    0  0.50943069787E+03  0.28356154850E+03 -0.34794684049E+03  0.68453477392E+03  0.87143933703E+02 0.  0.
         23    2    4    4    0    0  0.41799542991E+02 -0.40817311204E+03  0.51415612072E+02  0.42372730813E+03  0.92459587421E+02 0.  0.
          4    1    3    3  502    0 -0.32773285567E+03  0.35802005192E+02 -0.17476744775E+03  0.37314108465E+03  0.00000000000E+00 0. -1.
         -3    1    3    3    0  502 -0.22349738519E+03  0.88809558347E+02 -0.15284343924E+03  0.28495497146E+03  0.00000000000E+00 0.  1.
         13    1    5    5    0    0  0.39484919134E+03  0.24386109331E+03 -0.30745322786E+03  0.55668806710E+03  0.00000000000E+00 0.  1.
        -13    1    5    5    0    0  0.11458150653E+03  0.39700455191E+02 -0.40493612632E+02  0.12784670682E+03  0.00000000000E+00 0. -1.
          1    1    6    6  503    0  0.69475762334E+01 -0.38832489632E+02  0.34424275888E+02  0.52357061004E+02  0.00000000000E+00 0. -1.
         -1    1    6    6    0  503  0.34851966757E+02 -0.36934062240E+03  0.16991336184E+02  0.37137024712E+03  0.00000000000E+00 0.  1.
<mgrwt>
<rscale>  0 0.16524127E+04</rscale>
<asrwt>0</asrwt>
<pdfrwt beam="1">  1        2 0.87862771E-01 0.16524127E+04</pdfrwt>
<pdfrwt beam="2">  1       -1 0.18388463E+00 0.16524127E+04</pdfrwt>
<totfact> 0.11211032E+01</totfact>
</mgrwt>
</event>
<event>
12    7  0.1544987E-007  0.1718600E+04  0.7818608E-02  0.8750827E-01
         -1   -1    0    0    0  501 -0.00000000000E+00  0.00000000000E+00  0.13052709377E+04  0.13052709377E+04  0.00000000000E+00 0.  1.
          2   -1    0    0  501    0  0.00000000000E+00 -0.00000000000E+00 -0.56570331183E+03  0.56570331183E+03  0.00000000000E+00 0. -1.
         24    2    1    2    0    0  0.10009435079E+03  0.60878469802E+03  0.19691917684E+03  0.65237977753E+03  0.78641746701E+02 0.  0.
        254    2    1    2    0    0 -0.10009435079E+03 -0.60878469802E+03  0.54264844905E+03  0.12185944720E+04  0.89992636386E+03 0.  0.
         23    2    4    4    0    0 -0.24551232990E+03 -0.73366090978E+03  0.18135869031E+03  0.79968775752E+03  0.89860449119E+02 0.  0.
         23    2    4    4    0    0  0.14541797910E+03  0.12487621176E+03  0.36128975874E+03  0.41890671450E+03  0.90620575857E+02 0.  0.
          4    1    3    3  502    0  0.72175886553E+02  0.21700591530E+03  0.60093330837E+02  0.23645746824E+03  0.00000000000E+00 0. -1.
         -3    1    3    3    0  502  0.27918464240E+02  0.39177878272E+03  0.13682584600E+03  0.41592230929E+03  0.00000000000E+00 0.  1.
         13    1    5    5    0    0 -0.19709940775E+03 -0.52359500338E+03  0.16598670658E+03  0.58356789738E+03  0.00000000000E+00 0. -1.
        -13    1    5    5    0    0 -0.48412922143E+02 -0.21006590640E+03  0.15371983732E+02  0.21611986014E+03  0.00000000000E+00 0.  1.
          4    1    6    6  503    0  0.13285215122E+03  0.70058876137E+02  0.30140966658E+03  0.33675766853E+03  0.00000000000E+00 0.  1.
         -4    1    6    6    0  503  0.12565827883E+02  0.54817335622E+02  0.59880092162E+02  0.82149045962E+02  0.00000000000E+00 0. -1.
<mgrwt>
<rscale>  0 0.17185995E+04</rscale>
<asrwt>0</asrwt>
<pdfrwt beam="1">  1        2 0.87031279E-01 0.17185995E+04</pdfrwt>
<pdfrwt beam="2">  1       -1 0.20081091E+00 0.17185995E+04</pdfrwt>
<totfact> 0.85854519E+00</totfact>
</mgrwt>
</event>
<event>
12    7  0.1544987E-007  0.1514978E+04  0.7818608E-02  0.8874553E-01
         -1   -1    0    0    0  501 -0.00000000000E+00  0.00000000000E+00  0.38526142301E+03  0.38526142301E+03  0.00000000000E+00 0.  1.
          2   -1    0    0  501    0  0.00000000000E+00 -0.00000000000E+00 -0.14893522321E+04  0.14893522321E+04  0.00000000000E+00 0. -1.
         24    2    1    2    0    0 -0.29471122153E+03 -0.80723245393E+02  0.10919249442E+03  0.33386773444E+03  0.78573003095E+02 0.  0.
        254    2    1    2    0    0  0.29471122153E+03  0.80723245393E+02 -0.12132833035E+04  0.15407459207E+04  0.89914997140E+03 0.  0.
         23    2    4    4    0    0  0.49503594444E+02  0.41735513597E+03 -0.27552030566E+03  0.51057513932E+03  0.90219835265E+02 0.  0.
         23    2    4    4    0    0  0.24520762709E+03 -0.33663189058E+03 -0.93776299788E+03  0.10301707814E+04  0.91676542774E+02 0.  0.
          4    1    3    3  502    0 -0.32950403458E+02  0.15064804648E+01  0.38178354153E+02  0.50453793686E+02  0.00000000000E+00 0. -1.
         -3    1    3    3    0  502 -0.26176081807E+03 -0.82229725858E+02  0.71014140271E+02  0.28341394075E+03  0.00000000000E+00 0.  1.
         13    1    5    5    0    0  0.54349437516E+02  0.35610934672E+03 -0.19605043741E+03  0.41012620276E+03  0.00000000000E+00 0. -1.
        -13    1    5    5    0    0 -0.48458430719E+01  0.61245789249E+02 -0.79469868259E+02  0.10044893656E+03  0.00000000000E+00 0.  1.
          2    1    6    6  503    0  0.24613973984E+03 -0.29273134545E+03 -0.83538430455E+03  0.91877274036E+03  0.00000000000E+00 0. -1.
         -2    1    6    6    0  503 -0.93211275713E+00 -0.43900545131E+02 -0.10237869333E+03  0.11139804103E+03  0.00000000000E+00 0.  1.
<mgrwt>
<rscale>  0 0.15149785E+04</rscale>
<asrwt>0</asrwt>
<pdfrwt beam="1">  1        2 0.22913111E+00 0.15149785E+04</pdfrwt>
<pdfrwt beam="2">  1       -1 0.59270989E-01 0.15149785E+04</pdfrwt>
<totfact> 0.40842833E+01</totfact>
</mgrwt>
</event>
<event>
12    7  0.1544987E-007  0.2256360E+04  0.7818608E-02  0.8495329E-01
         -1   -1    0    0    0  501 -0.00000000000E+00  0.00000000000E+00  0.62937986173E+03  0.62937986173E+03  0.00000000000E+00 0.  1.
          2   -1    0    0  501    0  0.00000000000E+00 -0.00000000000E+00 -0.20222922995E+04  0.20222922995E+04  0.00000000000E+00 0. -1.
         24    2    1    2    0    0 -0.26284680978E+03  0.12035280446E+03  0.47494681214E+03  0.56204110058E+03  0.82112614340E+02 0.  0.
        254    2    1    2    0    0  0.26284680978E+03 -0.12035280446E+03 -0.18678592499E+04  0.20896310606E+04  0.89111534002E+03 0.  0.
         23    2    4    4    0    0  0.56173177168E+03 -0.17328753689E+03 -0.96931251989E+03  0.11372671998E+04  0.90767663788E+02 0.  0.
         23    2    4    4    0    0 -0.29888496190E+03  0.52934732429E+02 -0.89854672997E+03  0.95236386080E+03  0.86466126728E+02 0.  0.
          2    1    3    3  502    0 -0.80951202641E+02 -0.21874232332E+00  0.10584942036E+03  0.13325631260E+03  0.00000000000E+00 0. -1.
         -1    1    3    3    0  502 -0.18189560714E+03  0.12057154678E+03  0.36909739177E+03  0.42878478798E+03  0.00000000000E+00 0.  1.
         13    1    5    5    0    0  0.94670408855E+01 -0.18720373728E+02 -0.27474457269E+02  0.34567659132E+02  0.00000000000E+00 0. -1.
        -13    1    5    5    0    0  0.55226473080E+03 -0.15456716316E+03 -0.94183806262E+03  0.11026995407E+04  0.00000000000E+00 0.  1.
          4    1    6    6  503    0 -0.22854570078E+02 -0.33028783012E+01 -0.22906014564E+02  0.32525772577E+02  0.00000000000E+00 0. -1.
         -4    1    6    6    0  503 -0.27603039182E+03  0.56237610730E+02 -0.87564071541E+03  0.91983808822E+03  0.00000000000E+00 0.  1.
<mgrwt>
<rscale>  0 0.22563599E+04</rscale>
<asrwt>0</asrwt>
<pdfrwt beam="1">  1        2 0.31112189E+00 0.22563599E+04</pdfrwt>
<pdfrwt beam="2">  1       -1 0.96827671E-01 0.22563599E+04</pdfrwt>
<totfact> 0.68958736E+00</totfact>
</mgrwt>
</event>
<event>
12    7  0.1544987E-007  0.1786760E+04  0.7818608E-02  0.8713372E-01
         -1   -1    0    0    0  501 -0.00000000000E+00  0.00000000000E+00  0.80016388284E+03  0.80016388284E+03  0.00000000000E+00 0.  1.
          2   -1    0    0  501    0  0.00000000000E+00 -0.00000000000E+00 -0.99745517071E+03  0.99745517071E+03  0.00000000000E+00 0. -1.
         24    2    1    2    0    0  0.27433487166E+03 -0.30706876468E+03 -0.59970024960E+03  0.73204716863E+03  0.81864642360E+02 0.  0.
        254    2    1    2    0    0 -0.27433487166E+03  0.30706876468E+03  0.40240896173E+03  0.10655718849E+04  0.89663795447E+03 0.  0.
         23    2    4    4    0    0  0.19923205082E+03 -0.17824266591E+03  0.22304514442E+02  0.28334018755E+03  0.91215746954E+02 0.  0.
         23    2    4    4    0    0 -0.47356692249E+03  0.48531143059E+03  0.38010444729E+03  0.78223169737E+03  0.87259513981E+02 0.  0.
          4    1    3    3  502    0  0.26556232606E+03 -0.27032528561E+03 -0.56760928743E+03  0.68248033835E+03  0.00000000000E+00 0. -1.
         -3    1    3    3    0  502  0.87725456053E+01 -0.36743479064E+02 -0.32090962179E+02  0.49566830276E+02  0.00000000000E+00 0.  1.
         13    1    5    5    0    0  0.17989777955E+03 -0.12402503298E+03  0.41990116108E+02  0.22250525779E+03  0.00000000000E+00 0.  1.
        -13    1    5    5    0    0  0.19334271270E+02 -0.54217632936E+02 -0.19685601665E+02  0.60834929766E+02  0.00000000000E+00 0. -1.
          4    1    6    6  503    0 -0.26507528313E+03  0.31957350178E+03  0.26140584583E+03  0.49063748837E+03  0.00000000000E+00 0. -1.
         -4    1    6    6    0  503 -0.20849163936E+03  0.16573792881E+03  0.11869860146E+03  0.29159420899E+03  0.00000000000E+00 0.  1.
<mgrwt>
<rscale>  0 0.17867598E+04</rscale>
<asrwt>0</asrwt>
<pdfrwt beam="1">  1        2 0.15345464E+00 0.17867598E+04</pdfrwt>
<pdfrwt beam="2">  1       -1 0.12310214E+00 0.17867598E+04</pdfrwt>
<totfact> 0.15849402E+01</totfact>
</mgrwt>
</event>
<event>
12    7  0.1544987E-007  0.1593332E+04  0.7818608E-02  0.8824655E-01
          2   -1    0    0  501    0  0.00000000000E+00  0.00000000000E+00  0.69125535187E+03  0.69125535187E+03  0.00000000000E+00 0. -1.
         -1   -1    0    0    0  501 -0.00000000000E+00 -0.00000000000E+00 -0.91815062152E+03  0.91815062152E+03  0.00000000000E+00 0.  1.
         24    2    1    2    0    0  0.17910098275E+03 -0.13104212010E+03  0.42351216993E+03  0.48475921895E+03  0.79873293509E+02 0.  0.
        254    2    1    2    0    0 -0.17910098275E+03  0.13104212010E+03 -0.65040743958E+03  0.11246467544E+04  0.89025349510E+03 0.  0.
         23    2    4    4    0    0 -0.37562228479E+03 -0.25849178706E+03 -0.25530867052E+03  0.52969594796E+03  0.86516907250E+02 0.  0.
         23    2    4    4    0    0  0.19652130204E+03  0.38953390716E+03 -0.39509876906E+03  0.59495080647E+03  0.86637969888E+02 0.  0.
          2    1    3    3  502    0  0.12662105758E+03 -0.11611017459E+03  0.37185365065E+03  0.40962129140E+03  0.00000000000E+00 0. -1.
         -1    1    3    3    0  502  0.52479925167E+02 -0.14931945508E+02  0.51658519280E+02  0.75137927549E+02  0.00000000000E+00 0.  1.
         13    1    5    5    0    0 -0.12886366032E+03 -0.13101748683E+03 -0.12935112382E+03  0.22472903248E+03  0.00000000000E+00 0. -1.
        -13    1    5    5    0    0 -0.24675862447E+03 -0.12747430023E+03 -0.12595754670E+03  0.30496691548E+03  0.00000000000E+00 0.  1.
          3    1    6    6  503    0  0.58457129093E+02  0.12884200978E+03 -0.76838687785E+02  0.16100212224E+03  0.00000000000E+00 0. -1.
         -3    1    6    6    0  503  0.13806417295E+03  0.26069189738E+03 -0.31826008128E+03  0.43394868423E+03  0.00000000000E+00 0.  1.
<mgrwt>
<rscale>  0 0.15933318E+04</rscale>
<asrwt>0</asrwt>
<pdfrwt beam="1">  1        2 0.10634698E+00 0.15933318E+04</pdfrwt>
<pdfrwt beam="2">  1       -1 0.14125394E+00 0.15933318E+04</pdfrwt>
<totfact> 0.18681356E+01</totfact>
</mgrwt>
</event>
<event>
12    7  0.1544987E-007  0.1853605E+04  0.7818608E-02  0.8678301E-01
         -3   -1    0    0    0  501 -0.00000000000E+00  0.00000000000E+00  0.13232521862E+04  0.13232521862E+04  0.00000000000E+00 0.  1.
          2   -1    0    0  501    0  0.00000000000E+00 -0.00000000000E+00 -0.64913010101E+03  0.64913010101E+03  0.00000000000E+00 0. -1.
         24    2    1    2    0    0  0.47897573197E+03  0.41240734043E+03  0.15554922770E+03  0.65602370667E+03  0.81694401368E+02 0.  0.
        254    2    1    2    0    0 -0.47897573197E+03 -0.41240734043E+03  0.51857285749E+03  0.13163585805E+04  0.10316901365E+04 0.  0.
         23    2    4    4    0    0  0.13353156519E+03  0.25309260272E+03  0.14464422796E+03  0.33338813791E+03  0.91318964972E+02 0.  0.
         23    2    4    4    0    0 -0.61250729716E+03 -0.66549994315E+03  0.37392862953E+03  0.98297044262E+03  0.91394243112E+02 0.  0.
          2    1    3    3  502    0  0.59414106243E+02  0.63079565006E+02 -0.54584421382E+01  0.86826621105E+02  0.00000000000E+00 0. -1.
         -1    1    3    3    0  502  0.41956162573E+03  0.34932777543E+03  0.16100766984E+03  0.56919708557E+03  0.00000000000E+00 0.  1.
         13    1    5    5    0    0  0.10450190583E+03  0.20247543305E+03  0.15298046683E+03  0.27444484426E+03  0.00000000000E+00 0.  1.
        -13    1    5    5    0    0  0.29029659360E+02  0.50617169667E+02 -0.83362388653E+01  0.58943293648E+02  0.00000000000E+00 0. -1.
          1    1    6    6  503    0 -0.86463875535E+01 -0.32979456124E+02  0.20352820036E+02  0.39706949359E+02  0.00000000000E+00 0. -1.
         -1    1    6    6    0  503 -0.60386090961E+03 -0.63252048703E+03  0.35357580949E+03  0.94326349326E+03  0.00000000000E+00 0.  1.
<mgrwt>
<rscale>  0 0.18536049E+04</rscale>
<asrwt>0</asrwt>
<pdfrwt beam="1">  1        2 0.99866170E-01 0.18536049E+04</pdfrwt>
<pdfrwt beam="2">  1       -3 0.20357726E+00 0.18536049E+04</pdfrwt>
<totfact> 0.36900722E+00</totfact>
</mgrwt>
</event>
<event>
12    7  0.1544987E-007  0.1547374E+04  0.7818608E-02  0.8853547E-01
          2   -1    0    0  501    0  0.00000000000E+00  0.00000000000E+00  0.53845449006E+03  0.53845449006E+03  0.00000000000E+00 0. -1.
         -1   -1    0    0    0  501 -0.00000000000E+00 -0.00000000000E+00 -0.11116849096E+04  0.11116849096E+04  0.00000000000E+00 0.  1.
         24    2    1    2    0    0 -0.40661090223E+03  0.32209909751E+03 -0.17291374843E+03  0.55262993364E+03  0.80127552830E+02 0.  0.
        254    2    1    2    0    0  0.40661090223E+03 -0.32209909751E+03 -0.40031667108E+03  0.10975094660E+04  0.88045064391E+03 0.  0.
         23    2    4    4    0    0  0.39726482684E+03 -0.58929318273E+03 -0.38891842691E+03  0.81532572113E+03  0.91720722336E+02 0.  0.
         23    2    4    4    0    0  0.93460753960E+01  0.26719408522E+03 -0.11398244178E+02  0.28218374486E+03  0.89541708668E+02 0.  0.
          4    1    3    3  502    0 -0.23805771198E+03  0.14549741291E+03 -0.11470193014E+03  0.30165792576E+03  0.00000000000E+00 0. -1.
         -3    1    3    3    0  502 -0.16855319025E+03  0.17660168460E+03 -0.58211818286E+02  0.25097200787E+03  0.00000000000E+00 0.  1.
         13    1    5    5    0    0  0.53853962367E+02 -0.12325564240E+03 -0.44289489407E+02  0.14161130434E+03  0.00000000000E+00 0. -1.
        -13    1    5    5    0    0  0.34341086447E+03 -0.46603754033E+03 -0.34462893750E+03  0.67371441679E+03  0.00000000000E+00 0.  1.
          3    1    6    6  503    0  0.25660037940E+01  0.96151203379E+02 -0.47447822567E+02  0.10725173263E+03  0.00000000000E+00 0. -1.
         -3    1    6    6    0  503  0.67800716020E+01  0.17104288184E+03  0.36049578389E+02  0.17493201222E+03  0.00000000000E+00 0.  1.
<mgrwt>
<rscale>  0 0.15473742E+04</rscale>
<asrwt>0</asrwt>
<pdfrwt beam="1">  1        2 0.82839153E-01 0.15473742E+04</pdfrwt>
<pdfrwt beam="2">  1       -1 0.17102845E+00 0.15473742E+04</pdfrwt>
<totfact> 0.15020577E+01</totfact>
</mgrwt>
</event>
<event>
12    7  0.1544987E-007  0.2059371E+04  0.7818608E-02  0.8579355E-01
          2   -1    0    0  501    0  0.00000000000E+00  0.00000000000E+00  0.23380561471E+04  0.23380561471E+04  0.00000000000E+00 0. -1.
         -1   -1    0    0    0  501 -0.00000000000E+00 -0.00000000000E+00 -0.45347604729E+03  0.45347604729E+03  0.00000000000E+00 0.  1.
         24    2    1    2    0    0  0.72247678463E+02 -0.13409480466E+03  0.18643109035E+04  0.18720586245E+04  0.75810322627E+02 0.  0.
        254    2    1    2    0    0 -0.72247678463E+02  0.13409480466E+03  0.20269196317E+02  0.91947356989E+03  0.90654269713E+03 0.  0.
         23    2    4    4    0    0 -0.26428249152E+03  0.14395844881E+03 -0.36345332497E+03  0.48148436210E+03  0.95705805504E+02 0.  0.
         23    2    4    4    0    0  0.19203481306E+03 -0.98636441490E+01  0.38372252128E+03  0.43798920779E+03  0.87274921367E+02 0.  0.
          2    1    3    3  502    0  0.51164902702E+02 -0.13710879889E+03  0.14987565454E+04  0.15058844087E+04  0.00000000000E+00 0. -1.
         -1    1    3    3    0  502  0.21082775762E+02  0.30139942339E+01  0.36555435807E+03  0.36617421578E+03  0.00000000000E+00 0.  1.
         13    1    5    5    0    0 -0.18243576300E+03  0.10071317343E+03 -0.31309446280E+03  0.37610383349E+03  0.00000000000E+00 0. -1.
        -13    1    5    5    0    0 -0.81846728521E+02  0.43245275380E+02 -0.50358862161E+02  0.10538052861E+03  0.00000000000E+00 0.  1.
          1    1    6    6  503    0  0.18765568175E+03  0.12474417228E+02  0.34947913336E+03  0.39687016849E+03  0.00000000000E+00 0. -1.
         -1    1    6    6    0  503  0.43791313079E+01 -0.22338061377E+02  0.34243387922E+02  0.41119039306E+02  0.00000000000E+00 0.  1.
<mgrwt>
<rscale>  0 0.20593712E+04</rscale>
<asrwt>0</asrwt>
<pdfrwt beam="1">  1        2 0.35970094E+00 0.20593712E+04</pdfrwt>
<pdfrwt beam="2">  1       -1 0.69765547E-01 0.20593712E+04</pdfrwt>
<totfact> 0.94320067E+00</totfact>
</mgrwt>
</event>
<event>
12    7  0.1544987E-007  0.2126888E+04  0.7818608E-02  0.8549491E-01
          2   -1    0    0  501    0  0.00000000000E+00  0.00000000000E+00  0.25563443075E+04  0.25563443075E+04  0.00000000000E+00 0. -1.
         -1   -1    0    0    0  501 -0.00000000000E+00 -0.00000000000E+00 -0.44239461704E+03  0.44239461704E+03  0.00000000000E+00 0.  1.
         24    2    1    2    0    0 -0.24856319026E+03  0.82747750166E+03  0.10292494054E+04  0.13461742616E+04  0.79549536803E+02 0.  0.
        254    2    1    2    0    0  0.24856319026E+03 -0.82747750166E+03  0.10847002851E+04  0.16525646629E+04  0.89882844939E+03 0.  0.
         23    2    4    4    0    0  0.36792388871E+03 -0.11550102398E+01  0.19176519519E+03  0.42676756723E+03  0.99936702047E+02 0.  0.
         23    2    4    4    0    0 -0.11936069846E+03 -0.82632249143E+03  0.89293508988E+03  0.12257970957E+04  0.90496458116E+02 0.  0.
          4    1    3    3  502    0 -0.20838108616E+03  0.65625266418E+03  0.86444293943E+03  0.11051478778E+04  0.00000000000E+00 0. -1.
         -3    1    3    3    0  502 -0.40182104102E+02  0.17122483749E+03  0.16480646598E+03  0.24102638381E+03  0.00000000000E+00 0.  1.
         13    1    5    5    0    0  0.31598103281E+03  0.26929914657E+02  0.13436534982E+03  0.34441730594E+03  0.00000000000E+00 0. -1.
        -13    1    5    5    0    0  0.51942855907E+02 -0.28084924896E+02  0.57399845366E+02  0.82350261288E+02  0.00000000000E+00 0.  1.
          2    1    6    6  503    0 -0.66929169639E+00 -0.47433699789E+02  0.84709346881E+02  0.97087987290E+02  0.00000000000E+00 0.  1.
         -2    1    6    6    0  503 -0.11869140676E+03 -0.77888879164E+03  0.80822574300E+03  0.11287091084E+04  0.00000000000E+00 0. -1.
<mgrwt>
<rscale>  0 0.21268878E+04</rscale>
<asrwt>0</asrwt>
<pdfrwt beam="1">  1        2 0.39328373E+00 0.21268878E+04</pdfrwt>
<pdfrwt beam="2">  1       -1 0.68060712E-01 0.21268878E+04</pdfrwt>
<totfact> 0.73853760E+00</totfact>
</mgrwt>
</event>
<event>
12    7  0.1544987E-007  0.1446571E+04  0.7818608E-02  0.8920781E-01
         -1   -1    0    0    0  501 -0.00000000000E+00  0.00000000000E+00  0.66906195896E+03  0.66906195896E+03  0.00000000000E+00 0.  1.
          2   -1    0    0  501    0  0.00000000000E+00 -0.00000000000E+00 -0.78190348913E+03  0.78190348913E+03  0.00000000000E+00 0. -1.
         24    2    1    2    0    0  0.82118811053E+02  0.28816308489E+03 -0.35377260898E+03  0.47054402032E+03  0.80468338960E+02 0.  0.
        254    2    1    2    0    0 -0.82118811053E+02 -0.28816308489E+03  0.24093107881E+03  0.98042142777E+03  0.90188520815E+03 0.  0.
         23    2    4    4    0    0 -0.37634763165E+03 -0.45669015613E+03  0.16200702597E+03  0.62018799845E+03  0.90462359070E+02 0.  0.
         23    2    4    4    0    0  0.29422882060E+03  0.16852707124E+03  0.78924052834E+02  0.36023342932E+03  0.92558872475E+02 0.  0.
          4    1    3    3  502    0  0.88286685773E+02  0.24090462732E+03 -0.32778407103E+03  0.41625950508E+03  0.00000000000E+00 0. -1.
         -3    1    3    3    0  502 -0.61678747206E+01  0.47258457563E+02 -0.25988537949E+02  0.54284515237E+02  0.00000000000E+00 0.  1.
         13    1    5    5    0    0 -0.17689115896E+03 -0.18032487093E+03  0.28720495555E+02  0.25422904645E+03  0.00000000000E+00 0.  1.
        -13    1    5    5    0    0 -0.19945647269E+03 -0.27636528520E+03  0.13328653042E+03  0.36595895200E+03  0.00000000000E+00 0. -1.
          2    1    6    6  503    0  0.72570595471E+02  0.91533530676E+02  0.28067815190E+02  0.12013609289E+03  0.00000000000E+00 0. -1.
         -2    1    6    6    0  503  0.22165822513E+03  0.76993540564E+02  0.50856237644E+02  0.24009733643E+03  0.00000000000E+00 0.  1.
<mgrwt>
<rscale>  0 0.14465710E+04</rscale>
<asrwt>0</asrwt>
<pdfrwt beam="1">  1        2 0.12029284E+00 0.14465710E+04</pdfrwt>
<pdfrwt beam="2">  1       -1 0.10293261E+00 0.14465710E+04</pdfrwt>
<totfact> 0.35080474E+01</totfact>
</mgrwt>
</event>
<event>
12    7  0.1544987E-007  0.1844239E+04  0.7818608E-02  0.8683121E-01
         -1   -1    0    0    0  501 -0.00000000000E+00  0.00000000000E+00  0.33285822100E+03  0.33285822100E+03  0.00000000000E+00 0.  1.
          2   -1    0    0  501    0  0.00000000000E+00 -0.00000000000E+00 -0.25545544908E+04  0.25545544908E+04  0.00000000000E+00 0. -1.
         24    2    1    2    0    0  0.14549463654E+03  0.36915654541E+03 -0.17427865230E+04  0.17891619812E+04  0.79689935830E+02 0.  0.
        254    2    1    2    0    0 -0.14549463654E+03 -0.36915654541E+03 -0.47890974687E+03  0.10982507307E+04  0.90518223442E+03 0.  0.
         23    2    4    4    0    0 -0.11267168734E+03 -0.66067753944E+03 -0.37898652716E+03  0.77538617204E+03  0.91669012056E+02 0.  0.
         23    2    4    4    0    0 -0.32822949197E+02  0.29152099403E+03 -0.99923219709E+02  0.32286455864E+03  0.90526446042E+02 0.  0.
          4    1    3    3  502    0  0.11703950739E+03  0.35180750305E+03 -0.15693726274E+04  0.16125747142E+04  0.00000000000E+00 0. -1.
         -3    1    3    3    0  502  0.28455129144E+02  0.17349042360E+02 -0.17341389560E+03  0.17658726691E+03  0.00000000000E+00 0.  1.
         13    1    5    5    0    0 -0.45724958935E+02 -0.49188679845E+03 -0.29429633788E+03  0.57502498106E+03  0.00000000000E+00 0.  1.
        -13    1    5    5    0    0 -0.66946728405E+02 -0.16879074099E+03 -0.84690189276E+02  0.20036119098E+03  0.00000000000E+00 0. -1.
          4    1    6    6  503    0  0.20746831038E+02  0.17340561539E+03 -0.78246360180E+02  0.19136988093E+03  0.00000000000E+00 0. -1.
         -4    1    6    6    0  503 -0.53569780234E+02  0.11811537864E+03 -0.21676859530E+02  0.13149467771E+03  0.00000000000E+00 0.  1.
<mgrwt>
<rscale>  0 0.18442391E+04</rscale>
<asrwt>0</asrwt>
<pdfrwt beam="1">  1        2 0.39300838E+00 0.18442391E+04</pdfrwt>
<pdfrwt beam="2">  1       -1 0.51208957E-01 0.18442391E+04</pdfrwt>
<totfact> 0.13305334E+01</totfact>
</mgrwt>
</event>
<event>
12    7  0.1544987E-007  0.1620887E+04  0.7818608E-02  0.8807818E-01
          2   -1    0    0  501    0  0.00000000000E+00  0.00000000000E+00  0.25991280394E+04  0.25991280394E+04  0.00000000000E+00 0. -1.
         -1   -1    0    0    0  501 -0.00000000000E+00 -0.00000000000E+00 -0.25270726985E+03  0.25270726985E+03  0.00000000000E+00 0.  1.
         24    2    1    2    0    0 -0.20370608485E+02 -0.72939956004E+01 -0.14563542044E+03  0.16792740988E+03  0.80757508882E+02 0.  0.
        254    2    1    2    0    0  0.20370608485E+02  0.72939956004E+01  0.24920561900E+04  0.26839078993E+04  0.99626773217E+03 0.  0.
         23    2    4    4    0    0 -0.43615334861E+03  0.40951727229E+02  0.69076942274E+03  0.82304520164E+03  0.91291955135E+02 0.  0.
         23    2    4    4    0    0  0.45652395710E+03 -0.33657731629E+02  0.18012867672E+04  0.18608626977E+04  0.92892387425E+02 0.  0.
          4    1    3    3  502    0  0.22544432216E+02 -0.84239328302E+01 -0.10719767459E+02  0.26346299221E+02  0.00000000000E+00 0. -1.
         -3    1    3    3    0  502 -0.42915040700E+02  0.11299372299E+01 -0.13491565298E+03  0.14158111066E+03  0.00000000000E+00 0.  1.
         13    1    5    5    0    0 -0.40699043963E+03  0.35823624917E+02  0.58738362790E+03  0.71550267392E+03  0.00000000000E+00 0. -1.
        -13    1    5    5    0    0 -0.29162908979E+02  0.51281023122E+01  0.10338579484E+03  0.10754252772E+03  0.00000000000E+00 0.  1.
          2    1    6    6  503    0  0.85519651643E+02  0.28544305835E+02  0.39177387673E+03  0.40201387874E+03  0.00000000000E+00 0. -1.
         -2    1    6    6    0  503  0.37100430546E+03 -0.62202037464E+02  0.14095128905E+04  0.14588488190E+04  0.00000000000E+00 0.  1.
<mgrwt>
<rscale>  0 0.16208869E+04</rscale>
<asrwt>0</asrwt>
<pdfrwt beam="1">  1        2 0.39986583E+00 0.16208869E+04</pdfrwt>
<pdfrwt beam="2">  1       -1 0.38878043E-01 0.16208869E+04</pdfrwt>
<totfact> 0.21368990E+01</totfact>
</mgrwt>
</event>
<event>
12    7  0.1544987E-007  0.1324338E+04  0.7818608E-02  0.9010485E-01
          2   -1    0    0  501    0  0.00000000000E+00  0.00000000000E+00  0.10133889500E+04  0.10133889500E+04  0.00000000000E+00 0. -1.
         -1   -1    0    0    0  501 -0.00000000000E+00 -0.00000000000E+00 -0.43267459324E+03  0.43267459324E+03  0.00000000000E+00 0.  1.
         24    2    1    2    0    0 -0.25094804518E+03 -0.15330772980E+03  0.36803669679E+03  0.47769867742E+03  0.79163342696E+02 0.  0.
        254    2    1    2    0    0  0.25094804518E+03  0.15330772980E+03  0.21267765996E+03  0.96836486581E+03  0.89778646955E+03 0.  0.
         23    2    4    4    0    0  0.34794035465E+03  0.45228483078E+03  0.26798270744E+03  0.63676945204E+03  0.89646779186E+02 0.  0.
         23    2    4    4    0    0 -0.96992309475E+02 -0.29897710098E+03 -0.55305047479E+02  0.33159541377E+03  0.90011416792E+02 0.  0.
          4    1    3    3  502    0 -0.17844809394E+03 -0.14029857645E+03  0.24262795279E+03  0.33225853828E+03  0.00000000000E+00 0. -1.
         -3    1    3    3    0  502 -0.72499951238E+02 -0.13009153350E+02  0.12540874400E+03  0.14544013914E+03  0.00000000000E+00 0.  1.
         13    1    5    5    0    0  0.34881880172E+03  0.43547653819E+03  0.26994117488E+03  0.61982466040E+03  0.00000000000E+00 0.  1.
        -13    1    5    5    0    0 -0.87844706296E+00  0.16808292588E+02 -0.19584674452E+01  0.16944791639E+02  0.00000000000E+00 0. -1.
          2    1    6    6  503    0  0.18244989938E+00 -0.31150446952E+02  0.19851578821E+02  0.36938717018E+02  0.00000000000E+00 0. -1.
         -2    1    6    6    0  503 -0.97174759374E+02 -0.26782665402E+03 -0.75156626300E+02  0.29465669675E+03  0.00000000000E+00 0.  1.
<mgrwt>
<rscale>  0 0.13243378E+04</rscale>
<asrwt>0</asrwt>
<pdfrwt beam="1">  1        2 0.15590599E+00 0.13243378E+04</pdfrwt>
<pdfrwt beam="2">  1       -1 0.66565322E-01 0.13243378E+04</pdfrwt>
<totfact> 0.63046599E+01</totfact>
</mgrwt>
</event>
<event>
12    7  0.1544987E-007  0.1451115E+04  0.7818608E-02  0.8917628E-01
          2   -1    0    0  501    0  0.00000000000E+00  0.00000000000E+00  0.42519066227E+03  0.42519066227E+03  0.00000000000E+00 0. -1.
         -1   -1    0    0    0  501 -0.00000000000E+00 -0.00000000000E+00 -0.12381116129E+04  0.12381116129E+04  0.00000000000E+00 0.  1.
         24    2    1    2    0    0  0.30028960580E+03  0.65002843416E+02 -0.60940378342E+03  0.68722056594E+03  0.80622068953E+02 0.  0.
        254    2    1    2    0    0 -0.30028960580E+03 -0.65002843416E+02 -0.20351716718E+03  0.97608170920E+03  0.90383463571E+03 0.  0.
         23    2    4    4    0    0 -0.16506749245E+03  0.40658376994E+03 -0.15639328344E+03  0.47493405558E+03  0.92443815340E+02 0.  0.
         23    2    4    4    0    0 -0.13522211335E+03 -0.47158661336E+03 -0.47123883737E+02  0.50114765363E+03  0.90825968090E+02 0.  0.
          4    1    3    3  502    0  0.12211333535E+03  0.12432386690E+02 -0.32615495365E+03  0.34848713707E+03  0.00000000000E+00 0. -1.
         -3    1    3    3    0  502  0.17817627045E+03  0.52570456726E+02 -0.28324882976E+03  0.33873342887E+03  0.00000000000E+00 0.  1.
         13    1    5    5    0    0 -0.10567794546E+02  0.76337552872E+01  0.94409695014E+01  0.16096099107E+02  0.00000000000E+00 0.  1.
        -13    1    5    5    0    0 -0.15449969791E+03  0.39895001466E+03 -0.16583425294E+03  0.45883795647E+03  0.00000000000E+00 0. -1.
          1    1    6    6  503    0 -0.91625764921E+02 -0.20303420332E+03  0.10678312134E+02  0.22300716326E+03  0.00000000000E+00 0. -1.
         -1    1    6    6    0  503 -0.43596348427E+02 -0.26855241004E+03 -0.57802195871E+02  0.27814049037E+03  0.00000000000E+00 0.  1.
<mgrwt>
<rscale>  0 0.14511147E+04</rscale>
<asrwt>0</asrwt>
<pdfrwt beam="1">  1        2 0.65413948E-01 0.14511147E+04</pdfrwt>
<pdfrwt beam="2">  1       -1 0.19047871E+00 0.14511147E+04</pdfrwt>
<totfact> 0.14429265E+01</totfact>
</mgrwt>
</event>
<event>
12    7  0.1544987E-007  0.1418551E+04  0.7818608E-02  0.8940499E-01
         -1   -1    0    0    0  501 -0.00000000000E+00  0.00000000000E+00  0.33823264123E+03  0.33823264123E+03  0.00000000000E+00 0.  1.
          2   -1    0    0  501    0  0.00000000000E+00 -0.00000000000E+00 -0.14873544601E+04  0.14873544601E+04  0.00000000000E+00 0. -1.
         24    2    1    2    0    0  0.48936631473E+01  0.38639858144E+02 -0.80312067986E+03  0.80821718736E+03  0.81824256420E+02 0.  0.
        254    2    1    2    0    0 -0.48936631473E+01 -0.38639858144E+02 -0.34600113902E+03  0.10173699140E+04  0.95593293023E+03 0.  0.
         23    2    4    4    0    0  0.11108348495E+03 -0.23376106322E+03 -0.60233029343E+03  0.66167589602E+03  0.89607107303E+02 0.  0.
         23    2    4    4    0    0 -0.11597714810E+03  0.19512120507E+03  0.25632915442E+03  0.35569401796E+03  0.96387838749E+02 0.  0.
          4    1    3    3  502    0 -0.32085563717E+01 -0.21757881930E+02 -0.39071860786E+03  0.39133710632E+03  0.00000000000E+00 0. -1.
         -3    1    3    3    0  502  0.81022195190E+01  0.60397740074E+02 -0.41240207201E+03  0.41688008103E+03  0.00000000000E+00 0.  1.
         13    1    5    5    0    0  0.33943602758E+02 -0.16883082845E+03 -0.40451424786E+03  0.43964507677E+03  0.00000000000E+00 0. -1.
        -13    1    5    5    0    0  0.77139882190E+02 -0.64930234765E+02 -0.19781604557E+03  0.22203081925E+03  0.00000000000E+00 0.  1.
          3    1    6    6  503    0 -0.23189247717E+02  0.13217111333E+03  0.14817442172E+03  0.19990648729E+03  0.00000000000E+00 0. -1.
         -3    1    6    6    0  503 -0.92787900378E+02  0.62950091739E+02  0.10815473270E+03  0.15578753067E+03  0.00000000000E+00 0.  1.
<mgrwt>
<rscale>  0 0.14185511E+04</rscale>
<asrwt>0</asrwt>
<pdfrwt beam="1">  1        2 0.22882376E+00 0.14185511E+04</pdfrwt>
<pdfrwt beam="2">  1       -1 0.52035791E-01 0.14185511E+04</pdfrwt>
<totfact> 0.53145947E+01</totfact>
</mgrwt>
</event>
<event>
12    7  0.1544987E-007  0.1683676E+04  0.7818608E-02  0.8770729E-01
          4   -1    0    0  501    0  0.00000000000E+00  0.00000000000E+00  0.69196523123E+03  0.69196523123E+03  0.00000000000E+00 0. -1.
         -3   -1    0    0    0  501 -0.00000000000E+00 -0.00000000000E+00 -0.10241721112E+04  0.10241721112E+04  0.00000000000E+00 0.  1.
         24    2    1    2    0    0  0.13702432641E+03 -0.56910607582E+03 -0.21802229166E+03  0.63168630942E+03  0.94002565322E+02 0.  0.
        254    2    1    2    0    0 -0.13702432641E+03  0.56910607582E+03 -0.11418458834E+03  0.10844510330E+04  0.90572541717E+03 0.  0.
         23    2    4    4    0    0 -0.19398603202E+03  0.19015398819E+03  0.36488336858E+03  0.46444252377E+03  0.93690262955E+02 0.  0.
         23    2    4    4    0    0  0.56961705610E+02  0.37895208763E+03 -0.47906795692E+03  0.62000850928E+03  0.89750340419E+02 0.  0.
          4    1    3    3  502    0  0.33421993966E+02 -0.34362396875E+02 -0.12740225059E+02  0.49599569899E+02  0.00000000000E+00 0. -1.
         -3    1    3    3    0  502  0.10360233244E+03 -0.53474367895E+03 -0.20528206660E+03  0.58208673952E+03  0.00000000000E+00 0.  1.
         13    1    5    5    0    0 -0.10644957683E+03  0.16279722351E+03  0.22830911909E+03  0.29993249616E+03  0.00000000000E+00 0.  1.
        -13    1    5    5    0    0 -0.87536455185E+02  0.27356764677E+02  0.13657424949E+03  0.16451002761E+03  0.00000000000E+00 0. -1.
          3    1    6    6  503    0  0.18660630709E+02  0.16323603375E+03 -0.13764923333E+03  0.21433976133E+03  0.00000000000E+00 0. -1.
         -3    1    6    6    0  503  0.38301074901E+02  0.21571605388E+03 -0.34141872359E+03  0.40566874795E+03  0.00000000000E+00 0.  1.
<mgrwt>
<rscale>  0 0.16836763E+04</rscale>
<asrwt>0</asrwt>
<pdfrwt beam="1">  1        4 0.10645619E+00 0.16836763E+04</pdfrwt>
<pdfrwt beam="2">  1       -3 0.15756494E+00 0.16836763E+04</pdfrwt>
<totfact> 0.43897145E-01</totfact>
</mgrwt>
</event>
<event>
12    7  0.1544987E-007  0.2078672E+04  0.7818608E-02  0.8570697E-01
         -1   -1    0    0    0  501 -0.00000000000E+00  0.00000000000E+00  0.63815518198E+03  0.63815518198E+03  0.00000000000E+00 0.  1.
          2   -1    0    0  501    0  0.00000000000E+00 -0.00000000000E+00 -0.16927218692E+04  0.16927218692E+04  0.00000000000E+00 0. -1.
         24    2    1    2    0    0 -0.85350837354E+02 -0.23152470902E+03  0.47413985639E+03  0.54057261779E+03  0.80757014328E+02 0.  0.
        254    2    1    2    0    0  0.85350837354E+02  0.23152470902E+03 -0.15287065436E+04  0.17903044334E+04  0.89853091848E+03 0.  0.
         23    2    4    4    0    0 -0.11001406659E+03  0.44203743893E+03 -0.37266652544E+03  0.59559241274E+03  0.91377188963E+02 0.  0.
         23    2    4    4    0    0  0.19536490394E+03 -0.21051272990E+03 -0.11560400182E+04  0.11947120207E+04  0.91789071084E+02 0.  0.
          2    1    3    3  502    0 -0.25612997651E+02 -0.58378436372E+02  0.20758801415E+03  0.21715628267E+03  0.00000000000E+00 0. -1.
         -1    1    3    3    0  502 -0.59737839703E+02 -0.17314627265E+03  0.26655184224E+03  0.32341633512E+03  0.00000000000E+00 0.  1.
         13    1    5    5    0    0 -0.37306601179E+02  0.10600231077E+03 -0.14410175084E+03  0.18273912273E+03  0.00000000000E+00 0.  1.
        -13    1    5    5    0    0 -0.72707465411E+02  0.33603512815E+03 -0.22856477460E+03  0.41285329000E+03  0.00000000000E+00 0. -1.
          4    1    6    6  503    0  0.17332674278E+03 -0.21209473689E+03 -0.98945675966E+03  0.10266698673E+04  0.00000000000E+00 0. -1.
         -4    1    6    6    0  503  0.22038161164E+02  0.15820069809E+01 -0.16658325852E+03  0.16804215338E+03  0.00000000000E+00 0.  1.
<mgrwt>
<rscale>  0 0.20786719E+04</rscale>
<asrwt>0</asrwt>
<pdfrwt beam="1">  1        2 0.26041874E+00 0.20786719E+04</pdfrwt>
<pdfrwt beam="2">  1       -1 0.98177722E-01 0.20786719E+04</pdfrwt>
<totfact> 0.10344370E+01</totfact>
</mgrwt>
</event>
<event>
12    7  0.1544987E-007  0.2630996E+04  0.7818608E-02  0.8357748E-01
          2   -1    0    0  501    0  0.00000000000E+00  0.00000000000E+00  0.24117475190E+04  0.24117475190E+04  0.00000000000E+00 0. -1.
         -1   -1    0    0    0  501 -0.00000000000E+00 -0.00000000000E+00 -0.71754399190E+03  0.71754399190E+03  0.00000000000E+00 0.  1.
         24    2    1    2    0    0 -0.53889182764E+03  0.39969204691E+03 -0.37820959229E+03  0.77424480081E+03  0.79084648452E+02 0.  0.
        254    2    1    2    0    0  0.53889182764E+03 -0.39969204691E+03  0.20724131194E+04  0.23550467101E+04  0.89509258461E+03 0.  0.
         23    2    4    4    0    0 -0.14908301341E+03  0.10739695127E+03  0.75260288046E+03  0.78001101426E+03  0.90808791733E+02 0.  0.
         23    2    4    4    0    0  0.68797484105E+03 -0.50708899818E+03  0.13198102389E+04  0.15750356958E+04  0.91595536787E+02 0.  0.
          2    1    3    3  502    0  0.24984041575E+01  0.39925234376E+01 -0.47151474392E+01  0.66644491226E+01  0.00000000000E+00 0. -1.
         -1    1    3    3    0  502 -0.54139023180E+03  0.39569952348E+03 -0.37349444485E+03  0.76758035169E+03  0.00000000000E+00 0.  1.
         13    1    5    5    0    0 -0.68074743615E+02  0.52210402998E+00  0.19620520784E+03  0.20767986637E+03  0.00000000000E+00 0.  1.
        -13    1    5    5    0    0 -0.81008269796E+02  0.10687484724E+03  0.55639767263E+03  0.57233114790E+03  0.00000000000E+00 0. -1.
          3    1    6    6  503    0  0.15223223036E+03 -0.15987717062E+03  0.35984548555E+03  0.42216600422E+03  0.00000000000E+00 0. -1.
         -3    1    6    6    0  503  0.53574261070E+03 -0.34721182756E+03  0.95996475337E+03  0.11528696916E+04  0.00000000000E+00 0.  1.
<mgrwt>
<rscale>  0 0.26309960E+04</rscale>
<asrwt>0</asrwt>
<pdfrwt beam="1">  1        2 0.37103808E+00 0.26309960E+04</pdfrwt>
<pdfrwt beam="2">  1       -1 0.11039138E+00 0.26309960E+04</pdfrwt>
<totfact> 0.29715225E+00</totfact>
</mgrwt>
</event>
<event>
12    7  0.1544987E-007  0.1879978E+04  0.7818608E-02  0.8664887E-01
         -1   -1    0    0    0  501 -0.00000000000E+00  0.00000000000E+00  0.76162194261E+03  0.76162194261E+03  0.00000000000E+00 0.  1.
          2   -1    0    0  501    0  0.00000000000E+00 -0.00000000000E+00 -0.11601286439E+04  0.11601286439E+04  0.00000000000E+00 0. -1.
         24    2    1    2    0    0  0.61613550781E+03  0.25101497216E+03 -0.55395679885E+03  0.86945071289E+03  0.80280302179E+02 0.  0.
        254    2    1    2    0    0 -0.61613550781E+03 -0.25101497216E+03  0.15545009755E+03  0.10522998736E+04  0.80033668602E+03 0.  0.
         23    2    4    4    0    0 -0.68114423406E+03  0.14587035555E+01 -0.77753592354E+02  0.69163775615E+03  0.91419741906E+02 0.  0.
         23    2    4    4    0    0  0.65008726246E+02 -0.25247367571E+03  0.23320368991E+03  0.36066211748E+03  0.87886919293E+02 0.  0.
          2    1    3    3  502    0  0.59110231440E+03  0.22447661619E+03 -0.53540314786E+03  0.82852171248E+03  0.00000000000E+00 0. -1.
         -1    1    3    3    0  502  0.25033193413E+02  0.26538355965E+02 -0.18553650988E+02  0.40929000413E+02  0.00000000000E+00 0.  1.
         13    1    5    5    0    0 -0.51900454538E+03 -0.15006223005E+02 -0.94695200387E+02  0.52778602277E+03  0.00000000000E+00 0.  1.
        -13    1    5    5    0    0 -0.16213968868E+03  0.16464926560E+02  0.16941608033E+02  0.16385173339E+03  0.00000000000E+00 0. -1.
          3    1    6    6  503    0 -0.46791664181E+01 -0.32194973987E+02  0.20360202794E+00  0.32533865466E+02  0.00000000000E+00 0.  1.
         -3    1    6    6    0  503  0.69687892664E+02 -0.22027870173E+03  0.23300008788E+03  0.32812825202E+03  0.00000000000E+00 0. -1.
<mgrwt>
<rscale>  0 0.18799781E+04</rscale>
<asrwt>0</asrwt>
<pdfrwt beam="1">  1        2 0.17848133E+00 0.18799781E+04</pdfrwt>
<pdfrwt beam="2">  1       -1 0.11717261E+00 0.18799781E+04</pdfrwt>
<totfact> 0.14050815E+01</totfact>
</mgrwt>
</event>
<event>
12    7  0.1544987E-007  0.1655882E+04  0.7818608E-02  0.8786934E-01
         -1   -1    0    0    0  501 -0.00000000000E+00  0.00000000000E+00  0.11093948769E+04  0.11093948769E+04  0.00000000000E+00 0.  1.
          2   -1    0    0  501    0  0.00000000000E+00 -0.00000000000E+00 -0.61789193629E+03  0.61789193629E+03  0.00000000000E+00 0. -1.
         24    2    1    2    0    0  0.50327291026E+03 -0.18151648264E+03  0.15384061125E+03  0.56144970288E+03  0.72986159816E+02 0.  0.
        254    2    1    2    0    0 -0.50327291026E+03  0.18151648264E+03  0.33766232940E+03  0.11658371103E+04  0.97924892826E+03 0.  0.
         23    2    4    4    0    0  0.17482554849E+03  0.23232833843E+03 -0.13293002380E+03  0.33297148222E+03  0.93054755380E+02 0.  0.
         23    2    4    4    0    0 -0.67809845875E+03 -0.50811855790E+02  0.47059235320E+03  0.83286562813E+03  0.99038513656E+02 0.  0.
          2    1    3    3  502    0  0.49687215495E+03 -0.18751340999E+03  0.14985114405E+03  0.55181390221E+03  0.00000000000E+00 0. -1.
         -1    1    3    3    0  502  0.64007553089E+01  0.59969273501E+01  0.39894672026E+01  0.96358006791E+01  0.00000000000E+00 0.  1.
         13    1    5    5    0    0  0.13480546602E+03  0.20066461804E+03 -0.69443915721E+02  0.25151791195E+03  0.00000000000E+00 0. -1.
        -13    1    5    5    0    0  0.40020082474E+02  0.31663720392E+02 -0.63486108077E+02  0.81453570266E+02  0.00000000000E+00 0.  1.
          2    1    6    6  503    0 -0.43044904672E+03 -0.79946251642E+02  0.30155757350E+03  0.53161523220E+03  0.00000000000E+00 0. -1.
         -2    1    6    6    0  503 -0.24764941203E+03  0.29134395852E+02  0.16903477970E+03  0.30125039593E+03  0.00000000000E+00 0.  1.
<mgrwt>
<rscale>  0 0.16558818E+04</rscale>
<asrwt>0</asrwt>
<pdfrwt beam="1">  1        2 0.95060298E-01 0.16558818E+04</pdfrwt>
<pdfrwt beam="2">  1       -1 0.17067614E+00 0.16558818E+04</pdfrwt>
<totfact> 0.12697002E+01</totfact>
</mgrwt>
</event>
<event>
12    7  0.1544987E-007  0.1649240E+04  0.7818608E-02  0.8790856E-01
          2   -1    0    0  501    0  0.00000000000E+00  0.00000000000E+00  0.17807605193E+04  0.17807605193E+04  0.00000000000E+00 0. -1.
         -1   -1    0    0    0  501 -0.00000000000E+00 -0.00000000000E+00 -0.38185833107E+03  0.38185833107E+03  0.00000000000E+00 0.  1.
         24    2    1    2    0    0  0.27142663713E+02 -0.41491336629E+03  0.10106220282E+04  0.10957512120E+04  0.80149915760E+02 0.  0.
        254    2    1    2    0    0 -0.27142663713E+02  0.41491336629E+03  0.38828016005E+03  0.10668676384E+04  0.90252714609E+03 0.  0.
         23    2    4    4    0    0 -0.31800147289E+02  0.69096197586E+03  0.32831043158E+03  0.77063771995E+03  0.87493168132E+02 0.  0.
         23    2    4    4    0    0  0.46574835761E+01 -0.27604860957E+03  0.59969728469E+02  0.29622991844E+03  0.89057673693E+02 0.  0.
          4    1    3    3  502    0  0.54196091796E+02 -0.27815651863E+03  0.64808976067E+03  0.70733910051E+03  0.00000000000E+00 0. -1.
         -3    1    3    3    0  502 -0.27053428084E+02 -0.13675684766E+03  0.36253226752E+03  0.38841211148E+03  0.00000000000E+00 0.  1.
         13    1    5    5    0    0 -0.41822507236E+02  0.61150625132E+03  0.31604577829E+03  0.68961870007E+03  0.00000000000E+00 0. -1.
        -13    1    5    5    0    0  0.10022359947E+02  0.79455724543E+02  0.12264653289E+02  0.81019019877E+02  0.00000000000E+00 0.  1.
          2    1    6    6  503    0 -0.28541867629E+02 -0.14946321496E+03 -0.27023459124E+00  0.15216426604E+03  0.00000000000E+00 0.  1.
         -2    1    6    6    0  503  0.33199351205E+02 -0.12658539461E+03  0.60239963060E+02  0.14406565239E+03  0.00000000000E+00 0. -1.
<mgrwt>
<rscale>  0 0.16492401E+04</rscale>
<asrwt>0</asrwt>
<pdfrwt beam="1">  1        2 0.27396315E+00 0.16492401E+04</pdfrwt>
<pdfrwt beam="2">  1       -1 0.58747437E-01 0.16492401E+04</pdfrwt>
<totfact> 0.28260165E+01</totfact>
</mgrwt>
</event>
<event>
12    7  0.1544987E-007  0.1655064E+04  0.7818608E-02  0.8787416E-01
          2   -1    0    0  501    0  0.00000000000E+00  0.00000000000E+00  0.88539697583E+03  0.88539697583E+03  0.00000000000E+00 0. -1.
         -1   -1    0    0    0  501 -0.00000000000E+00 -0.00000000000E+00 -0.77344877531E+03  0.77344877531E+03  0.00000000000E+00 0.  1.
         24    2    1    2    0    0 -0.34171638862E+03  0.17364655258E+03  0.42938717964E+03  0.58104573540E+03  0.79483212791E+02 0.  0.
        254    2    1    2    0    0  0.34171638862E+03 -0.17364655258E+03 -0.31743897912E+03  0.10778000157E+04  0.95601367824E+03 0.  0.
         23    2    4    4    0    0  0.50142238426E+03 -0.46160554860E+03 -0.19808231389E+03  0.71571708244E+03  0.92251011240E+02 0.  0.
         23    2    4    4    0    0 -0.15970599565E+03  0.28795899602E+03 -0.11935666523E+03  0.36208293330E+03  0.91824008924E+02 0.  0.
          4    1    3    3  502    0 -0.30839607069E+03  0.15698269760E+03  0.34427077872E+03  0.48813325316E+03  0.00000000000E+00 0. -1.
         -3    1    3    3    0  502 -0.33320317924E+02  0.16663854978E+02  0.85116400927E+02  0.92912482240E+02  0.00000000000E+00 0.  1.
         13    1    5    5    0    0  0.79445314699E+02 -0.32370464907E+02 -0.27674936107E+02  0.90140485435E+02  0.00000000000E+00 0. -1.
        -13    1    5    5    0    0  0.42197706956E+03 -0.42923508370E+03 -0.17040737778E+03  0.62557659700E+03  0.00000000000E+00 0.  1.
          2    1    6    6  503    0  0.88427209940E+01  0.32634369901E+02 -0.35331116879E+00  0.33813024742E+02  0.00000000000E+00 0. -1.
         -2    1    6    6    0  503 -0.16854871664E+03  0.25532462612E+03 -0.11900335406E+03  0.32826990856E+03  0.00000000000E+00 0.  1.
<mgrwt>
<rscale>  0 0.16550640E+04</rscale>
<asrwt>0</asrwt>
<pdfrwt beam="1">  1        2 0.13621492E+00 0.16550640E+04</pdfrwt>
<pdfrwt beam="2">  1       -1 0.11899212E+00 0.16550640E+04</pdfrwt>
<totfact> 0.20667960E+01</totfact>
</mgrwt>
</event>
<event>
12    7  0.1544987E-007  0.1258468E+04  0.7818608E-02  0.9063165E-01
          2   -1    0    0  501    0  0.00000000000E+00  0.00000000000E+00  0.42798654388E+04  0.42798654388E+04  0.00000000000E+00 0. -1.
         -1   -1    0    0    0  501 -0.00000000000E+00 -0.00000000000E+00 -0.92511203487E+02  0.92511203487E+02  0.00000000000E+00 0.  1.
         24    2    1    2    0    0  0.10682397216E+03  0.26360053537E+03  0.63294076786E+03  0.69905800192E+03  0.84684539064E+02 0.  0.
        254    2    1    2    0    0 -0.10682397216E+03 -0.26360053537E+03  0.35544134675E+04  0.36733186404E+04  0.88233674568E+03 0.  0.
         23    2    4    4    0    0  0.13752202237E+02 -0.57354769333E+03  0.23071238473E+04  0.23792086583E+04  0.93098407696E+02 0.  0.
         23    2    4    4    0    0 -0.12057617440E+03  0.30994715796E+03  0.12472896202E+04  0.12941099821E+04  0.91560878627E+02 0.  0.
          4    1    3    3  502    0  0.51783674805E+02  0.37261598683E+02  0.14028425668E+03  0.15410920928E+03  0.00000000000E+00 0. -1.
         -3    1    3    3    0  502  0.55040297354E+02  0.22633893669E+03  0.49265651118E+03  0.54494879264E+03  0.00000000000E+00 0.  1.
         13    1    5    5    0    0  0.12505572114E+02 -0.30667600876E+03  0.10431265056E+04  0.10873451478E+04  0.00000000000E+00 0. -1.
        -13    1    5    5    0    0  0.12466301227E+01 -0.26687168457E+03  0.12639973417E+04  0.12918635105E+04  0.00000000000E+00 0.  1.
          3    1    6    6  503    0 -0.65658022311E+02  0.17587576278E+03  0.86848876679E+03  0.88854712754E+03  0.00000000000E+00 0. -1.
         -3    1    6    6    0  503 -0.54918152085E+02  0.13407139518E+03  0.37880085344E+03  0.40556285456E+03  0.00000000000E+00 0.  1.
<mgrwt>
<rscale>  0 0.12584681E+04</rscale>
<asrwt>0</asrwt>
<pdfrwt beam="1">  1        2 0.65844068E+00 0.12584681E+04</pdfrwt>
<pdfrwt beam="2">  1       -1 0.14232496E-01 0.12584681E+04</pdfrwt>
<totfact> 0.82965145E+00</totfact>
</mgrwt>
</event>
<event>
12    7  0.1544987E-007  0.1162268E+04  0.7818608E-02  0.9146540E-01
         -1   -1    0    0    0  501 -0.00000000000E+00  0.00000000000E+00  0.42692600358E+03  0.42692600358E+03  0.00000000000E+00 0.  1.
          2   -1    0    0  501    0  0.00000000000E+00 -0.00000000000E+00 -0.79104283867E+03  0.79104283867E+03  0.00000000000E+00 0. -1.
         24    2    1    2    0    0  0.22224468484E+03  0.20098786569E+02 -0.17576473674E+02  0.23688716191E+03  0.77523763398E+02 0.  0.
        254    2    1    2    0    0 -0.22224468484E+03 -0.20098786569E+02 -0.34654036142E+03  0.98108168034E+03  0.89030016300E+03 0.  0.
         23    2    4    4    0    0  0.30395244104E+03  0.22362405498E+02  0.40145997009E+02  0.32042811472E+03  0.90417432137E+02 0.  0.
         23    2    4    4    0    0 -0.52619712587E+03 -0.42461192067E+02 -0.38668635843E+03  0.66065356562E+03  0.90831854869E+02 0.  0.
          2    1    3    3  502    0  0.20899374517E+03 -0.35966668130E+01 -0.13840266129E+02  0.20948239664E+03  0.00000000000E+00 0. -1.
         -1    1    3    3    0  502  0.13250939663E+02  0.23695453382E+02 -0.37362075445E+01  0.27404765274E+02  0.00000000000E+00 0.  1.
         13    1    5    5    0    0  0.25618347078E+03 -0.44224568961E+01  0.68057611651E+01  0.25631201145E+03  0.00000000000E+00 0.  1.
        -13    1    5    5    0    0  0.47768970258E+02  0.26784862394E+02  0.33340235844E+02  0.64116103274E+02  0.00000000000E+00 0. -1.
          3    1    6    6  503    0 -0.83929253493E+02 -0.51362722086E+01 -0.10681997909E+03  0.13594487418E+03  0.00000000000E+00 0. -1.
         -3    1    6    6    0  503 -0.44226787238E+03 -0.37324919858E+02 -0.27986637934E+03  0.52470869144E+03  0.00000000000E+00 0.  1.
<mgrwt>
<rscale>  0 0.11622681E+04</rscale>
<asrwt>0</asrwt>
<pdfrwt beam="1">  1        2 0.12169890E+00 0.11622681E+04</pdfrwt>
<pdfrwt beam="2">  1       -1 0.65680924E-01 0.11622681E+04</pdfrwt>
<totfact> 0.92794104E+01</totfact>
</mgrwt>
</event>
<event>
12    7  0.1544987E-007  0.1407835E+04  0.7818608E-02  0.8948167E-01
         -1   -1    0    0    0  501 -0.00000000000E+00  0.00000000000E+00  0.76856076383E+03  0.76856076383E+03  0.00000000000E+00 0.  1.
          2   -1    0    0  501    0  0.00000000000E+00 -0.00000000000E+00 -0.64471108321E+03  0.64471108321E+03  0.00000000000E+00 0. -1.
         24    2    1    2    0    0  0.39420825517E+03 -0.19554705437E+03  0.77221278177E+01  0.44753200442E+03  0.81157037906E+02 0.  0.
        254    2    1    2    0    0 -0.39420825517E+03  0.19554705437E+03  0.11612755280E+03  0.96573984262E+03  0.85177992239E+03 0.  0.
         23    2    4    4    0    0 -0.37975556995E+03  0.37416106304E+03 -0.21216008841E+03  0.58084561753E+03  0.90326819299E+02 0.  0.
         23    2    4    4    0    0 -0.14452685221E+02 -0.17861400867E+03  0.32828764120E+03  0.38489422509E+03  0.90878737542E+02 0.  0.
          4    1    3    3  502    0  0.17266237696E+02 -0.30376166843E+02 -0.73874285392E+01  0.35712862902E+02  0.00000000000E+00 0. -1.
         -3    1    3    3    0  502  0.37694201748E+03 -0.16517088752E+03  0.15109556357E+02  0.41181914152E+03  0.00000000000E+00 0.  1.
         13    1    5    5    0    0 -0.54808845098E+01  0.31575914439E+02 -0.35521959862E+01  0.32244326075E+02  0.00000000000E+00 0.  1.
        -13    1    5    5    0    0 -0.37427468544E+03  0.34258514860E+03 -0.20860789242E+03  0.54860129145E+03  0.00000000000E+00 0. -1.
          2    1    6    6  503    0  0.27961417226E+01 -0.76334780827E+02  0.22863166937E+03  0.24105446980E+03  0.00000000000E+00 0. -1.
         -2    1    6    6    0  503 -0.17248826943E+02 -0.10227922784E+03  0.99655971832E+02  0.14383975529E+03  0.00000000000E+00 0.  1.
<mgrwt>
<rscale>  0 0.14078347E+04</rscale>
<asrwt>0</asrwt>
<pdfrwt beam="1">  1        2 0.99186321E-01 0.14078347E+04</pdfrwt>
<pdfrwt beam="2">  1       -1 0.11824012E+00 0.14078347E+04</pdfrwt>
<totfact> 0.32412164E+01</totfact>
</mgrwt>
</event>
<event>
12    7  0.1544987E-007  0.1399942E+04  0.7818608E-02  0.8953861E-01
         -1   -1    0    0    0  501 -0.00000000000E+00  0.00000000000E+00  0.54457821287E+03  0.54457821287E+03  0.00000000000E+00 0.  1.
          2   -1    0    0  501    0  0.00000000000E+00 -0.00000000000E+00 -0.89970385780E+03  0.89970385780E+03  0.00000000000E+00 0. -1.
         24    2    1    2    0    0 -0.18839339257E+03 -0.36248281377E+03 -0.94129746079E+02  0.42684632024E+03  0.80321300780E+02 0.  0.
        254    2    1    2    0    0  0.18839339257E+03  0.36248281377E+03 -0.26099589886E+03  0.10174357504E+04  0.89452265840E+03 0.  0.
         23    2    4    4    0    0  0.32658034609E+03 -0.49621514284E+02 -0.42190509589E+03  0.54382516952E+03  0.92870274765E+02 0.  0.
         23    2    4    4    0    0 -0.13818695352E+03  0.41210432806E+03  0.16090919703E+03  0.47361058091E+03  0.97414584806E+02 0.  0.
          2    1    3    3  502    0 -0.51534870478E+02 -0.51394022114E+02 -0.38901215935E+02  0.82525711057E+02  0.00000000000E+00 0. -1.
         -1    1    3    3    0  502 -0.13685852209E+03 -0.31108879166E+03 -0.55228530145E+02  0.34432060918E+03  0.00000000000E+00 0.  1.
         13    1    5    5    0    0  0.66135042317E+02 -0.47988830846E+02 -0.11885070411E+03  0.14422989141E+03  0.00000000000E+00 0. -1.
        -13    1    5    5    0    0  0.26044530377E+03 -0.16326834377E+01 -0.30305439177E+03  0.39959527811E+03  0.00000000000E+00 0.  1.
          3    1    6    6  503    0 -0.12390946835E+02  0.12195107599E+02 -0.10925135824E+02  0.20533260959E+02  0.00000000000E+00 0. -1.
         -3    1    6    6    0  503 -0.12579600669E+03  0.39990922046E+03  0.17183433286E+03  0.45307731995E+03  0.00000000000E+00 0.  1.
<mgrwt>
<rscale>  0 0.13999416E+04</rscale>
<asrwt>0</asrwt>
<pdfrwt beam="1">  1        2 0.13841598E+00 0.13999416E+04</pdfrwt>
<pdfrwt beam="2">  1       -1 0.83781264E-01 0.13999416E+04</pdfrwt>
<totfact> 0.46047144E+01</totfact>
</mgrwt>
</event>
<event>
12    7  0.1544987E-007  0.1526931E+04  0.7818608E-02  0.8866739E-01
          2   -1    0    0  501    0  0.00000000000E+00  0.00000000000E+00  0.82767436660E+03  0.82767436660E+03  0.00000000000E+00 0. -1.
         -1   -1    0    0    0  501 -0.00000000000E+00 -0.00000000000E+00 -0.70423748796E+03  0.70423748796E+03  0.00000000000E+00 0.  1.
         24    2    1    2    0    0  0.71419061275E+02  0.38230550734E+03  0.33786725452E+03  0.52114136761E+03  0.78586640737E+02 0.  0.
        254    2    1    2    0    0 -0.71419061275E+02 -0.38230550734E+03 -0.21443037588E+03  0.10107704870E+04  0.90797489389E+03 0.  0.
         23    2    4    4    0    0  0.22470217032E+03  0.20515461765E+03 -0.12210721105E+03  0.34028914922E+03  0.91143028239E+02 0.  0.
         23    2    4    4    0    0 -0.29612123159E+03 -0.58746012499E+03 -0.92323164835E+02  0.67048133774E+03  0.90688892548E+02 0.  0.
          4    1    3    3  502    0 -0.16269064243E+02  0.89191305991E+02  0.83662294245E+02  0.12336592315E+03  0.00000000000E+00 0. -1.
         -3    1    3    3    0  502  0.87688125518E+02  0.29311420135E+03  0.25420496028E+03  0.39777544447E+03  0.00000000000E+00 0.  1.
         13    1    5    5    0    0  0.19870608334E+03  0.14764588607E+03 -0.66891098204E+02  0.25643290399E+03  0.00000000000E+00 0.  1.
        -13    1    5    5    0    0  0.25996086978E+02  0.57508731578E+02 -0.55216112845E+02  0.83856245227E+02  0.00000000000E+00 0. -1.
          4    1    6    6  503    0 -0.19540798976E+03 -0.32801956892E+03 -0.89507297674E+02  0.39216409371E+03  0.00000000000E+00 0.  1.
         -4    1    6    6    0  503 -0.10071324183E+03 -0.25944055607E+03 -0.28158671608E+01  0.27831724402E+03  0.00000000000E+00 0. -1.
<mgrwt>
<rscale>  0 0.15269307E+04</rscale>
<asrwt>0</asrwt>
<pdfrwt beam="1">  1        2 0.12733452E+00 0.15269307E+04</pdfrwt>
<pdfrwt beam="2">  1       -1 0.10834423E+00 0.15269307E+04</pdfrwt>
<totfact> 0.28663603E+01</totfact>
</mgrwt>
</event>
<event>
12    7  0.1544987E-007  0.1431409E+04  0.7818608E-02  0.8931392E-01
         -1   -1    0    0    0  501 -0.00000000000E+00  0.00000000000E+00  0.32474118751E+03  0.32474118751E+03  0.00000000000E+00 0.  1.
          2   -1    0    0  501    0  0.00000000000E+00 -0.00000000000E+00 -0.15773564174E+04  0.15773564174E+04  0.00000000000E+00 0. -1.
         24    2    1    2    0    0  0.22157924408E+03 -0.19570242927E+03  0.33319295065E+02  0.30748975223E+03  0.77736542697E+02 0.  0.
        254    2    1    2    0    0 -0.22157924408E+03  0.19570242927E+03 -0.12859345250E+04  0.15946078527E+04  0.89540482417E+03 0.  0.
         23    2    4    4    0    0 -0.14393110386E+02  0.48718704727E+03 -0.10375632678E+04  0.11498766780E+04  0.90113590206E+02 0.  0.
         23    2    4    4    0    0 -0.20718613370E+03 -0.29148461800E+03 -0.24837125718E+03  0.44473117476E+03  0.90598895588E+02 0.  0.
          2    1    3    3  502    0 -0.58334262023E+01 -0.15912909288E+01  0.35712215973E+01  0.70224420094E+01  0.00000000000E+00 0. -1.
         -1    1    3    3    0  502  0.22741267029E+03 -0.19411113834E+03  0.29748073468E+02  0.30046731022E+03  0.00000000000E+00 0.  1.
         13    1    5    5    0    0  0.35280943342E+01  0.30309999977E+03 -0.54327518474E+03  0.62211733914E+03  0.00000000000E+00 0. -1.
        -13    1    5    5    0    0 -0.17921204720E+02  0.18408704750E+03 -0.49428808307E+03  0.52775933881E+03  0.00000000000E+00 0.  1.
          3    1    6    6  503    0 -0.13025032240E+03 -0.23880410941E+03 -0.15645680379E+03  0.31380133939E+03  0.00000000000E+00 0. -1.
         -3    1    6    6    0  503 -0.76935811301E+02 -0.52680508594E+02 -0.91914453394E+02  0.13092983537E+03  0.00000000000E+00 0.  1.
<mgrwt>
<rscale>  0 0.14314085E+04</rscale>
<asrwt>0</asrwt>
<pdfrwt beam="1">  1        2 0.24267022E+00 0.14314085E+04</pdfrwt>
<pdfrwt beam="2">  1       -1 0.49960182E-01 0.14314085E+04</pdfrwt>
<totfact> 0.51068546E+01</totfact>
</mgrwt>
</event>
<event>
12    7  0.1544987E-007  0.1222102E+04  0.7818608E-02  0.9093728E-01
          2   -1    0    0  501    0  0.00000000000E+00  0.00000000000E+00  0.13746025935E+04  0.13746025935E+04  0.00000000000E+00 0. -1.
         -1   -1    0    0    0  501 -0.00000000000E+00 -0.00000000000E+00 -0.27162989503E+03  0.27162989503E+03  0.00000000000E+00 0.  1.
         24    2    1    2    0    0 -0.18763741331E+03 -0.17596794746E+03  0.41025230725E+03  0.49072820884E+03  0.79590840786E+02 0.  0.
        254    2    1    2    0    0  0.18763741331E+03  0.17596794746E+03  0.69272039123E+03  0.11555042797E+04  0.88834457425E+03 0.  0.
         23    2    4    4    0    0  0.21261418766E+03  0.14305945655E+03 -0.14767957207E+03  0.30912239728E+03  0.89869903704E+02 0.  0.
         23    2    4    4    0    0 -0.24976774353E+02  0.32908490916E+02  0.84039996330E+03  0.84638188243E+03  0.91560824414E+02 0.  0.
          4    1    3    3  502    0 -0.13833999507E+03 -0.14175319042E+03  0.36603481279E+03  0.41618914619E+03  0.00000000000E+00 0. -1.
         -3    1    3    3    0  502 -0.49297418240E+02 -0.34214757037E+02  0.44217494464E+02  0.74539062651E+02  0.00000000000E+00 0.  1.
         13    1    5    5    0    0  0.18230632761E+03  0.15200113152E+03 -0.11531261755E+03  0.26388812181E+03  0.00000000000E+00 0. -1.
        -13    1    5    5    0    0  0.30307860053E+02 -0.89416749697E+01 -0.32366954515E+02  0.45234275465E+02  0.00000000000E+00 0.  1.
          3    1    6    6  503    0  0.28957478713E+01  0.29278134132E+02  0.77022950513E+03  0.77079120718E+03  0.00000000000E+00 0. -1.
         -3    1    6    6    0  503 -0.27872522225E+02  0.36303567840E+01  0.70170458167E+02  0.75590675251E+02  0.00000000000E+00 0.  1.
<mgrwt>
<rscale>  0 0.12221017E+04</rscale>
<asrwt>0</asrwt>
<pdfrwt beam="1">  1        2 0.21147732E+00 0.12221017E+04</pdfrwt>
<pdfrwt beam="2">  1       -1 0.41789215E-01 0.12221017E+04</pdfrwt>
<totfact> 0.94388268E+01</totfact>
</mgrwt>
</event>
<event>
12    7  0.1544987E-007  0.2273445E+04  0.7818608E-02  0.8488465E-01
          2   -1    0    0  501    0  0.00000000000E+00  0.00000000000E+00  0.30737938582E+04  0.30737938582E+04  0.00000000000E+00 0. -1.
         -1   -1    0    0    0  501 -0.00000000000E+00 -0.00000000000E+00 -0.42037242954E+03  0.42037242954E+03  0.00000000000E+00 0.  1.
         24    2    1    2    0    0  0.66158578651E+03  0.40426326520E+03  0.19102658088E+04  0.20631364981E+04  0.79323444558E+02 0.  0.
        254    2    1    2    0    0 -0.66158578651E+03 -0.40426326520E+03  0.74315561980E+03  0.14310297896E+04  0.94574914383E+03 0.  0.
         23    2    4    4    0    0 -0.69965118458E+03 -0.29983150529E+03  0.10262148406E+03  0.77378691158E+03  0.93831252256E+02 0.  0.
         23    2    4    4    0    0  0.38065398070E+02 -0.10443175991E+03  0.64053413574E+03  0.65724287804E+03  0.96588066980E+02 0.  0.
          4    1    3    3  502    0  0.58719643103E+03  0.32762123828E+03  0.16341310791E+04  0.17670652812E+04  0.00000000000E+00 0. -1.
         -3    1    3    3    0  502  0.74389355477E+02  0.76642026916E+02  0.27613472974E+03  0.29607121688E+03  0.00000000000E+00 0.  1.
         13    1    5    5    0    0 -0.41908937943E+03 -0.13459855170E+03  0.80140849443E+02  0.44740946997E+03  0.00000000000E+00 0.  1.
        -13    1    5    5    0    0 -0.28056180515E+03 -0.16523295359E+03  0.22480634618E+02  0.32637744161E+03  0.00000000000E+00 0. -1.
          1    1    6    6  503    0  0.11870799852E+02 -0.87589546472E+02  0.24450888233E+03  0.25999507318E+03  0.00000000000E+00 0. -1.
         -1    1    6    6    0  503  0.26194598218E+02 -0.16842213433E+02  0.39602525341E+03  0.39724780486E+03  0.00000000000E+00 0.  1.
<mgrwt>
<rscale>  0 0.22734451E+04</rscale>
<asrwt>0</asrwt>
<pdfrwt beam="1">  1        2 0.47289135E+00 0.22734451E+04</pdfrwt>
<pdfrwt beam="2">  1       -1 0.64672683E-01 0.22734451E+04</pdfrwt>
<totfact> 0.39235857E+00</totfact>
</mgrwt>
</event>
<event>
12    7  0.1544987E-007  0.2571129E+04  0.7818608E-02  0.8378075E-01
         -3   -1    0    0    0  501 -0.00000000000E+00  0.00000000000E+00  0.14614205847E+04  0.14614205847E+04  0.00000000000E+00 0.  1.
          4   -1    0    0  501    0  0.00000000000E+00 -0.00000000000E+00 -0.11308697989E+04  0.11308697989E+04  0.00000000000E+00 0. -1.
         24    2    1    2    0    0 -0.76615459194E+02  0.41592616899E+01  0.12775381408E+04  0.12822720639E+04  0.78934888530E+02 0.  0.
        254    2    1    2    0    0  0.76615459194E+02 -0.41592616899E+01 -0.94698735501E+03  0.13100183197E+04  0.90192888819E+03 0.  0.
         23    2    4    4    0    0 -0.99935229221E+02  0.17574912771E+03  0.89490238857E+02  0.23935892848E+03  0.91702714588E+02 0.  0.
         23    2    4    4    0    0  0.17655068842E+03 -0.17990838940E+03 -0.10364775939E+04  0.10706593912E+04  0.92133355823E+02 0.  0.
          2    1    3    3  502    0 -0.21777446401E+01  0.20778553559E+02  0.94687596774E+02  0.96965106314E+02  0.00000000000E+00 0. -1.
         -1    1    3    3    0  502 -0.74437714554E+02 -0.16619291869E+02  0.11828505441E+04  0.11853069576E+04  0.00000000000E+00 0.  1.
         13    1    5    5    0    0 -0.26163723028E+02  0.64371119494E+01  0.39875192065E+02  0.48124918235E+02  0.00000000000E+00 0.  1.
        -13    1    5    5    0    0 -0.73771506193E+02  0.16931201576E+03  0.49615046792E+02  0.19123401024E+03  0.00000000000E+00 0. -1.
          4    1    6    6  503    0  0.50637634416E+02 -0.11571440171E+03 -0.52881486981E+03  0.54369031563E+03  0.00000000000E+00 0. -1.
         -4    1    6    6    0  503  0.12591305400E+03 -0.64193987688E+02 -0.50766272406E+03  0.52696907558E+03  0.00000000000E+00 0.  1.
<mgrwt>
<rscale>  0 0.25711292E+04</rscale>
<asrwt>0</asrwt>
<pdfrwt beam="1">  1        4 0.17397997E+00 0.25711292E+04</pdfrwt>
<pdfrwt beam="2">  1       -3 0.22483394E+00 0.25711292E+04</pdfrwt>
<totfact> 0.41198845E-02</totfact>
</mgrwt>
</event>
<event>
12    7  0.1544987E-007  0.1762973E+04  0.7818608E-02  0.8726242E-01
          2   -1    0    0  501    0  0.00000000000E+00  0.00000000000E+00  0.35316472697E+04  0.35316472697E+04  0.00000000000E+00 0. -1.
         -1   -1    0    0    0  501 -0.00000000000E+00 -0.00000000000E+00 -0.22001577516E+03  0.22001577516E+03  0.00000000000E+00 0.  1.
         24    2    1    2    0    0 -0.28167792399E+03  0.52275120046E+02  0.24735970813E+04  0.24914750907E+04  0.81795267064E+02 0.  0.
        254    2    1    2    0    0  0.28167792399E+03 -0.52275120046E+02  0.83803441320E+03  0.12601879542E+04  0.89649141717E+03 0.  0.
         23    2    4    4    0    0 -0.22113249768E+03 -0.10061773869E+03  0.67271434509E+03  0.72105071019E+03  0.91356585411E+02 0.  0.
         23    2    4    4    0    0  0.50281042167E+03  0.48342618640E+02  0.16532006811E+03  0.53913724397E+03  0.90459460570E+02 0.  0.
          2    1    3    3  502    0 -0.22170240301E+03  0.66632464260E+01  0.19218006915E+04  0.19345578958E+04  0.00000000000E+00 0. -1.
         -1    1    3    3    0  502 -0.59975520978E+02  0.45611873620E+02  0.55179638985E+03  0.55691719490E+03  0.00000000000E+00 0.  1.
         13    1    5    5    0    0 -0.48597454181E+02 -0.54824730448E+02  0.28416804193E+03  0.29346028636E+03  0.00000000000E+00 0. -1.
        -13    1    5    5    0    0 -0.17253504350E+03 -0.45793008238E+02  0.38854630317E+03  0.42759042382E+03  0.00000000000E+00 0.  1.
          3    1    6    6  503    0  0.11235627673E+03  0.49332460135E+02  0.39587694888E+02  0.12893723330E+03  0.00000000000E+00 0. -1.
         -3    1    6    6    0  503  0.39045414493E+03 -0.98984149465E+00  0.12573237322E+03  0.41020001067E+03  0.00000000000E+00 0.  1.
<mgrwt>
<rscale>  0 0.17629726E+04</rscale>
<asrwt>0</asrwt>
<pdfrwt beam="1">  1        2 0.54333031E+00 0.17629726E+04</pdfrwt>
<pdfrwt beam="2">  1       -1 0.33848583E-01 0.17629726E+04</pdfrwt>
<totfact> 0.69229812E+00</totfact>
</mgrwt>
</event>
<event>
12    7  0.1891585E-007  0.1941164E+04  0.7818608E-02  0.8634633E-01
          2   -1    0    0  501    0  0.00000000000E+00  0.00000000000E+00  0.22220422169E+04  0.22220422169E+04  0.00000000000E+00 0. -1.
         -1   -1    0    0    0  501 -0.00000000000E+00 -0.00000000000E+00 -0.42394758005E+03  0.42394758005E+03  0.00000000000E+00 0.  1.
         24    2    1    2    0    0 -0.42678487835E+03  0.62563978259E+03  0.65065884646E+03  0.10017013511E+04  0.80487219179E+02 0.  0.
        254    2    1    2    0    0  0.42678487835E+03 -0.62563978259E+03  0.11474357904E+04  0.16442884458E+04  0.90194519232E+03 0.  0.
         23    2    4    4    0    0  0.22768392901E+03 -0.69802977426E+03  0.35838543202E+03  0.82222380671E+03  0.92338145712E+02 0.  0.
         23    2    4    4    0    0  0.19910094934E+03  0.72389991668E+02  0.78905035834E+03  0.82206463906E+03  0.91149897863E+02 0.  0.
          4    1    3    3  502    0 -0.41208629028E+02  0.84517349774E+02  0.11277768818E+03  0.14683371707E+03  0.00000000000E+00 0. -1.
         -3    1    3    3    0  502 -0.38557624933E+03  0.54112243282E+03  0.53788115829E+03  0.85486763407E+03  0.00000000000E+00 0.  1.
         13    1    5    5    0    0  0.10328440694E+03 -0.18873616411E+03  0.11934863895E+03  0.24603476580E+03  0.00000000000E+00 0. -1.
        -13    1    5    5    0    0  0.12439952207E+03 -0.50929361014E+03  0.23903679307E+03  0.57618904091E+03  0.00000000000E+00 0.  1.
          4    1    6    6  503    0 -0.69717126964E+01  0.13800851702E+02  0.74529739050E+02  0.76116688634E+02  0.00000000000E+00 0. -1.
         -4    1    6    6    0  503  0.20607266204E+03  0.58589139966E+02  0.71452061929E+03  0.74594795043E+03  0.00000000000E+00 0.  1.
<mgrwt>
<rscale>  0 0.19411640E+04</rscale>
<asrwt>0</asrwt>
<pdfrwt beam="1">  1        2 0.34185264E+00 0.19411640E+04</pdfrwt>
<pdfrwt beam="2">  1       -1 0.65222706E-01 0.19411640E+04</pdfrwt>
<totfact> 0.12711768E+01</totfact>
</mgrwt>
</event>
<event>
12    7  0.1544987E-007  0.2044138E+04  0.7818608E-02  0.8586258E-01
          2   -1    0    0  501    0  0.00000000000E+00  0.00000000000E+00  0.16226102203E+04  0.16226102203E+04  0.00000000000E+00 0. -1.
         -1   -1    0    0    0  501 -0.00000000000E+00 -0.00000000000E+00 -0.64379292904E+03  0.64379292904E+03  0.00000000000E+00 0.  1.
         24    2    1    2    0    0 -0.38231225029E+03 -0.17774092182E+03  0.11787768247E+04  0.12546833090E+04  0.83432077016E+02 0.  0.
        254    2    1    2    0    0  0.38231225029E+03  0.17774092182E+03 -0.19995953346E+03  0.10117198403E+04  0.89768520552E+03 0.  0.
         23    2    4    4    0    0  0.36531495388E+03 -0.31562849193E+02  0.28672643149E+03  0.47392922381E+03  0.89138284100E+02 0.  0.
         23    2    4    4    0    0  0.16997296408E+02  0.20930377102E+03 -0.48668596494E+03  0.53779061648E+03  0.90876520934E+02 0.  0.
          4    1    3    3  502    0 -0.27825502324E+03 -0.90376051267E+02  0.75730135585E+03  0.81184914373E+03  0.00000000000E+00 0. -1.
         -3    1    3    3    0  502 -0.10405722705E+03 -0.87364870557E+02  0.42147546885E+03  0.44283416530E+03  0.00000000000E+00 0.  1.
         13    1    5    5    0    0  0.18187798152E+03 -0.70115568312E+01  0.87328271305E+02  0.20187864934E+03  0.00000000000E+00 0.  1.
        -13    1    5    5    0    0  0.18343697236E+03 -0.24551292362E+02  0.19939816018E+03  0.27205057447E+03  0.00000000000E+00 0. -1.
          3    1    6    6  503    0 -0.36384242819E+02  0.97832266099E+02 -0.20004039615E+03  0.22563493858E+03  0.00000000000E+00 0. -1.
         -3    1    6    6    0  503  0.53381539227E+02  0.11147150492E+03 -0.28664556879E+03  0.31215567790E+03  0.00000000000E+00 0.  1.
<mgrwt>
<rscale>  0 0.20441379E+04</rscale>
<asrwt>0</asrwt>
<pdfrwt beam="1">  1        2 0.24963234E+00 0.20441379E+04</pdfrwt>
<pdfrwt beam="2">  1       -1 0.99045067E-01 0.20441379E+04</pdfrwt>
<totfact> 0.11127778E+01</totfact>
</mgrwt>
</event>
<event>
12    7  0.1544987E-007  0.1575790E+04  0.7818608E-02  0.8835561E-01
          2   -1    0    0  501    0  0.00000000000E+00  0.00000000000E+00  0.10961033466E+04  0.10961033466E+04  0.00000000000E+00 0. -1.
         -1   -1    0    0    0  501 -0.00000000000E+00 -0.00000000000E+00 -0.56635050424E+03  0.56635050424E+03  0.00000000000E+00 0.  1.
         24    2    1    2    0    0  0.24673548155E+03  0.11822852710E+03 -0.29312092234E+03  0.40849624653E+03  0.78057195973E+02 0.  0.
        254    2    1    2    0    0 -0.24673548155E+03 -0.11822852710E+03  0.82287376469E+03  0.12539576043E+04  0.90577704669E+03 0.  0.
         23    2    4    4    0    0  0.41736364986E+02  0.20616195430E+02  0.90541206347E+03  0.91097987775E+03  0.89142477627E+02 0.  0.
         23    2    4    4    0    0 -0.28847184653E+03 -0.13884472253E+03 -0.82538298773E+02  0.34297772656E+03  0.91253969418E+02 0.  0.
          4    1    3    3  502    0  0.64758269952E+02  0.30749184564E+02 -0.32232817371E+02  0.78600893088E+02  0.00000000000E+00 0. -1.
         -3    1    3    3    0  502  0.18197721160E+03  0.87479342539E+02 -0.26088810496E+03  0.32989535344E+03  0.00000000000E+00 0.  1.
         13    1    5    5    0    0  0.58774610715E+01 -0.33748457741E+02  0.38166872250E+03  0.38320297061E+03  0.00000000000E+00 0. -1.
        -13    1    5    5    0    0  0.35858903914E+02  0.54364653170E+02  0.52374334096E+03  0.52777690714E+03  0.00000000000E+00 0.  1.
          3    1    6    6  503    0 -0.20563771158E+03 -0.58341494640E+02 -0.77465567649E+02  0.22735767546E+03  0.00000000000E+00 0.  1.
         -3    1    6    6    0  503 -0.82834134952E+02 -0.80503227894E+02 -0.50727311244E+01  0.11562005110E+03  0.00000000000E+00 0. -1.
<mgrwt>
<rscale>  0 0.15757902E+04</rscale>
<asrwt>0</asrwt>
<pdfrwt beam="1">  1        2 0.16863128E+00 0.15757902E+04</pdfrwt>
<pdfrwt beam="2">  1       -1 0.87130847E-01 0.15757902E+04</pdfrwt>
<totfact> 0.31144374E+01</totfact>
</mgrwt>
</event>
<event>
12    7  0.1544987E-007  0.1277236E+04  0.7818608E-02  0.9047814E-01
         -1   -1    0    0    0  501 -0.00000000000E+00  0.00000000000E+00  0.29207767130E+03  0.29207767130E+03  0.00000000000E+00 0.  1.
          2   -1    0    0  501    0  0.00000000000E+00 -0.00000000000E+00 -0.13963176742E+04  0.13963176742E+04  0.00000000000E+00 0. -1.
         24    2    1    2    0    0 -0.33824962364E+02  0.28879202365E+03 -0.12412212338E+03  0.32583152151E+03  0.78834750537E+02 0.  0.
        254    2    1    2    0    0  0.33824962364E+02 -0.28879202365E+03 -0.98011787951E+03  0.13625638240E+04  0.90077974869E+03 0.  0.
         23    2    4    4    0    0  0.38710911067E+03 -0.42848238903E+02 -0.15862503968E+03  0.43058918783E+03  0.92497082759E+02 0.  0.
         23    2    4    4    0    0 -0.35328414831E+03 -0.24594378475E+03 -0.82149283983E+03  0.93197463614E+03  0.91805238485E+02 0.  0.
          2    1    3    3  502    0 -0.31325248144E+02  0.10696264538E+03 -0.84120763393E+02  0.13963732134E+03  0.00000000000E+00 0. -1.
         -3    1    3    3    0  502 -0.24997142202E+01  0.18182937828E+03 -0.40001359982E+02  0.18619420017E+03  0.00000000000E+00 0.  1.
         13    1    5    5    0    0  0.10612419434E+03 -0.53176753920E+02 -0.56272520035E+02  0.13136479092E+03  0.00000000000E+00 0. -1.
        -13    1    5    5    0    0  0.28098491634E+03  0.10328515017E+02 -0.10235251964E+03  0.29922439691E+03  0.00000000000E+00 0.  1.
          3    1    6    6  503    0 -0.16859482560E+03 -0.62600147988E+02 -0.32806900214E+03  0.37412867294E+03  0.00000000000E+00 0. -1.
         -3    1    6    6    0  503 -0.18468932271E+03 -0.18334363676E+03 -0.49342383769E+03  0.55784596320E+03  0.00000000000E+00 0.  1.
<mgrwt>
<rscale>  0 0.12772364E+04</rscale>
<asrwt>0</asrwt>
<pdfrwt beam="1">  1        2 0.21481810E+00 0.12772364E+04</pdfrwt>
<pdfrwt beam="2">  1       -1 0.44935027E-01 0.12772364E+04</pdfrwt>
<totfact> 0.79860224E+01</totfact>
</mgrwt>
</event>
<event>
12    7  0.1544987E-007  0.2079899E+04  0.7818608E-02  0.8570150E-01
          2   -1    0    0  501    0  0.00000000000E+00  0.00000000000E+00  0.22381431265E+04  0.22381431265E+04  0.00000000000E+00 0. -1.
         -1   -1    0    0    0  501 -0.00000000000E+00 -0.00000000000E+00 -0.48321080701E+03  0.48321080701E+03  0.00000000000E+00 0.  1.
         24    2    1    2    0    0 -0.78461758964E+03 -0.25673663216E+03  0.56223275690E+03  0.10018200397E+04  0.77454882102E+02 0.  0.
        254    2    1    2    0    0  0.78461758964E+03  0.25673663216E+03  0.11926995626E+04  0.17195338938E+04  0.92343170028E+03 0.  0.
         23    2    4    4    0    0  0.69394031555E+03  0.44796825512E+03  0.12311067920E+04  0.14857905920E+04  0.98595288272E+02 0.  0.
         23    2    4    4    0    0  0.90677274092E+02 -0.19123162297E+03 -0.38407229358E+02  0.23374330183E+03  0.91481769902E+02 0.  0.
          4    1    3    3  502    0 -0.14601306327E+03 -0.70219571937E+02  0.13762542418E+03  0.21258259645E+03  0.00000000000E+00 0. -1.
         -3    1    3    3    0  502 -0.63860452637E+03 -0.18651706022E+03  0.42460733271E+03  0.78923744326E+03  0.00000000000E+00 0.  1.
         13    1    5    5    0    0  0.25423626264E+03  0.12573116663E+03  0.36222609142E+03  0.46005667565E+03  0.00000000000E+00 0.  1.
        -13    1    5    5    0    0  0.43970405291E+03  0.32223708850E+03  0.86888070054E+03  0.10257339163E+04  0.00000000000E+00 0. -1.
          1    1    6    6  503    0  0.92670878819E+02 -0.15889343171E+03 -0.58862736160E+00  0.18394390695E+03  0.00000000000E+00 0. -1.
         -1    1    6    6    0  503 -0.19936047279E+01 -0.32338191260E+02 -0.37818601997E+02  0.49799394884E+02  0.00000000000E+00 0.  1.
<mgrwt>
<rscale>  0 0.20798990E+04</rscale>
<asrwt>0</asrwt>
<pdfrwt beam="1">  1        2 0.34432971E+00 0.20798990E+04</pdfrwt>
<pdfrwt beam="2">  1       -1 0.74340126E-01 0.20798990E+04</pdfrwt>
<totfact> 0.94042623E+00</totfact>
</mgrwt>
</event>
<event>
12    7  0.1544987E-007  0.1927887E+04  0.7818608E-02  0.8641099E-01
         -1   -1    0    0    0  501 -0.00000000000E+00  0.00000000000E+00  0.46933611942E+03  0.46933611942E+03  0.00000000000E+00 0.  1.
          2   -1    0    0  501    0  0.00000000000E+00 -0.00000000000E+00 -0.19797893365E+04  0.19797893365E+04  0.00000000000E+00 0. -1.
         24    2    1    2    0    0  0.36215800167E+03  0.64087158260E+03 -0.75400681723E+03  0.10567724573E+04  0.79793123170E+02 0.  0.
        254    2    1    2    0    0 -0.36215800167E+03 -0.64087158260E+03 -0.75644639987E+03  0.13923529986E+04  0.90805336484E+03 0.  0.
         23    2    4    4    0    0 -0.14202026441E+03 -0.50388839699E+02 -0.73445839023E+03  0.75530204634E+03  0.91341466842E+02 0.  0.
         23    2    4    4    0    0 -0.22013773725E+03 -0.59048274291E+03 -0.21988009639E+02  0.63705095230E+03  0.90663941176E+02 0.  0.
          4    1    3    3  502    0  0.20890800031E+03  0.39443478080E+03 -0.50896385230E+03  0.67695313859E+03  0.00000000000E+00 0. -1.
         -3    1    3    3    0  502  0.15325000136E+03  0.24643680180E+03 -0.24504296493E+03  0.37981931871E+03  0.00000000000E+00 0.  1.
         13    1    5    5    0    0 -0.15522220841E+03 -0.42922517998E+02 -0.67035904935E+03  0.68943276074E+03  0.00000000000E+00 0. -1.
        -13    1    5    5    0    0  0.13201943998E+02 -0.74663217010E+01 -0.64099340881E+02  0.65869285607E+02  0.00000000000E+00 0.  1.
          3    1    6    6  503    0 -0.12600658901E+03 -0.22531386878E+03 -0.29760905569E+02  0.25986479454E+03  0.00000000000E+00 0. -1.
         -3    1    6    6    0  503 -0.94131148240E+02 -0.36516887412E+03  0.77728959293E+01  0.37718615777E+03  0.00000000000E+00 0.  1.
<mgrwt>
<rscale>  0 0.19278866E+04</rscale>
<asrwt>0</asrwt>
<pdfrwt beam="1">  1        2 0.30458297E+00 0.19278866E+04</pdfrwt>
<pdfrwt beam="2">  1       -1 0.72205558E-01 0.19278866E+04</pdfrwt>
<totfact> 0.14117886E+01</totfact>
</mgrwt>
</event>
<event>
12    7  0.1544987E-007  0.1987361E+04  0.7818608E-02  0.8612552E-01
          2   -1    0    0  501    0  0.00000000000E+00  0.00000000000E+00  0.80801375628E+03  0.80801375628E+03  0.00000000000E+00 0. -1.
         -1   -1    0    0    0  501 -0.00000000000E+00 -0.00000000000E+00 -0.12220105699E+04  0.12220105699E+04  0.00000000000E+00 0.  1.
         24    2    1    2    0    0 -0.10705569583E+03 -0.74840885549E+03 -0.37827783689E+03  0.84951444350E+03  0.83689490684E+02 0.  0.
        254    2    1    2    0    0  0.10705569583E+03  0.74840885549E+03 -0.35718976715E+02  0.11805098827E+04  0.90595308971E+03 0.  0.
         23    2    4    4    0    0 -0.33313109648E+03  0.11011050489E+03 -0.14827437024E+03  0.39177279696E+03  0.91651431169E+02 0.  0.
         23    2    4    4    0    0  0.44018679231E+03  0.63829835061E+03  0.11255539352E+03  0.78873708570E+03  0.90820026623E+02 0.  0.
          4    1    3    3  502    0  0.19133594667E+01 -0.15328144610E+03 -0.50429415305E+02  0.16137530353E+03  0.00000000000E+00 0. -1.
         -3    1    3    3    0  502 -0.10896905530E+03 -0.59512740940E+03 -0.32784842158E+03  0.68813913997E+03  0.00000000000E+00 0.  1.
         13    1    5    5    0    0 -0.22964371656E+03  0.30836621864E+02 -0.84335108852E+02  0.24657563624E+03  0.00000000000E+00 0.  1.
        -13    1    5    5    0    0 -0.10348737992E+03  0.79273883022E+02 -0.63939261386E+02  0.14519716071E+03  0.00000000000E+00 0. -1.
          3    1    6    6  503    0  0.74306324530E+02  0.60249468736E+02  0.26274840339E+02  0.99205824340E+02  0.00000000000E+00 0. -1.
         -3    1    6    6    0  503  0.36588046778E+03  0.57804888187E+03  0.86280553184E+02  0.68953126136E+03  0.00000000000E+00 0.  1.
<mgrwt>
<rscale>  0 0.19873614E+04</rscale>
<asrwt>0</asrwt>
<pdfrwt beam="1">  1        2 0.12430981E+00 0.19873614E+04</pdfrwt>
<pdfrwt beam="2">  1       -1 0.18800163E+00 0.19873614E+04</pdfrwt>
<totfact> 0.65841263E+00</totfact>
</mgrwt>
</event>
<event>
12    7  0.1544987E-007  0.1541979E+04  0.7818608E-02  0.8857008E-01
          2   -1    0    0  501    0  0.00000000000E+00  0.00000000000E+00  0.18744780987E+04  0.18744780987E+04  0.00000000000E+00 0. -1.
         -1   -1    0    0    0  501 -0.00000000000E+00 -0.00000000000E+00 -0.31711474404E+03  0.31711474404E+03  0.00000000000E+00 0.  1.
         24    2    1    2    0    0 -0.38884332279E+03 -0.17833902805E+03  0.89032652178E+03  0.99120973449E+03  0.82531713614E+02 0.  0.
        254    2    1    2    0    0  0.38884332279E+03  0.17833902805E+03  0.66703683285E+03  0.12003831082E+04  0.90165266679E+03 0.  0.
         23    2    4    4    0    0  0.49071332917E+03 -0.23524320938E+03  0.45295067943E+03  0.71377959516E+03  0.90432590822E+02 0.  0.
         23    2    4    4    0    0 -0.10187000639E+03  0.41358223744E+03  0.21408615342E+03  0.48660351306E+03  0.97582439566E+02 0.  0.
          2    1    3    3  502    0 -0.32915131848E+03 -0.15246583539E+03  0.81231586043E+03  0.88963109126E+03  0.00000000000E+00 0. -1.
         -1    1    3    3    0  502 -0.59692004307E+02 -0.25873192662E+02  0.78010661350E+02  0.10157864323E+03  0.00000000000E+00 0.  1.
         13    1    5    5    0    0  0.18066356127E+02 -0.78077707032E+01  0.45575815856E+02  0.49643826384E+02  0.00000000000E+00 0. -1.
        -13    1    5    5    0    0  0.47264697305E+03 -0.22743543868E+03  0.40737486358E+03  0.66413576878E+03  0.00000000000E+00 0.  1.
          3    1    6    6  503    0 -0.74129579430E+02  0.17498954057E+03  0.52675527627E+02  0.19720863335E+03  0.00000000000E+00 0. -1.
         -3    1    6    6    0  503 -0.27740426957E+02  0.23859269687E+03  0.16141062579E+03  0.28939487971E+03  0.00000000000E+00 0.  1.
<mgrwt>
<rscale>  0 0.15419788E+04</rscale>
<asrwt>0</asrwt>
<pdfrwt beam="1">  1        2 0.28838124E+00 0.15419788E+04</pdfrwt>
<pdfrwt beam="2">  1       -1 0.48786885E-01 0.15419788E+04</pdfrwt>
<totfact> 0.36205052E+01</totfact>
</mgrwt>
</event>
<event>
12    7  0.1544987E-007  0.1830949E+04  0.7818608E-02  0.8690012E-01
          2   -1    0    0  501    0  0.00000000000E+00  0.00000000000E+00  0.16923054224E+04  0.16923054224E+04  0.00000000000E+00 0. -1.
         -1   -1    0    0    0  501 -0.00000000000E+00 -0.00000000000E+00 -0.49523795256E+03  0.49523795256E+03  0.00000000000E+00 0.  1.
         24    2    1    2    0    0 -0.60321447416E+03  0.18769082743E+03  0.12810021035E+03  0.64950065232E+03  0.79661062847E+02 0.  0.
        254    2    1    2    0    0  0.60321447416E+03 -0.18769082743E+03  0.10689672594E+04  0.15380427226E+04  0.90762815417E+03 0.  0.
         23    2    4    4    0    0  0.18890432340E+03 -0.50472839419E+03  0.71895629141E+03  0.90328289993E+03  0.92662036735E+02 0.  0.
         23    2    4    4    0    0  0.41431015076E+03  0.31703756676E+03  0.35001096803E+03  0.63475982267E+03  0.90810984855E+02 0.  0.
          2    1    3    3  502    0 -0.12775524717E+03  0.14029985560E+02  0.47086314364E+02  0.13687718829E+03  0.00000000000E+00 0. -1.
         -1    1    3    3    0  502 -0.47545922699E+03  0.17366084187E+03  0.81013895990E+02  0.51262346403E+03  0.00000000000E+00 0.  1.
         13    1    5    5    0    0  0.10937102494E+03 -0.36639621096E+03  0.44959652704E+03  0.59020779529E+03  0.00000000000E+00 0. -1.
        -13    1    5    5    0    0  0.79533298461E+02 -0.13833218323E+03  0.26935976437E+03  0.31307510464E+03  0.00000000000E+00 0.  1.
          1    1    6    6  503    0  0.41912395728E+03  0.31215346579E+03  0.34673287735E+03  0.62715896391E+03  0.00000000000E+00 0. -1.
         -1    1    6    6    0  503 -0.48138065161E+01  0.48841009642E+01  0.32780906802E+01  0.76008587614E+01  0.00000000000E+00 0.  1.
<mgrwt>
<rscale>  0 0.18309493E+04</rscale>
<asrwt>0</asrwt>
<pdfrwt beam="1">  1        2 0.26035468E+00 0.18309493E+04</pdfrwt>
<pdfrwt beam="2">  1       -1 0.76190455E-01 0.18309493E+04</pdfrwt>
<totfact> 0.18376722E+01</totfact>
</mgrwt>
</event>
<event>
12    7  0.1544987E-007  0.1540051E+04  0.7818608E-02  0.8858248E-01
          2   -1    0    0  501    0  0.00000000000E+00  0.00000000000E+00  0.12831294808E+04  0.12831294808E+04  0.00000000000E+00 0. -1.
         -1   -1    0    0    0  501 -0.00000000000E+00 -0.00000000000E+00 -0.46210413492E+03  0.46210413492E+03  0.00000000000E+00 0.  1.
         24    2    1    2    0    0 -0.41201809402E+02  0.48584926177E+03  0.14594671949E+03  0.51525730310E+03  0.80265492040E+02 0.  0.
        254    2    1    2    0    0  0.41201809402E+02 -0.48584926177E+03  0.67507862641E+03  0.12299763126E+04  0.90518698817E+03 0.  0.
         23    2    4    4    0    0  0.27386223560E+03  0.37986777477E+02 -0.56760703154E+02  0.29599077388E+03  0.89136083864E+02 0.  0.
         23    2    4    4    0    0 -0.23266042620E+03 -0.52383603925E+03  0.73183932956E+03  0.93398553876E+03  0.90582075410E+02 0.  0.
          2    1    3    3  502    0 -0.12963939013E+02  0.42503423885E+03  0.11022995860E+03  0.43928670784E+03  0.00000000000E+00 0. -1.
         -3    1    3    3    0  502 -0.28237870389E+02  0.60815022919E+02  0.35716760889E+02  0.75970595267E+02  0.00000000000E+00 0.  1.
         13    1    5    5    0    0  0.17878132602E+03  0.62390119205E+02 -0.57272644156E+02  0.19782680627E+03  0.00000000000E+00 0.  1.
        -13    1    5    5    0    0  0.95080909577E+02 -0.24403341727E+02  0.51194100224E+00  0.98163967610E+02  0.00000000000E+00 0. -1.
          4    1    6    6  503    0 -0.16264011690E+03 -0.32030870944E+03  0.51973966970E+03  0.63180598385E+03  0.00000000000E+00 0. -1.
         -4    1    6    6    0  503 -0.70020309301E+02 -0.20352732980E+03  0.21209965986E+03  0.30217955491E+03  0.00000000000E+00 0.  1.
<mgrwt>
<rscale>  0 0.15400512E+04</rscale>
<asrwt>0</asrwt>
<pdfrwt beam="1">  1        2 0.19740453E+00 0.15400512E+04</pdfrwt>
<pdfrwt beam="2">  1       -1 0.71092944E-01 0.15400512E+04</pdfrwt>
<totfact> 0.37114854E+01</totfact>
</mgrwt>
</event>
<event>
12    7  0.2283615E-007  0.2013879E+04  0.7818608E-02  0.8600159E-01
         -1   -1    0    0    0  501 -0.00000000000E+00  0.00000000000E+00  0.52044695307E+03  0.52044695307E+03  0.00000000000E+00 0.  1.
          2   -1    0    0  501    0  0.00000000000E+00 -0.00000000000E+00 -0.19481859465E+04  0.19481859465E+04  0.00000000000E+00 0. -1.
         24    2    1    2    0    0 -0.11588277117E+03  0.70218163880E+03 -0.97714940456E+03  0.12114996036E+04  0.80140252366E+02 0.  0.
        254    2    1    2    0    0  0.11588277117E+03 -0.70218163880E+03 -0.45058958891E+03  0.12571332961E+04  0.93320162661E+03 0.  0.
         23    2    4    4    0    0 -0.13838683436E+03  0.97953654754E+02 -0.35789464607E+03  0.40760496918E+03  0.96474861044E+02 0.  0.
         23    2    4    4    0    0  0.25426960553E+03 -0.80013529356E+03 -0.92694942848E+02  0.84952832688E+03  0.90755195202E+02 0.  0.
          2    1    3    3  502    0 -0.11507942129E+03  0.59905121868E+03 -0.79350909483E+03  0.10008807718E+04  0.00000000000E+00 0. -1.
         -1    1    3    3    0  502 -0.80334987956E+00  0.10313042012E+03 -0.18364030973E+03  0.21061883174E+03  0.00000000000E+00 0.  1.
         13    1    5    5    0    0  0.14136878579E+02  0.78610996244E+01 -0.17214528093E+02  0.23621773869E+02  0.00000000000E+00 0.  1.
        -13    1    5    5    0    0 -0.15252371294E+03  0.90092555129E+02 -0.34068011797E+03  0.38398319531E+03  0.00000000000E+00 0. -1.
          1    1    6    6  503    0  0.24333654734E+03 -0.67435676038E+03 -0.95466098003E+02  0.72324511157E+03  0.00000000000E+00 0. -1.
         -1    1    6    6    0  503  0.10933058197E+02 -0.12577853317E+03  0.27711551554E+01  0.12628321531E+03  0.00000000000E+00 0.  1.
<mgrwt>
<rscale>  0 0.20138793E+04</rscale>
<asrwt>0</asrwt>
<pdfrwt beam="1">  1        2 0.29972092E+00 0.20138793E+04</pdfrwt>
<pdfrwt beam="2">  1       -1 0.80068762E-01 0.20138793E+04</pdfrwt>
<totfact> 0.11745489E+01</totfact>
</mgrwt>
</event>
<event>
12    7  0.1544987E-007  0.1422914E+04  0.7818608E-02  0.8937397E-01
          2   -1    0    0  501    0  0.00000000000E+00  0.00000000000E+00  0.16298965235E+04  0.16298965235E+04  0.00000000000E+00 0. -1.
         -1   -1    0    0    0  501 -0.00000000000E+00 -0.00000000000E+00 -0.31055422346E+03  0.31055422346E+03  0.00000000000E+00 0.  1.
         24    2    1    2    0    0 -0.14003258223E+03 -0.23129955271E+03  0.81100292523E+03  0.85818653828E+03  0.75165035620E+02 0.  0.
        254    2    1    2    0    0  0.14003258223E+03  0.23129955271E+03  0.50833937481E+03  0.10822642087E+04  0.91639417842E+03 0.  0.
         23    2    4    4    0    0 -0.57488808759E+02 -0.14824151346E+03  0.60620566018E+03  0.63287283245E+03  0.88103406124E+02 0.  0.
         23    2    4    4    0    0  0.19752139099E+03  0.37954106617E+03 -0.97866285364E+02  0.44939137624E+03  0.96481492611E+02 0.  0.
          4    1    3    3  502    0 -0.78515961806E+02 -0.19070082356E+03  0.56978373347E+03  0.60595797156E+03  0.00000000000E+00 0. -1.
         -3    1    3    3    0  502 -0.61516620427E+02 -0.40598729146E+02  0.24121919175E+03  0.25222856672E+03  0.00000000000E+00 0.  1.
         13    1    5    5    0    0 -0.44841885913E+02 -0.19732761377E+02  0.11549100996E+03  0.12545258062E+03  0.00000000000E+00 0.  1.
        -13    1    5    5    0    0 -0.12646922846E+02 -0.12850875208E+03  0.49071465022E+03  0.50742025182E+03  0.00000000000E+00 0. -1.
          4    1    6    6  503    0  0.13409345668E+03  0.33568098741E+03 -0.82157588890E+02  0.37069212272E+03  0.00000000000E+00 0. -1.
         -4    1    6    6    0  503  0.63427934309E+02  0.43860078763E+02 -0.15708696474E+02  0.78699253521E+02  0.00000000000E+00 0.  1.
<mgrwt>
<rscale>  0 0.14229143E+04</rscale>
<asrwt>0</asrwt>
<pdfrwt beam="1">  1        2 0.25075331E+00 0.14229143E+04</pdfrwt>
<pdfrwt beam="2">  1       -1 0.47777574E-01 0.14229143E+04</pdfrwt>
<totfact> 0.51978392E+01</totfact>
</mgrwt>
</event>
<event>
12    7  0.1544987E-007  0.1733137E+04  0.7818608E-02  0.8742688E-01
          2   -1    0    0  501    0  0.00000000000E+00  0.00000000000E+00  0.16647585297E+04  0.16647585297E+04  0.00000000000E+00 0. -1.
         -1   -1    0    0    0  501 -0.00000000000E+00 -0.00000000000E+00 -0.45108081255E+03  0.45108081255E+03  0.00000000000E+00 0.  1.
         24    2    1    2    0    0 -0.13268645256E+03 -0.60112316303E+03  0.32308061819E+03  0.70011331712E+03  0.82600357964E+02 0.  0.
        254    2    1    2    0    0  0.13268645256E+03  0.60112316303E+03  0.89059709897E+03  0.14157260251E+04  0.91222926599E+03 0.  0.
         23    2    4    4    0    0 -0.20593769412E+03  0.46041353444E+03  0.90140893385E+03  0.10370422251E+04  0.92344756524E+02 0.  0.
         23    2    4    4    0    0  0.33862414669E+03  0.14070962859E+03 -0.10811834880E+02  0.37868380004E+03  0.93909596628E+02 0.  0.
          4    1    3    3  502    0 -0.77997136262E+02 -0.47035911578E+03  0.27519613312E+03  0.55050355380E+03  0.00000000000E+00 0. -1.
         -3    1    3    3    0  502 -0.54689316300E+02 -0.13076404725E+03  0.47884485070E+02  0.14960976332E+03  0.00000000000E+00 0.  1.
         13    1    5    5    0    0 -0.19667838595E+02  0.22131636626E+02  0.10516591946E+03  0.10925430807E+03  0.00000000000E+00 0. -1.
        -13    1    5    5    0    0 -0.18626985553E+03  0.43828189781E+03  0.79624301438E+03  0.92778791703E+03  0.00000000000E+00 0.  1.
          1    1    6    6  503    0  0.21078198402E+02  0.39241969935E+02 -0.82983661008E+01  0.45310986882E+02  0.00000000000E+00 0. -1.
         -1    1    6    6    0  503  0.31754594829E+03  0.10146765866E+03 -0.25134687794E+01  0.33337281316E+03  0.00000000000E+00 0.  1.
<mgrwt>
<rscale>  0 0.17331366E+04</rscale>
<asrwt>0</asrwt>
<pdfrwt beam="1">  1        2 0.25611669E+00 0.17331366E+04</pdfrwt>
<pdfrwt beam="2">  1       -1 0.69397049E-01 0.17331366E+04</pdfrwt>
<totfact> 0.23298107E+01</totfact>
</mgrwt>
</event>
<event>
12    7  0.1544987E-007  0.1477904E+04  0.7818608E-02  0.8899281E-01
          2   -1    0    0  501    0  0.00000000000E+00  0.00000000000E+00  0.14631456764E+04  0.14631456764E+04  0.00000000000E+00 0. -1.
         -1   -1    0    0    0  501 -0.00000000000E+00 -0.00000000000E+00 -0.37320270936E+03  0.37320270936E+03  0.00000000000E+00 0.  1.
         24    2    1    2    0    0 -0.25746062310E+01  0.35170936366E+03  0.69737815549E+03  0.78542301738E+03  0.82746114066E+02 0.  0.
        254    2    1    2    0    0  0.25746062310E+01 -0.35170936366E+03  0.39256481159E+03  0.10509253684E+04  0.90919244036E+03 0.  0.
         23    2    4    4    0    0 -0.68329683355E+02 -0.60659412490E+03  0.65576603971E+02  0.62028229754E+03  0.88455975848E+02 0.  0.
         23    2    4    4    0    0  0.70904289586E+02  0.25488476124E+03  0.32698820762E+03  0.43064307088E+03  0.92404040901E+02 0.  0.
          2    1    3    3  502    0  0.54184160571E+01  0.34984125456E+03  0.65843146332E+03  0.74562071760E+03  0.00000000000E+00 0. -1.
         -1    1    3    3    0  502 -0.79930222882E+01  0.18681091027E+01  0.38946692172E+02  0.39802299783E+02  0.00000000000E+00 0.  1.
         13    1    5    5    0    0 -0.36949850257E+02 -0.36154476980E+03 -0.46036770051E+01  0.36345715820E+03  0.00000000000E+00 0.  1.
        -13    1    5    5    0    0 -0.31379833098E+02 -0.24504935510E+03  0.70180280976E+02  0.25682513934E+03  0.00000000000E+00 0. -1.
          3    1    6    6  503    0  0.23229591799E+02  0.24748017033E+01  0.27711148209E+02  0.36244259045E+02  0.00000000000E+00 0. -1.
         -3    1    6    6    0  503  0.47674697787E+02  0.25240995954E+03  0.29927705941E+03  0.39439881183E+03  0.00000000000E+00 0.  1.
<mgrwt>
<rscale>  0 0.14779038E+04</rscale>
<asrwt>0</asrwt>
<pdfrwt beam="1">  1        2 0.22509933E+00 0.14779038E+04</pdfrwt>
<pdfrwt beam="2">  1       -1 0.57415802E-01 0.14779038E+04</pdfrwt>
<totfact> 0.45122916E+01</totfact>
</mgrwt>
</event>
<event>
12    7  0.1544987E-007  0.2168030E+04  0.7818608E-02  0.8531854E-01
          2   -1    0    0  501    0  0.00000000000E+00  0.00000000000E+00  0.11351186895E+04  0.11351186895E+04  0.00000000000E+00 0. -1.
         -1   -1    0    0    0  501 -0.00000000000E+00 -0.00000000000E+00 -0.10352120958E+04  0.10352120958E+04  0.00000000000E+00 0.  1.
         24    2    1    2    0    0 -0.31143755501E+03  0.29098372357E+03 -0.73946749113E+03  0.85871305256E+03  0.94398401190E+02 0.  0.
        254    2    1    2    0    0  0.31143755501E+03 -0.29098372357E+03  0.83937408485E+03  0.13116177327E+04  0.91330572342E+03 0.  0.
         23    2    4    4    0    0  0.21157111819E+03 -0.60642849830E+03  0.43343925256E+03  0.78101603004E+03  0.97972403884E+02 0.  0.
         23    2    4    4    0    0  0.99866436826E+02  0.31544477473E+03  0.40593483229E+03  0.53060170269E+03  0.85301627904E+02 0.  0.
          4    1    3    3  502    0 -0.96088304833E+02  0.10366088272E+03 -0.33576934797E+03  0.36430700785E+03  0.00000000000E+00 0. -1.
         -3    1    3    3    0  502 -0.21534925018E+03  0.18732284085E+03 -0.40369814316E+03  0.49440604471E+03  0.00000000000E+00 0.  1.
         13    1    5    5    0    0  0.67008561933E+02 -0.23059626367E+03  0.10814500656E+03  0.26336310796E+03  0.00000000000E+00 0. -1.
        -13    1    5    5    0    0  0.14456255625E+03 -0.37583223462E+03  0.32529424600E+03  0.51765292208E+03  0.00000000000E+00 0.  1.
          1    1    6    6  503    0  0.11938679434E+02 -0.16918188423E+01  0.20480491677E+02  0.23766464966E+02  0.00000000000E+00 0. -1.
         -1    1    6    6    0  503  0.87927757392E+02  0.31713659357E+03  0.38545434062E+03  0.50683523773E+03  0.00000000000E+00 0.  1.
<mgrwt>
<rscale>  0 0.21680301E+04</rscale>
<asrwt>0</asrwt>
<pdfrwt beam="1">  1        2 0.17463364E+00 0.21680301E+04</pdfrwt>
<pdfrwt beam="2">  1       -1 0.15926340E+00 0.21680301E+04</pdfrwt>
<totfact> 0.64127178E+00</totfact>
</mgrwt>
</event>
<event>
12    7  0.1544987E-007  0.1597456E+04  0.7818608E-02  0.8822113E-01
          2   -1    0    0  501    0  0.00000000000E+00  0.00000000000E+00  0.19552659244E+04  0.19552659244E+04  0.00000000000E+00 0. -1.
         -1   -1    0    0    0  501 -0.00000000000E+00 -0.00000000000E+00 -0.32628102492E+03  0.32628102492E+03  0.00000000000E+00 0.  1.
         24    2    1    2    0    0  0.23273261860E+03 -0.23740665010E+03 -0.44883213665E+02  0.34493886972E+03  0.80261645260E+02 0.  0.
        254    2    1    2    0    0 -0.23273261860E+03  0.23740665010E+03  0.16738681131E+04  0.19366080796E+04  0.91547255800E+03 0.  0.
         23    2    4    4    0    0 -0.52737102122E+03 -0.68342195573E+02  0.90804024590E+03  0.10560846856E+04  0.89369599784E+02 0.  0.
         23    2    4    4    0    0  0.29463840261E+03  0.30574884568E+03  0.76582786723E+03  0.88052339393E+03  0.92384956042E+02 0.  0.
          4    1    3    3  502    0  0.36930832994E+02 -0.83898427079E+02  0.23249646162E+01  0.91696444601E+02  0.00000000000E+00 0. -1.
         -3    1    3    3    0  502  0.19580178561E+03 -0.15350822303E+03 -0.47208178281E+02  0.25324242512E+03  0.00000000000E+00 0.  1.
         13    1    5    5    0    0 -0.32274460103E+03 -0.65489028480E+02  0.62961478265E+03  0.71054040341E+03  0.00000000000E+00 0. -1.
        -13    1    5    5    0    0 -0.20462642018E+03 -0.28531670933E+01  0.27842546326E+03  0.34554428224E+03  0.00000000000E+00 0.  1.
          4    1    6    6  503    0  0.13613719432E+03  0.12395534251E+03  0.24415605642E+03  0.30579477187E+03  0.00000000000E+00 0. -1.
         -4    1    6    6    0  503  0.15850120829E+03  0.18179350317E+03  0.52167181081E+03  0.57472862206E+03  0.00000000000E+00 0.  1.
<mgrwt>
<rscale>  0 0.15974557E+04</rscale>
<asrwt>0</asrwt>
<pdfrwt beam="1">  1        2 0.30081014E+00 0.15974557E+04</pdfrwt>
<pdfrwt beam="2">  1       -1 0.50197082E-01 0.15974557E+04</pdfrwt>
<totfact> 0.30798313E+01</totfact>
</mgrwt>
</event>
<event>
12    7  0.1544987E-007  0.1581152E+04  0.7818608E-02  0.8832212E-01
         -1   -1    0    0    0  501 -0.00000000000E+00  0.00000000000E+00  0.14894729473E+04  0.14894729473E+04  0.00000000000E+00 0.  1.
          2   -1    0    0  501    0  0.00000000000E+00 -0.00000000000E+00 -0.41961836261E+03  0.41961836261E+03  0.00000000000E+00 0. -1.
         24    2    1    2    0    0 -0.31675562370E+03 -0.20795788996E+03 -0.83815584466E+02  0.39685280223E+03  0.82984849797E+02 0.  0.
        254    2    1    2    0    0  0.31675562370E+03  0.20795788996E+03  0.11536701691E+04  0.15122385076E+04  0.90129342376E+03 0.  0.
         23    2    4    4    0    0 -0.37215057208E+02  0.33417773576E+03  0.10580971000E+04  0.11139344076E+04  0.90667920623E+02 0.  0.
         23    2    4    4    0    0  0.35397068091E+03 -0.12621984579E+03  0.95573069145E+02  0.39830410007E+03  0.91023360571E+02 0.  0.
          2    1    3    3  502    0 -0.20645261424E+03 -0.16911183689E+03 -0.84420822141E+02  0.27990778930E+03  0.00000000000E+00 0. -1.
         -1    1    3    3    0  502 -0.11030300946E+03 -0.38846053073E+02  0.60523767530E+00  0.11694501293E+03  0.00000000000E+00 0.  1.
         13    1    5    5    0    0 -0.64825552369E+02  0.25331459264E+03  0.75350735476E+03  0.79758633938E+03  0.00000000000E+00 0. -1.
        -13    1    5    5    0    0  0.27610495161E+02  0.80863143118E+02  0.30458974521E+03  0.31634806819E+03  0.00000000000E+00 0.  1.
          4    1    6    6  503    0  0.31663001598E+03 -0.89679562218E+02  0.10455013360E+03  0.34529367404E+03  0.00000000000E+00 0. -1.
         -4    1    6    6    0  503  0.37340664930E+02 -0.36540283576E+02 -0.89770644521E+01  0.53010426026E+02  0.00000000000E+00 0.  1.
<mgrwt>
<rscale>  0 0.15811517E+04</rscale>
<asrwt>0</asrwt>
<pdfrwt beam="1">  1        2 0.64556672E-01 0.15811517E+04</pdfrwt>
<pdfrwt beam="2">  1       -1 0.22914968E+00 0.15811517E+04</pdfrwt>
<totfact> 0.79112593E+00</totfact>
</mgrwt>
</event>
<event>
12    7  0.1544987E-007  0.1146656E+04  0.7818608E-02  0.9160874E-01
         -1   -1    0    0    0  501 -0.00000000000E+00  0.00000000000E+00  0.50975240360E+03  0.50975240360E+03  0.00000000000E+00 0.  1.
          2   -1    0    0  501    0  0.00000000000E+00 -0.00000000000E+00 -0.64483268632E+03  0.64483268632E+03  0.00000000000E+00 0. -1.
         24    2    1    2    0    0  0.20127396286E+02  0.10002683583E+03 -0.21089420279E+03  0.24746351082E+03  0.79695322629E+02 0.  0.
        254    2    1    2    0    0 -0.20127396286E+02 -0.10002683583E+03  0.75813920072E+02  0.90712157910E+03  0.89817110220E+03 0.  0.
         23    2    4    4    0    0 -0.37598554536E+03  0.93078196830E+02  0.23509098097E+03  0.46248411654E+03  0.92709803534E+02 0.  0.
         23    2    4    4    0    0  0.35585814908E+03 -0.19310503266E+03 -0.15927706090E+03  0.44463746256E+03  0.91699046256E+02 0.  0.
          4    1    3    3  502    0 -0.13634204414E+02  0.42252058825E+02 -0.15190036587E+03  0.15825564494E+03  0.00000000000E+00 0. -1.
         -3    1    3    3    0  502  0.33761600700E+02  0.57774777002E+02 -0.58993836924E+02  0.89207865878E+02  0.00000000000E+00 0.  1.
         13    1    5    5    0    0 -0.38769507384E+02 -0.62378840648E+01 -0.55724418458E+00  0.39272081960E+02  0.00000000000E+00 0.  1.
        -13    1    5    5    0    0 -0.33721603798E+03  0.99316080895E+02  0.23564822516E+03  0.42321203458E+03  0.00000000000E+00 0. -1.
          4    1    6    6  503    0  0.24185983273E+03 -0.94544334323E+02 -0.13266737493E+03  0.29160837130E+03  0.00000000000E+00 0. -1.
         -4    1    6    6    0  503  0.11399831634E+03 -0.98560698335E+02 -0.26609685973E+02  0.15302909126E+03  0.00000000000E+00 0.  1.
<mgrwt>
<rscale>  0 0.11466560E+04</rscale>
<asrwt>0</asrwt>
<pdfrwt beam="1">  1        2 0.99205029E-01 0.11466560E+04</pdfrwt>
<pdfrwt beam="2">  1       -1 0.78423446E-01 0.11466560E+04</pdfrwt>
<totfact> 0.83631854E+01</totfact>
</mgrwt>
</event>
<event>
12    7  0.1544987E-007  0.1724241E+04  0.7818608E-02  0.8747659E-01
          2   -1    0    0  501    0  0.00000000000E+00  0.00000000000E+00  0.23563529080E+04  0.23563529080E+04  0.00000000000E+00 0. -1.
         -1   -1    0    0    0  501 -0.00000000000E+00 -0.00000000000E+00 -0.31542452832E+03  0.31542452832E+03  0.00000000000E+00 0.  1.
         24    2    1    2    0    0 -0.28371884931E+03  0.28051211343E+03  0.14875067115E+04  0.15421256623E+04  0.79321564418E+02 0.  0.
        254    2    1    2    0    0  0.28371884931E+03 -0.28051211343E+03  0.55342166820E+03  0.11296517740E+04  0.90036334685E+03 0.  0.
         23    2    4    4    0    0 -0.21824234269E+02  0.84102437515E+02  0.62746264597E+03  0.63969978582E+03  0.89201606969E+02 0.  0.
         23    2    4    4    0    0  0.30554308358E+03 -0.36461455094E+03 -0.74040977768E+02  0.48995198815E+03  0.90942496238E+02 0.  0.
          2    1    3    3  502    0 -0.26153796181E+03  0.25661723508E+03  0.14281546122E+04  0.14744083922E+04  0.00000000000E+00 0. -1.
         -1    1    3    3    0  502 -0.22180887495E+02  0.23894878349E+02  0.59352099276E+02  0.67717270101E+02  0.00000000000E+00 0.  1.
         13    1    5    5    0    0 -0.53744943017E+02  0.73143902789E+02  0.45394687415E+03  0.46293229955E+03  0.00000000000E+00 0.  1.
        -13    1    5    5    0    0  0.31920708748E+02  0.10958534726E+02  0.17351577182E+03  0.17676748627E+03  0.00000000000E+00 0. -1.
          1    1    6    6  503    0  0.34190384218E+02 -0.68283434032E+01 -0.14853260326E+00  0.34865896067E+02  0.00000000000E+00 0. -1.
         -1    1    6    6    0  503  0.27135269936E+03 -0.35778620754E+03 -0.73892445165E+02  0.45508609208E+03  0.00000000000E+00 0.  1.
<mgrwt>
<rscale>  0 0.17242407E+04</rscale>
<asrwt>0</asrwt>
<pdfrwt beam="1">  1        2 0.36251582E+00 0.17242407E+04</pdfrwt>
<pdfrwt beam="2">  1       -1 0.48526852E-01 0.17242407E+04</pdfrwt>
<totfact> 0.19367005E+01</totfact>
</mgrwt>
</event>
<event>
12    7  0.1544987E-007  0.2093253E+04  0.7818608E-02  0.8564221E-01
         -1   -1    0    0    0  501 -0.00000000000E+00  0.00000000000E+00  0.27339212304E+03  0.27339212304E+03  0.00000000000E+00 0.  1.
          2   -1    0    0  501    0  0.00000000000E+00 -0.00000000000E+00 -0.40067967180E+04  0.40067967180E+04  0.00000000000E+00 0. -1.
         24    2    1    2    0    0  0.24552867147E+02 -0.69688936936E+03 -0.24949155594E+04  0.25917175529E+04  0.78349148979E+02 0.  0.
        254    2    1    2    0    0 -0.24552867147E+02  0.69688936936E+03 -0.12384890355E+04  0.16884712881E+04  0.91149468630E+03 0.  0.
         23    2    4    4    0    0  0.26879544846E+03  0.49136033940E+03 -0.22610962610E+03  0.61106371163E+03  0.92667795993E+02 0.  0.
         23    2    4    4    0    0 -0.29334831561E+03  0.20552902996E+03 -0.10123794094E+04  0.10774075764E+04  0.87175688940E+02 0.  0.
          2    1    3    3  502    0  0.19253200269E+02 -0.61402692624E+02 -0.28939642403E+03  0.29646461277E+03  0.00000000000E+00 0. -1.
         -1    1    3    3    0  502  0.52996668778E+01 -0.63548667673E+03 -0.22055191354E+04  0.22952529402E+04  0.00000000000E+00 0.  1.
         13    1    5    5    0    0  0.27375533163E+02  0.11198736320E+03 -0.70973791631E+02  0.13538045808E+03  0.00000000000E+00 0. -1.
        -13    1    5    5    0    0  0.24141991530E+03  0.37937297619E+03 -0.15513583447E+03  0.47568325355E+03  0.00000000000E+00 0.  1.
          3    1    6    6  503    0 -0.11756008571E+03  0.77605016982E+02 -0.27994993777E+03  0.31339253353E+03  0.00000000000E+00 0. -1.
         -3    1    6    6    0  503 -0.17578822990E+03  0.12792401298E+03 -0.73242947164E+03  0.76401504291E+03  0.00000000000E+00 0.  1.
<mgrwt>
<rscale>  0 0.20932526E+04</rscale>
<asrwt>0</asrwt>
<pdfrwt beam="1">  1        2 0.61643025E+00 0.20932526E+04</pdfrwt>
<pdfrwt beam="2">  1       -1 0.42060328E-01 0.20932526E+04</pdfrwt>
<totfact> 0.19861480E+00</totfact>
</mgrwt>
</event>
<event>
12    7  0.1544987E-007  0.1288218E+04  0.7818608E-02  0.9038961E-01
          2   -1    0    0  501    0  0.00000000000E+00  0.00000000000E+00  0.26401563500E+04  0.26401563500E+04  0.00000000000E+00 0. -1.
         -1   -1    0    0    0  501 -0.00000000000E+00 -0.00000000000E+00 -0.15714088953E+03  0.15714088953E+03  0.00000000000E+00 0.  1.
         24    2    1    2    0    0 -0.12249901384E+03  0.18757559179E+03  0.11086512625E+04  0.11339378151E+04  0.80726300147E+02 0.  0.
        254    2    1    2    0    0  0.12249901384E+03 -0.18757559179E+03  0.13743641979E+04  0.16633594244E+04  0.90977855287E+03 0.  0.
         23    2    4    4    0    0  0.33561687632E+03  0.19033292468E+03  0.28720273297E+03  0.48930576655E+03  0.89829914112E+02 0.  0.
         23    2    4    4    0    0 -0.21311786248E+03 -0.37790851647E+03  0.10871614650E+04  0.11740536579E+04  0.90817787654E+02 0.  0.
          4    1    3    3  502    0 -0.11914246430E+03  0.13218824296E+03  0.92979421269E+03  0.94667097575E+03  0.00000000000E+00 0. -1.
         -3    1    3    3    0  502 -0.33565495318E+01  0.55387348830E+02  0.17885704983E+03  0.18726683932E+03  0.00000000000E+00 0.  1.
         13    1    5    5    0    0  0.28359198783E+03  0.11870507573E+03  0.22921053163E+03  0.38347461243E+03  0.00000000000E+00 0. -1.
        -13    1    5    5    0    0  0.52024888487E+02  0.71627848950E+02  0.57992201344E+02  0.10583115413E+03  0.00000000000E+00 0.  1.
          4    1    6    6  503    0 -0.69342078595E+02 -0.66913826136E+02  0.17684799172E+03  0.20139760716E+03  0.00000000000E+00 0.  1.
         -4    1    6    6    0  503 -0.14377578388E+03 -0.31099469034E+03  0.91031347324E+03  0.97265605073E+03  0.00000000000E+00 0. -1.
<mgrwt>
<rscale>  0 0.12882182E+04</rscale>
<asrwt>0</asrwt>
<pdfrwt beam="1">  1        2 0.40617786E+00 0.12882182E+04</pdfrwt>
<pdfrwt beam="2">  1       -1 0.24175524E-01 0.12882182E+04</pdfrwt>
<totfact> 0.48084001E+01</totfact>
</mgrwt>
</event>
<event>
12    7  0.1544987E-007  0.2199106E+04  0.7818608E-02  0.8518800E-01
         -1   -1    0    0    0  501 -0.00000000000E+00  0.00000000000E+00  0.95597593501E+03  0.95597593501E+03  0.00000000000E+00 0.  1.
          2   -1    0    0  501    0  0.00000000000E+00 -0.00000000000E+00 -0.12646935162E+04  0.12646935162E+04  0.00000000000E+00 0. -1.
         24    2    1    2    0    0 -0.33970575242E+03 -0.41434306581E+03  0.61715774046E+03  0.82079499078E+03  0.75766522045E+02 0.  0.
        254    2    1    2    0    0  0.33970575242E+03  0.41434306581E+03 -0.92587532164E+03  0.13998744604E+04  0.90295250112E+03 0.  0.
         23    2    4    4    0    0  0.25974125915E+03  0.54991550883E+03 -0.10233023457E+04  0.11939079657E+04  0.91629422974E+02 0.  0.
         23    2    4    4    0    0  0.79964493271E+02 -0.13557244303E+03  0.97427024101E+02  0.20596649473E+03  0.90310378330E+02 0.  0.
          4    1    3    3  502    0 -0.60912920726E+02 -0.11823827472E+03  0.17858922850E+03  0.22267641559E+03  0.00000000000E+00 0. -1.
         -3    1    3    3    0  502 -0.27879283169E+03 -0.29610479108E+03  0.43856851196E+03  0.59811857519E+03  0.00000000000E+00 0.  1.
         13    1    5    5    0    0  0.16585714038E+03  0.24552210006E+03 -0.47796364037E+03  0.56235125513E+03  0.00000000000E+00 0.  1.
        -13    1    5    5    0    0  0.93884118767E+02  0.30439340877E+03 -0.54533870538E+03  0.63155671055E+03  0.00000000000E+00 0. -1.
          3    1    6    6  503    0  0.71147707575E+02 -0.11895154607E+03  0.11509101195E+03  0.18015939508E+03  0.00000000000E+00 0. -1.
         -3    1    6    6    0  503  0.88167856961E+01 -0.16620896955E+02 -0.17663987845E+02  0.25807099647E+02  0.00000000000E+00 0.  1.
<mgrwt>
<rscale>  0 0.21991058E+04</rscale>
<asrwt>0</asrwt>
<pdfrwt beam="1">  1        2 0.19456823E+00 0.21991058E+04</pdfrwt>
<pdfrwt beam="2">  1       -1 0.14707322E+00 0.21991058E+04</pdfrwt>
<totfact> 0.66462229E+00</totfact>
</mgrwt>
</event>
<event>
12    7  0.1544987E-007  0.1735050E+04  0.7818608E-02  0.8741623E-01
         -1   -1    0    0    0  501 -0.00000000000E+00  0.00000000000E+00  0.12503056096E+04  0.12503056096E+04  0.00000000000E+00 0.  1.
          2   -1    0    0  501    0  0.00000000000E+00 -0.00000000000E+00 -0.60193236879E+03  0.60193236879E+03  0.00000000000E+00 0. -1.
         24    2    1    2    0    0 -0.60379346707E+03 -0.11349615758E+02  0.40845642486E+02  0.61032015512E+03  0.78274903898E+02 0.  0.
        254    2    1    2    0    0  0.60379346707E+03  0.11349615758E+02  0.60752759831E+03  0.12419178233E+04  0.89920783603E+03 0.  0.
         23    2    4    4    0    0  0.82880028281E+03  0.23686983669E+02  0.41423200125E+03  0.93137105763E+03  0.91612849182E+02 0.  0.
         23    2    4    4    0    0 -0.22500681575E+03 -0.12337367911E+02  0.19329559706E+03  0.31054676564E+03  0.91081436235E+02 0.  0.
          4    1    3    3  502    0 -0.34123534526E+03 -0.50299875677E+01 -0.15833888256E+02  0.34163953760E+03  0.00000000000E+00 0. -1.
         -3    1    3    3    0  502 -0.26255812181E+03 -0.63196281900E+01  0.56679530742E+02  0.26868061752E+03  0.00000000000E+00 0.  1.
         13    1    5    5    0    0  0.68446543639E+02 -0.22858274546E+02  0.42294833494E+02  0.83643786330E+02  0.00000000000E+00 0. -1.
        -13    1    5    5    0    0  0.76035373918E+03  0.46545258215E+02  0.37193716776E+03  0.84772727130E+03  0.00000000000E+00 0.  1.
          3    1    6    6  503    0 -0.78958275329E+00 -0.45313673889E+01  0.36605950720E+02  0.36893798387E+02  0.00000000000E+00 0. -1.
         -3    1    6    6    0  503 -0.22421723299E+03 -0.78060005223E+01  0.15668964634E+03  0.27365296725E+03  0.00000000000E+00 0.  1.
<mgrwt>
<rscale>  0 0.17350498E+04</rscale>
<asrwt>0</asrwt>
<pdfrwt beam="1">  1        2 0.92604980E-01 0.17350498E+04</pdfrwt>
<pdfrwt beam="2">  1       -1 0.19235471E+00 0.17350498E+04</pdfrwt>
<totfact> 0.91084827E+00</totfact>
</mgrwt>
</event>
<event>
12    7  0.1544987E-007  0.1864809E+04  0.7818608E-02  0.8672574E-01
          2   -1    0    0  501    0  0.00000000000E+00  0.00000000000E+00  0.81483579602E+03  0.81483579602E+03  0.00000000000E+00 0. -1.
         -1   -1    0    0    0  501 -0.00000000000E+00 -0.00000000000E+00 -0.10669368808E+04  0.10669368808E+04  0.00000000000E+00 0.  1.
         24    2    1    2    0    0  0.54748737069E+03  0.65325037509E+01  0.36480327405E+03  0.66257117955E+03  0.78320141335E+02 0.  0.
        254    2    1    2    0    0 -0.54748737069E+03 -0.65325037509E+01 -0.61690435885E+03  0.12192014973E+04  0.89782860746E+03 0.  0.
         23    2    4    4    0    0  0.14083580041E+03  0.15818183755E+03 -0.41824897934E+03  0.47776447772E+03  0.92035161989E+02 0.  0.
         23    2    4    4    0    0 -0.68832317110E+03 -0.16471434130E+03 -0.19865537951E+03  0.74143701958E+03  0.96671050962E+02 0.  0.
          4    1    3    3  502    0  0.31585739056E+03  0.17728839249E+02  0.16677069915E+03  0.35762084532E+03  0.00000000000E+00 0. -1.
         -1    1    3    3    0  502  0.23162998013E+03 -0.11196335498E+02  0.19803257490E+03  0.30495033423E+03  0.00000000000E+00 0.  1.
         13    1    5    5    0    0  0.10134427909E+03  0.15587171443E+03 -0.37843334950E+03  0.42163782359E+03  0.00000000000E+00 0. -1.
        -13    1    5    5    0    0  0.39491521314E+02  0.23101231258E+01 -0.39815629835E+02  0.56126654129E+02  0.00000000000E+00 0.  1.
          2    1    6    6  503    0 -0.50585470722E+03 -0.15409636839E+03 -0.11884699072E+03  0.54199564830E+03  0.00000000000E+00 0. -1.
         -2    1    6    6    0  503 -0.18246846388E+03 -0.10617972914E+02 -0.79808388790E+02  0.19944137129E+03  0.00000000000E+00 0.  1.
<mgrwt>
<rscale>  0 0.18648092E+04</rscale>
<asrwt>0</asrwt>
<pdfrwt beam="1">  1        2 0.12535935E+00 0.18648092E+04</pdfrwt>
<pdfrwt beam="2">  1       -1 0.16414414E+00 0.18648092E+04</pdfrwt>
<totfact> 0.97984783E+00</totfact>
</mgrwt>
</event>
<event>
12    7  0.4121537E-007  0.2303042E+04  0.7818608E-02  0.8476723E-01
          2   -1    0    0  501    0  0.00000000000E+00  0.00000000000E+00  0.14381653114E+04  0.14381653114E+04  0.00000000000E+00 0. -1.
         -1   -1    0    0    0  501 -0.00000000000E+00 -0.00000000000E+00 -0.92200846646E+03  0.92200846646E+03  0.00000000000E+00 0.  1.
         24    2    1    2    0    0  0.60337580223E+03  0.64959346019E+03  0.64087053969E+03  0.10989462407E+04  0.10456466402E+03 0.  0.
        254    2    1    2    0    0 -0.60337580223E+03 -0.64959346019E+03 -0.12471369473E+03  0.12612275372E+04  0.88831715775E+03 0.  0.
         23    2    4    4    0    0 -0.52894160999E+03 -0.69093639670E+03  0.21290573738E+03  0.90055474115E+03  0.92182740892E+02 0.  0.
         23    2    4    4    0    0 -0.74434192237E+02  0.41342936509E+02 -0.33761943211E+03  0.36067279608E+03  0.94065389605E+02 0.  0.
          2    1    3    3  502    0  0.58864879732E+03  0.63923823885E+03  0.60511216362E+03  0.10589115464E+04  0.00000000000E+00 0. -1.
         -1    1    3    3    0  502  0.14727004912E+02  0.10355221343E+02  0.35758376072E+02  0.40034694230E+02  0.00000000000E+00 0.  1.
         13    1    5    5    0    0 -0.51420066228E+03 -0.67084533084E+03  0.18919633763E+03  0.86615878057E+03  0.00000000000E+00 0.  1.
        -13    1    5    5    0    0 -0.14740947717E+02 -0.20091065865E+02  0.23709399748E+02  0.34395960571E+02  0.00000000000E+00 0. -1.
          4    1    6    6  503    0 -0.64905266094E+02  0.17505437563E+02 -0.32534539604E+03  0.33221794147E+03  0.00000000000E+00 0.  1.
         -4    1    6    6    0  503 -0.95289261439E+01  0.23837498947E+02 -0.12274036072E+02  0.28454854612E+02  0.00000000000E+00 0. -1.
<mgrwt>
<rscale>  0 0.23030420E+04</rscale>
<asrwt>0</asrwt>
<pdfrwt beam="1">  1        2 0.22125620E+00 0.23030420E+04</pdfrwt>
<pdfrwt beam="2">  1       -1 0.14184746E+00 0.23030420E+04</pdfrwt>
<totfact> 0.57554290E+00</totfact>
</mgrwt>
</event>
<event>
12    7  0.1544987E-007  0.1468478E+04  0.7818608E-02  0.8905690E-01
          2   -1    0    0  501    0  0.00000000000E+00  0.00000000000E+00  0.12505990301E+04  0.12505990301E+04  0.00000000000E+00 0. -1.
         -1   -1    0    0    0  501 -0.00000000000E+00 -0.00000000000E+00 -0.43107879619E+03  0.43107879619E+03  0.00000000000E+00 0.  1.
         24    2    1    2    0    0 -0.73561207704E+02 -0.36034242617E+03  0.52804017900E+03  0.64834516609E+03  0.79165070388E+02 0.  0.
        254    2    1    2    0    0  0.73561207704E+02  0.36034242617E+03  0.29148005488E+03  0.10333326602E+04  0.92062905061E+03 0.  0.
         23    2    4    4    0    0 -0.40189476208E+02  0.61372688813E+03  0.37954149008E+03  0.72827913160E+03  0.89793449729E+02 0.  0.
         23    2    4    4    0    0  0.11375068391E+03 -0.25338446196E+03 -0.88061435190E+02  0.30505352859E+03  0.90332360100E+02 0.  0.
          4    1    3    3  502    0 -0.42468328480E+02 -0.28459058656E+03  0.45646295407E+03  0.53958668379E+03  0.00000000000E+00 0. -1.
         -3    1    3    3    0  502 -0.31092879224E+02 -0.75751839609E+02  0.71577224927E+02  0.10875848229E+03  0.00000000000E+00 0.  1.
         13    1    5    5    0    0 -0.66058556699E+02  0.33198306112E+03  0.19900332092E+03  0.39265609319E+03  0.00000000000E+00 0. -1.
        -13    1    5    5    0    0  0.25869080491E+02  0.28174382701E+03  0.18053816916E+03  0.33562303840E+03  0.00000000000E+00 0.  1.
          1    1    6    6  503    0  0.12915878752E+03 -0.23021681753E+03 -0.75741136775E+02  0.27462428018E+03  0.00000000000E+00 0. -1.
         -1    1    6    6    0  503 -0.15408103607E+02 -0.23167644434E+02 -0.12320298415E+02  0.30429248404E+02  0.00000000000E+00 0.  1.
<mgrwt>
<rscale>  0 0.14684777E+04</rscale>
<asrwt>0</asrwt>
<pdfrwt beam="1">  1        2 0.19239985E+00 0.14684777E+04</pdfrwt>
<pdfrwt beam="2">  1       -1 0.66319816E-01 0.14684777E+04</pdfrwt>
<totfact> 0.44960185E+01</totfact>
</mgrwt>
</event>
<event>
12    7  0.1544987E-007  0.1718040E+04  0.7818608E-02  0.8751142E-01
         -1   -1    0    0    0  501 -0.00000000000E+00  0.00000000000E+00  0.64618233091E+03  0.64618233091E+03  0.00000000000E+00 0.  1.
          2   -1    0    0  501    0  0.00000000000E+00 -0.00000000000E+00 -0.11419618895E+04  0.11419618895E+04  0.00000000000E+00 0. -1.
         24    2    1    2    0    0 -0.39686183199E+03  0.46449271726E+03 -0.63406292397E+02  0.61931483163E+03  0.79231967543E+02 0.  0.
        254    2    1    2    0    0  0.39686183199E+03 -0.46449271726E+03 -0.43237326618E+03  0.11688293888E+04  0.89775425405E+03 0.  0.
         23    2    4    4    0    0  0.21070958071E+03 -0.71545364030E+03 -0.23411456057E+03  0.78692640153E+03  0.90394110056E+02 0.  0.
         23    2    4    4    0    0  0.18615225128E+03  0.25096092303E+03 -0.19825870561E+03  0.38190298724E+03  0.94389256627E+02 0.  0.
          4    1    3    3  502    0 -0.81972723259E+02  0.54983774207E+02 -0.21651889878E+02  0.10105219998E+03  0.00000000000E+00 0. -1.
         -1    1    3    3    0  502 -0.31488910873E+03  0.40950894306E+03 -0.41754402520E+02  0.51826263165E+03  0.00000000000E+00 0.  1.
         13    1    5    5    0    0  0.11314285280E+03 -0.27907983072E+03 -0.59919629651E+02  0.30704595596E+03  0.00000000000E+00 0.  1.
        -13    1    5    5    0    0  0.97566727910E+02 -0.43637380958E+03 -0.17419493092E+03  0.47988044557E+03  0.00000000000E+00 0. -1.
          1    1    6    6  503    0  0.18052025031E+03  0.22561843512E+03 -0.14642467748E+03  0.32393120444E+03  0.00000000000E+00 0. -1.
         -1    1    6    6    0  503  0.56320009748E+01  0.25342487915E+02 -0.51834028130E+02  0.57971782799E+02  0.00000000000E+00 0.  1.
<mgrwt>
<rscale>  0 0.17180403E+04</rscale>
<asrwt>0</asrwt>
<pdfrwt beam="1">  1        2 0.17568644E+00 0.17180403E+04</pdfrwt>
<pdfrwt beam="2">  1       -1 0.99412667E-01 0.17180403E+04</pdfrwt>
<totfact> 0.21497790E+01</totfact>
</mgrwt>
</event>
<event>
12    7  0.1544987E-007  0.1265503E+04  0.7818608E-02  0.9057378E-01
         -1   -1    0    0    0  501 -0.00000000000E+00  0.00000000000E+00  0.18871268354E+03  0.18871268354E+03  0.00000000000E+00 0.  1.
          2   -1    0    0  501    0  0.00000000000E+00 -0.00000000000E+00 -0.21216088731E+04  0.21216088731E+04  0.00000000000E+00 0. -1.
         24    2    1    2    0    0  0.29488096170E+03  0.73435915348E+02 -0.35545531968E+03  0.47431253099E+03  0.79222960877E+02 0.  0.
        254    2    1    2    0    0 -0.29488096170E+03 -0.73435915348E+02 -0.15774408698E+04  0.18360090256E+04  0.88896671985E+03 0.  0.
         23    2    4    4    0    0  0.20107603825E+03  0.15442065593E+03 -0.15777832047E+03  0.31237854527E+03  0.91700845131E+02 0.  0.
         23    2    4    4    0    0 -0.49595699995E+03 -0.22785657128E+03 -0.14196625494E+04  0.15236304803E+04  0.90089531071E+02 0.  0.
          4    1    3    3  502    0  0.61060541838E+02  0.43431248486E+02 -0.11748771397E+03  0.13934857749E+03  0.00000000000E+00 0. -1.
         -1    1    3    3    0  502  0.23382041986E+03  0.30004666861E+02 -0.23796760571E+03  0.33496395350E+03  0.00000000000E+00 0.  1.
         13    1    5    5    0    0  0.13079211858E+03  0.74270280878E+02 -0.13766141010E+03  0.20389535732E+03  0.00000000000E+00 0. -1.
        -13    1    5    5    0    0  0.70283919671E+02  0.80150375057E+02 -0.20116910368E+02  0.10848318795E+03  0.00000000000E+00 0.  1.
          1    1    6    6  503    0 -0.11837279804E+02 -0.24262108148E+02 -0.51848302063E+02  0.58455260771E+02  0.00000000000E+00 0. -1.
         -1    1    6    6    0  503 -0.48411972015E+03 -0.20359446313E+03 -0.13678142473E+04  0.14651752196E+04  0.00000000000E+00 0.  1.
<mgrwt>
<rscale>  0 0.12655031E+04</rscale>
<asrwt>0</asrwt>
<pdfrwt beam="1">  1        2 0.32640135E+00 0.12655031E+04</pdfrwt>
<pdfrwt beam="2">  1       -1 0.29032722E-01 0.12655031E+04</pdfrwt>
<totfact> 0.69240358E+01</totfact>
</mgrwt>
</event>
<event>
12    7  0.1544987E-007  0.1554951E+04  0.7818608E-02  0.8848711E-01
          2   -1    0    0  501    0  0.00000000000E+00  0.00000000000E+00  0.24675232181E+04  0.24675232181E+04  0.00000000000E+00 0. -1.
         -1   -1    0    0    0  501 -0.00000000000E+00 -0.00000000000E+00 -0.24496960493E+03  0.24496960493E+03  0.00000000000E+00 0.  1.
         24    2    1    2    0    0 -0.46347178400E+03 -0.43968175516E+02  0.11512056322E+04  0.12442648833E+04  0.78621861820E+02 0.  0.
        254    2    1    2    0    0  0.46347178400E+03  0.43968175516E+02  0.10713479810E+04  0.14682279398E+04  0.88947596468E+03 0.  0.
         23    2    4    4    0    0  0.43953311733E+03  0.27879676605E+03  0.10926968483E+04  0.12140122671E+04  0.94458373965E+02 0.  0.
         23    2    4    4    0    0  0.23938666671E+02 -0.23482859054E+03 -0.21348867275E+02  0.25421567269E+03  0.91936431369E+02 0.  0.
          4    1    3    3  502    0 -0.34337885240E+03 -0.10892159961E+02  0.91214453631E+03  0.97469755850E+03  0.00000000000E+00 0. -1.
         -3    1    3    3    0  502 -0.12009293161E+03 -0.33076015555E+02  0.23906109585E+03  0.26956732475E+03  0.00000000000E+00 0.  1.
         13    1    5    5    0    0  0.26707627138E+03  0.12919420685E+03  0.69042885078E+03  0.75147380248E+03  0.00000000000E+00 0.  1.
        -13    1    5    5    0    0  0.17245684595E+03  0.14960255921E+03  0.40226799753E+03  0.46253846464E+03  0.00000000000E+00 0. -1.
          1    1    6    6  503    0  0.43629249057E+02 -0.57524337245E+02 -0.23129549843E+02  0.75812511003E+02  0.00000000000E+00 0. -1.
         -1    1    6    6    0  503 -0.19690582386E+02 -0.17730425329E+03  0.17806825681E+01  0.17840316169E+03  0.00000000000E+00 0.  1.
<mgrwt>
<rscale>  0 0.15549510E+04</rscale>
<asrwt>0</asrwt>
<pdfrwt beam="1">  1        2 0.37961894E+00 0.15549510E+04</pdfrwt>
<pdfrwt beam="2">  1       -1 0.37687633E-01 0.15549510E+04</pdfrwt>
<totfact> 0.27106164E+01</totfact>
</mgrwt>
</event>
<event>
12    7  0.1544987E-007  0.2150862E+04  0.7818608E-02  0.8539163E-01
          2   -1    0    0  501    0  0.00000000000E+00  0.00000000000E+00  0.10770504714E+04  0.10770504714E+04  0.00000000000E+00 0. -1.
         -3   -1    0    0    0  501 -0.00000000000E+00 -0.00000000000E+00 -0.10738140150E+04  0.10738140150E+04  0.00000000000E+00 0.  1.
         24    2    1    2    0    0 -0.79837775182E+03  0.23251668247E+03  0.29623026314E+03  0.88662238485E+03  0.82920698747E+02 0.  0.
        254    2    1    2    0    0  0.79837775182E+03 -0.23251668247E+03 -0.29299380676E+03  0.12642421016E+04  0.90608591112E+03 0.  0.
         23    2    4    4    0    0  0.55364472802E+01 -0.72003782548E+01 -0.41440502698E+03  0.42571571861E+03  0.97055906494E+02 0.  0.
         23    2    4    4    0    0  0.79284130454E+03 -0.22531630421E+03  0.12141122023E+03  0.83852638295E+03  0.94979152366E+02 0.  0.
          4    1    3    3  502    0 -0.23516459158E+02  0.72202481426E+01 -0.53216153564E+01  0.25168937693E+02  0.00000000000E+00 0. -1.
         -3    1    3    3    0  502 -0.77486129266E+03  0.22529643432E+03  0.30155187850E+03  0.86145344715E+03  0.00000000000E+00 0.  1.
         13    1    5    5    0    0  0.14421914482E+02  0.67170322356E+01 -0.60406106157E+01  0.17017611936E+02  0.00000000000E+00 0.  1.
        -13    1    5    5    0    0 -0.88854672020E+01 -0.13917410490E+02 -0.40836441637E+03  0.40869810667E+03  0.00000000000E+00 0. -1.
          1    1    6    6  503    0  0.45378644087E+03 -0.11041391951E+03  0.24608602793E+02  0.46767397926E+03  0.00000000000E+00 0. -1.
         -1    1    6    6    0  503  0.33905486367E+03 -0.11490238470E+03  0.96802617433E+02  0.37085240370E+03  0.00000000000E+00 0.  1.
<mgrwt>
<rscale>  0 0.21508621E+04</rscale>
<asrwt>0</asrwt>
<pdfrwt beam="1">  1        2 0.16570007E+00 0.21508621E+04</pdfrwt>
<pdfrwt beam="2">  1       -3 0.16520216E+00 0.21508621E+04</pdfrwt>
<totfact> 0.32590366E+00</totfact>
</mgrwt>
</event>
<event>
12    7  0.1544987E-007  0.2471420E+04  0.7818608E-02  0.8413238E-01
         -1   -1    0    0    0  501 -0.00000000000E+00  0.00000000000E+00  0.96121638078E+03  0.96121638078E+03  0.00000000000E+00 0.  1.
          2   -1    0    0  501    0  0.00000000000E+00 -0.00000000000E+00 -0.15885909131E+04  0.15885909131E+04  0.00000000000E+00 0. -1.
         24    2    1    2    0    0 -0.22877400595E+03  0.83994293777E+03 -0.91902835256E+03  0.12675248882E+04  0.64533284554E+02 0.  0.
        254    2    1    2    0    0  0.22877400595E+03 -0.83994293777E+03  0.29165382021E+03  0.12822824057E+04  0.89517849210E+03 0.  0.
         23    2    4    4    0    0  0.15633980163E+03 -0.34777810645E+03 -0.30754098373E+03  0.49822272319E+03  0.90844264104E+02 0.  0.
         23    2    4    4    0    0  0.72434204321E+02 -0.49216483132E+03  0.59919480394E+03  0.78405968256E+03  0.90786769969E+02 0.  0.
          2    1    3    3  502    0 -0.71274324665E+02  0.36848251199E+03 -0.41762714076E+03  0.56149071203E+03  0.00000000000E+00 0. -1.
         -1    1    3    3    0  502 -0.15749968129E+03  0.47146042578E+03 -0.50140121180E+03  0.70603417614E+03  0.00000000000E+00 0.  1.
         13    1    5    5    0    0  0.77020798137E+02 -0.25004021076E+03 -0.17124016899E+03  0.31269075109E+03  0.00000000000E+00 0.  1.
        -13    1    5    5    0    0  0.79319003493E+02 -0.97737895699E+02 -0.13630081474E+03  0.18553197210E+03  0.00000000000E+00 0. -1.
          2    1    6    6  503    0  0.76491988350E+02 -0.49408064187E+03  0.58697704539E+03  0.77104393958E+03  0.00000000000E+00 0. -1.
         -2    1    6    6    0  503 -0.40577840287E+01  0.19158105468E+01  0.12217758552E+02  0.13015742980E+02  0.00000000000E+00 0.  1.
<mgrwt>
<rscale>  0 0.24714203E+04</rscale>
<asrwt>0</asrwt>
<pdfrwt beam="1">  1        2 0.24439860E+00 0.24714203E+04</pdfrwt>
<pdfrwt beam="2">  1       -1 0.14787944E+00 0.24714203E+04</pdfrwt>
<totfact> 0.41770879E+00</totfact>
</mgrwt>
</event>
<event>
12    7  0.1544987E-007  0.1269238E+04  0.7818608E-02  0.9054322E-01
          2   -1    0    0  501    0  0.00000000000E+00  0.00000000000E+00  0.35284049050E+04  0.35284049050E+04  0.00000000000E+00 0. -1.
         -1   -1    0    0    0  501 -0.00000000000E+00 -0.00000000000E+00 -0.11414255987E+03  0.11414255987E+03  0.00000000000E+00 0.  1.
         24    2    1    2    0    0 -0.11167604288E+03 -0.28878935825E+03  0.10221644587E+04  0.10710968393E+04  0.80977937481E+02 0.  0.
        254    2    1    2    0    0  0.11167604288E+03  0.28878935825E+03  0.23920978863E+04  0.25714506256E+04  0.89126606008E+03 0.  0.
         23    2    4    4    0    0  0.32978865001E+03 -0.50275732132E+02  0.36336283316E+03  0.50123629472E+03  0.88977928209E+02 0.  0.
         23    2    4    4    0    0 -0.21811260713E+03  0.33906509038E+03  0.20287350532E+04  0.20702143308E+04  0.86505575960E+02 0.  0.
          4    1    3    3  502    0 -0.68411703459E+02 -0.25497585083E+03  0.87796888993E+03  0.91679998765E+03  0.00000000000E+00 0. -1.
         -3    1    3    3    0  502 -0.43264339423E+02 -0.33813507421E+02  0.14419556881E+03  0.15429685161E+03  0.00000000000E+00 0.  1.
         13    1    5    5    0    0  0.22349700245E+03 -0.72251782228E+02  0.27183349663E+03  0.35925573069E+03  0.00000000000E+00 0.  1.
        -13    1    5    5    0    0  0.10629164756E+03  0.21976050096E+02  0.91529336522E+02  0.14198056403E+03  0.00000000000E+00 0. -1.
          3    1    6    6  503    0 -0.18308669975E+03  0.21845643356E+03  0.14918627080E+04  0.15188476858E+04  0.00000000000E+00 0. -1.
         -3    1    6    6    0  503 -0.35025907385E+02  0.12060865682E+03  0.53687234515E+03  0.55136664505E+03  0.00000000000E+00 0.  1.
<mgrwt>
<rscale>  0 0.12692378E+04</rscale>
<asrwt>0</asrwt>
<pdfrwt beam="1">  1        2 0.54283144E+00 0.12692378E+04</pdfrwt>
<pdfrwt beam="2">  1       -1 0.17560397E-01 0.12692378E+04</pdfrwt>
<totfact> 0.22573857E+01</totfact>
</mgrwt>
</event>
<event>
12    7  0.1544987E-007  0.2266323E+04  0.7818608E-02  0.8491319E-01
         -1   -1    0    0    0  501 -0.00000000000E+00  0.00000000000E+00  0.11030564299E+04  0.11030564299E+04  0.00000000000E+00 0.  1.
          2   -1    0    0  501    0  0.00000000000E+00 -0.00000000000E+00 -0.11640878948E+04  0.11640878948E+04  0.00000000000E+00 0. -1.
         24    2    1    2    0    0  0.34868497234E+03  0.38429599138E+02  0.86241006755E+03  0.93484337866E+03  0.84397713116E+02 0.  0.
        254    2    1    2    0    0 -0.34868497234E+03 -0.38429599138E+02 -0.92344153238E+03  0.13323009460E+04  0.89399301064E+03 0.  0.
         23    2    4    4    0    0 -0.24218268325E+03 -0.27085951764E+03 -0.98499826986E+03  0.10538011053E+04  0.90872700128E+02 0.  0.
         23    2    4    4    0    0 -0.10650228910E+03  0.23242991850E+03  0.61556737480E+02  0.27849984070E+03  0.91687102382E+02 0.  0.
          4    1    3    3  502    0  0.18610299731E+02 -0.22743174910E+01  0.13475607344E+02  0.23089126649E+02  0.00000000000E+00 0. -1.
         -3    1    3    3    0  502  0.33007467261E+03  0.40703916629E+02  0.84893446021E+03  0.91175425201E+03  0.00000000000E+00 0.  1.
         13    1    5    5    0    0 -0.13714289995E+03 -0.14147177809E+03 -0.40584135117E+03  0.45114259533E+03  0.00000000000E+00 0. -1.
        -13    1    5    5    0    0 -0.10503978330E+03 -0.12938773955E+03 -0.57915691868E+03  0.60265851000E+03  0.00000000000E+00 0.  1.
          3    1    6    6  503    0 -0.69853646032E+01  0.88275676002E+02 -0.10334237299E+02  0.89152603736E+02  0.00000000000E+00 0. -1.
         -3    1    6    6    0  503 -0.99516924496E+02  0.14415424250E+03  0.71890974779E+02  0.18934723697E+03  0.00000000000E+00 0.  1.
<mgrwt>
<rscale>  0 0.22663227E+04</rscale>
<asrwt>0</asrwt>
<pdfrwt beam="1">  1        2 0.17909044E+00 0.22663227E+04</pdfrwt>
<pdfrwt beam="2">  1       -1 0.16970099E+00 0.22663227E+04</pdfrwt>
<totfact> 0.51026191E+00</totfact>
</mgrwt>
</event>
<event>
12    7  0.1544987E-007  0.1517751E+04  0.7818608E-02  0.8872734E-01
         -1   -1    0    0    0  501 -0.00000000000E+00  0.00000000000E+00  0.31120438297E+03  0.31120438297E+03  0.00000000000E+00 0.  1.
          2   -1    0    0  501    0  0.00000000000E+00 -0.00000000000E+00 -0.18505264532E+04  0.18505264532E+04  0.00000000000E+00 0. -1.
         24    2    1    2    0    0  0.24581382085E+03  0.24281549695E+03  0.81268885258E+01  0.35429741830E+03  0.77953923681E+02 0.  0.
        254    2    1    2    0    0 -0.24581382085E+03 -0.24281549695E+03 -0.15474489588E+04  0.18074334179E+04  0.86765977204E+03 0.  0.
         23    2    4    4    0    0  0.31156303557E+03 -0.48254165565E+02 -0.67151549250E+03  0.74723424127E+03  0.89587750395E+02 0.  0.
         23    2    4    4    0    0 -0.55737685642E+03 -0.19456133138E+03 -0.87593346628E+03  0.10601991766E+04  0.90773261731E+02 0.  0.
          2    1    3    3  502    0 -0.41049241383E+01 -0.17104219620E+01 -0.89000295878E+00  0.45352012895E+01  0.00000000000E+00 0. -1.
         -1    1    3    3    0  502  0.24991874499E+03  0.24452591891E+03  0.90168914846E+01  0.34976221701E+03  0.00000000000E+00 0.  1.
         13    1    5    5    0    0  0.69348039931E+01  0.14834498836E+02 -0.27227941054E+02  0.31772860057E+02  0.00000000000E+00 0.  1.
        -13    1    5    5    0    0  0.30462823157E+03 -0.63088664402E+02 -0.64428755145E+03  0.71546138121E+03  0.00000000000E+00 0. -1.
          3    1    6    6  503    0 -0.41852956222E+03 -0.11139325129E+03 -0.67789871916E+03  0.80443901218E+03  0.00000000000E+00 0. -1.
         -3    1    6    6    0  503 -0.13884729421E+03 -0.83168080091E+02 -0.19803474712E+03  0.25576016445E+03  0.00000000000E+00 0.  1.
<mgrwt>
<rscale>  0 0.15177509E+04</rscale>
<asrwt>0</asrwt>
<pdfrwt beam="1">  1        2 0.28469637E+00 0.15177509E+04</pdfrwt>
<pdfrwt beam="2">  1       -1 0.47877598E-01 0.15177509E+04</pdfrwt>
<totfact> 0.38755820E+01</totfact>
</mgrwt>
</event>
<event>
12    7  0.1544987E-007  0.2343015E+04  0.7818608E-02  0.8461151E-01
         -1   -1    0    0    0  501 -0.00000000000E+00  0.00000000000E+00  0.68435053914E+03  0.68435053914E+03  0.00000000000E+00 0.  1.
          2   -1    0    0  501    0  0.00000000000E+00 -0.00000000000E+00 -0.20054487392E+04  0.20054487392E+04  0.00000000000E+00 0. -1.
         24    2    1    2    0    0 -0.93200476563E+03  0.27426680306E+03 -0.80815355739E+03  0.12661711111E+04  0.78879323797E+02 0.  0.
        254    2    1    2    0    0  0.93200476563E+03 -0.27426680306E+03 -0.51294464270E+03  0.14236281673E+04  0.90540034784E+03 0.  0.
         23    2    4    4    0    0  0.63720024729E+03  0.79734517342E+02  0.94566925701E+02  0.65555739458E+03  0.91819637117E+02 0.  0.
         23    2    4    4    0    0  0.29480451834E+03 -0.35400132041E+03 -0.60751156840E+03  0.76807077273E+03  0.92928829186E+02 0.  0.
          4    1    3    3  502    0 -0.88050765986E+03  0.26611671089E+03 -0.74118019672E+03  0.11812958676E+04  0.00000000000E+00 0. -1.
         -3    1    3    3    0  502 -0.51497105769E+02  0.81500921716E+01 -0.66973360678E+02  0.84875243419E+02  0.00000000000E+00 0.  1.
         13    1    5    5    0    0  0.56013744927E+03  0.39752195230E+02  0.74668341480E+02  0.56648879982E+03  0.00000000000E+00 0. -1.
        -13    1    5    5    0    0  0.77062798015E+02  0.39982322112E+02  0.19898584222E+02  0.89068594765E+02  0.00000000000E+00 0.  1.
          3    1    6    6  503    0  0.18178457655E+03 -0.24562086839E+03 -0.46453025837E+03  0.55602482337E+03  0.00000000000E+00 0. -1.
         -3    1    6    6    0  503  0.11301994179E+03 -0.10838045202E+03 -0.14298131003E+03  0.21204594936E+03  0.00000000000E+00 0.  1.
<mgrwt>
<rscale>  0 0.23430151E+04</rscale>
<asrwt>0</asrwt>
<pdfrwt beam="1">  1        2 0.30853058E+00 0.23430151E+04</pdfrwt>
<pdfrwt beam="2">  1       -1 0.10528470E+00 0.23430151E+04</pdfrwt>
<totfact> 0.57705744E+00</totfact>
</mgrwt>
</event>
<event>
12    7  0.1544987E-007  0.1516226E+04  0.7818608E-02  0.8873734E-01
          2   -1    0    0  501    0  0.00000000000E+00  0.00000000000E+00  0.12498613241E+04  0.12498613241E+04  0.00000000000E+00 0. -1.
         -1   -1    0    0    0  501 -0.00000000000E+00 -0.00000000000E+00 -0.45983932976E+03  0.45983932976E+03  0.00000000000E+00 0.  1.
         24    2    1    2    0    0 -0.32219629945E+03 -0.12237879493E+03 -0.21415284447E+03  0.41364712241E+03  0.80345978467E+02 0.  0.
        254    2    1    2    0    0  0.32219629945E+03  0.12237879493E+03  0.10041748388E+04  0.12960535315E+04  0.74337112174E+03 0.  0.
         23    2    4    4    0    0 -0.14320202833E+03  0.25234733889E+03  0.23914537782E+03  0.38672354808E+03  0.90435560181E+02 0.  0.
         23    2    4    4    0    0  0.46539832779E+03 -0.12996854396E+03  0.76502946101E+03  0.90932998338E+03  0.90130552661E+02 0.  0.
          2    1    3    3  502    0 -0.21032843527E+01  0.77366392653E+01 -0.78278535689E+01  0.11205118638E+02  0.00000000000E+00 0. -1.
         -1    1    3    3    0  502 -0.32009301510E+03 -0.13011543419E+03 -0.20632499090E+03  0.40244200378E+03  0.00000000000E+00 0.  1.
         13    1    5    5    0    0 -0.15236882793E+03  0.21368384427E+03  0.22073687985E+03  0.34293121053E+03  0.00000000000E+00 0.  1.
        -13    1    5    5    0    0  0.91667995972E+01  0.38663494620E+02  0.18408497966E+02  0.43792337554E+02  0.00000000000E+00 0. -1.
          2    1    6    6  503    0  0.60192089337E+02  0.13390614102E+02  0.91451627162E+02  0.11029866851E+03  0.00000000000E+00 0. -1.
         -2    1    6    6    0  503  0.40520623845E+03 -0.14335915807E+03  0.67357783385E+03  0.79903131487E+03  0.00000000000E+00 0.  1.
<mgrwt>
<rscale>  0 0.15162261E+04</rscale>
<asrwt>0</asrwt>
<pdfrwt beam="1">  1        2 0.19228636E+00 0.15162261E+04</pdfrwt>
<pdfrwt beam="2">  1       -1 0.70744513E-01 0.15162261E+04</pdfrwt>
<totfact> 0.39295350E+01</totfact>
</mgrwt>
</event>
<event>
12    7  0.1544987E-007  0.1913535E+04  0.7818608E-02  0.8648148E-01
          2   -1    0    0  501    0  0.00000000000E+00  0.00000000000E+00  0.26007491305E+04  0.26007491305E+04  0.00000000000E+00 0. -1.
         -1   -1    0    0    0  501 -0.00000000000E+00 -0.00000000000E+00 -0.35197705949E+03  0.35197705949E+03  0.00000000000E+00 0.  1.
         24    2    1    2    0    0 -0.10298930500E+03 -0.69115885627E+03  0.47215818875E+03  0.84725997842E+03  0.81294245105E+02 0.  0.
        254    2    1    2    0    0  0.10298930500E+03  0.69115885627E+03  0.17766138823E+04  0.21054662116E+04  0.88787595973E+03 0.  0.
         23    2    4    4    0    0  0.34428687424E+03  0.77684040439E+03  0.14184119507E+04  0.16561745074E+04  0.94905591694E+02 0.  0.
         23    2    4    4    0    0 -0.24129756924E+03 -0.85681548119E+02  0.35820193161E+03  0.44929170423E+03  0.89378784244E+02 0.  0.
          2    1    3    3  502    0 -0.82654634582E+02 -0.65963208300E+03  0.43503849469E+03  0.79448396171E+03  0.00000000000E+00 0. -1.
         -1    1    3    3    0  502 -0.20334670414E+02 -0.31526773269E+02  0.37119694053E+02  0.52776016713E+02  0.00000000000E+00 0.  1.
         13    1    5    5    0    0  0.30962644283E+02  0.40770607856E+02  0.12862621926E+03  0.13843999453E+03  0.00000000000E+00 0. -1.
        -13    1    5    5    0    0  0.31332422996E+03  0.73606979653E+03  0.12897857314E+04  0.15177345128E+04  0.00000000000E+00 0.  1.
          3    1    6    6  503    0 -0.17328992725E+03 -0.93414939628E+02  0.30310375071E+03  0.36142445065E+03  0.00000000000E+00 0. -1.
         -3    1    6    6    0  503 -0.68007641994E+02  0.77333915097E+01  0.55098180892E+02  0.87867253578E+02  0.00000000000E+00 0.  1.
<mgrwt>
<rscale>  0 0.19135350E+04</rscale>
<asrwt>0</asrwt>
<pdfrwt beam="1">  1        2 0.40011524E+00 0.19135350E+04</pdfrwt>
<pdfrwt beam="2">  1       -1 0.54150319E-01 0.19135350E+04</pdfrwt>
<totfact> 0.11162437E+01</totfact>
</mgrwt>
</event>
<event>
12    7  0.1544987E-007  0.3218054E+04  0.7818608E-02  0.8184065E-01
         -1   -1    0    0    0  501 -0.00000000000E+00  0.00000000000E+00  0.12271702621E+04  0.12271702621E+04  0.00000000000E+00 0.  1.
          2   -1    0    0  501    0  0.00000000000E+00 -0.00000000000E+00 -0.21097055766E+04  0.21097055766E+04  0.00000000000E+00 0. -1.
         24    2    1    2    0    0  0.96905090012E+03  0.10240372622E+04 -0.95633020980E+03  0.17055550162E+04  0.81476877198E+02 0.  0.
        254    2    1    2    0    0 -0.96905090012E+03 -0.10240372622E+04  0.73794895334E+02  0.16313208225E+04  0.81734324372E+03 0.  0.
         23    2    4    4    0    0 -0.31253199746E+03 -0.63631280630E+03  0.37411016645E+03  0.80688772661E+03  0.92407520298E+02 0.  0.
         23    2    4    4    0    0 -0.65651890266E+03 -0.38772445592E+03 -0.30031527112E+03  0.82443309594E+03  0.90295871141E+02 0.  0.
          2    1    3    3  502    0  0.82165424474E+03  0.84949271942E+03 -0.76777110194E+03  0.14093353196E+04  0.00000000000E+00 0. -1.
         -1    1    3    3    0  502  0.14739665538E+03  0.17454454281E+03 -0.18855910787E+03  0.29621969651E+03  0.00000000000E+00 0.  1.
         13    1    5    5    0    0 -0.87879402140E+02 -0.11744756791E+03  0.48903624150E+02  0.15462304157E+03  0.00000000000E+00 0.  1.
        -13    1    5    5    0    0 -0.22465259532E+03 -0.51886523839E+03  0.32520654230E+03  0.65226468504E+03  0.00000000000E+00 0. -1.
          1    1    6    6  503    0 -0.62448219255E+03 -0.35027573527E+03 -0.26365501662E+03  0.76301052897E+03  0.00000000000E+00 0. -1.
         -1    1    6    6    0  503 -0.32036710109E+02 -0.37448720655E+02 -0.36660254500E+02  0.61422566971E+02  0.00000000000E+00 0.  1.
<mgrwt>
<rscale>  0 0.32180540E+04</rscale>
<asrwt>0</asrwt>
<pdfrwt beam="1">  1        2 0.32457009E+00 0.32180540E+04</pdfrwt>
<pdfrwt beam="2">  1       -1 0.18879542E+00 0.32180540E+04</pdfrwt>
<totfact> 0.99974253E-01</totfact>
</mgrwt>
</event>
<event>
12    7  0.1544987E-007  0.3492842E+04  0.7818608E-02  0.8115488E-01
         -1   -1    0    0    0  501 -0.00000000000E+00  0.00000000000E+00  0.10666526298E+04  0.10666526298E+04  0.00000000000E+00 0.  1.
          2   -1    0    0  501    0  0.00000000000E+00 -0.00000000000E+00 -0.28593992518E+04  0.28593992518E+04  0.00000000000E+00 0. -1.
         24    2    1    2    0    0 -0.11551592809E+04 -0.57957079425E+03 -0.19501761794E+04  0.23409236018E+04  0.80255274751E+02 0.  0.
        254    2    1    2    0    0  0.11551592809E+04  0.57957079425E+03  0.15742955744E+03  0.15851282798E+04  0.90418600300E+03 0.  0.
         23    2    4    4    0    0  0.71774920255E+03  0.74452620344E+03 -0.10319466255E+03  0.10429899682E+04  0.87725423517E+02 0.  0.
         23    2    4    4    0    0  0.43741007836E+03 -0.16495540919E+03  0.26062421999E+03  0.54213831163E+03  0.86319761465E+02 0.  0.
          2    1    3    3  502    0 -0.11070008355E+04 -0.56040221933E+03 -0.18963655007E+04  0.22662090833E+04  0.00000000000E+00 0. -1.
         -1    1    3    3    0  502 -0.48158445451E+02 -0.19168574923E+02 -0.53810678664E+02  0.74714518476E+02  0.00000000000E+00 0.  1.
         13    1    5    5    0    0  0.45293203658E+03  0.49369080607E+03 -0.10542663850E+03  0.67822770355E+03  0.00000000000E+00 0. -1.
        -13    1    5    5    0    0  0.26481716597E+03  0.25083539738E+03  0.22319759449E+01  0.36476226461E+03  0.00000000000E+00 0.  1.
          4    1    6    6  503    0  0.40664300894E+03 -0.17537338796E+03  0.24076662949E+03  0.50406639622E+03  0.00000000000E+00 0. -1.
         -4    1    6    6    0  503  0.30767069422E+02  0.10417978769E+02  0.19857590504E+02  0.38071915411E+02  0.00000000000E+00 0.  1.
<mgrwt>
<rscale>  0 0.34928417E+04</rscale>
<asrwt>0</asrwt>
<pdfrwt beam="1">  1        2 0.43990758E+00 0.34928417E+04</pdfrwt>
<pdfrwt beam="2">  1       -1 0.16410041E+00 0.34928417E+04</pdfrwt>
<totfact> 0.54052464E-01</totfact>
</mgrwt>
</event>
<event>
12    7  0.1544987E-007  0.2676862E+04  0.7818608E-02  0.8342552E-01
          2   -1    0    0  501    0  0.00000000000E+00  0.00000000000E+00  0.46392029639E+03  0.46392029639E+03  0.00000000000E+00 0. -1.
         -1   -1    0    0    0  501 -0.00000000000E+00 -0.00000000000E+00 -0.38614343227E+04  0.38614343227E+04  0.00000000000E+00 0.  1.
         24    2    1    2    0    0 -0.41164918497E+03 -0.68376335009E+03 -0.28866398551E+04  0.29960050222E+04  0.79806452479E+02 0.  0.
        254    2    1    2    0    0  0.41164918497E+03  0.68376335009E+03 -0.51087417123E+03  0.13293495969E+04  0.93230389973E+03 0.  0.
         23    2    4    4    0    0  0.17238392116E+03  0.28679513853E+03  0.25311889618E+03  0.42977501045E+03  0.93111311024E+02 0.  0.
         23    2    4    4    0    0  0.23926526380E+03  0.39696821156E+03 -0.76399306741E+03  0.89957458642E+03  0.10352488602E+03 0.  0.
          4    1    3    3  502    0 -0.33916890023E+03 -0.60399459512E+03 -0.24289040423E+04  0.25257513457E+04  0.00000000000E+00 0. -1.
         -3    1    3    3    0  502 -0.72480284734E+02 -0.79768754970E+02 -0.45773581280E+03  0.47025367650E+03  0.00000000000E+00 0.  1.
         13    1    5    5    0    0  0.56457227189E+02  0.29776637296E+02  0.31665328153E+02  0.71251383408E+02  0.00000000000E+00 0.  1.
        -13    1    5    5    0    0  0.11592669397E+03  0.25701850124E+03  0.22145356803E+03  0.35852362704E+03  0.00000000000E+00 0. -1.
          4    1    6    6  503    0  0.77911486754E+01  0.24137515220E+02 -0.10365507637E+03  0.10671315053E+03  0.00000000000E+00 0.  1.
         -4    1    6    6    0  503  0.23147411513E+03  0.37283069634E+03 -0.66033799104E+03  0.79286143589E+03  0.00000000000E+00 0. -1.
<mgrwt>
<rscale>  0 0.26768622E+04</rscale>
<asrwt>0</asrwt>
<pdfrwt beam="1">  1        2 0.71372353E-01 0.26768622E+04</pdfrwt>
<pdfrwt beam="2">  1       -1 0.59406682E+00 0.26768622E+04</pdfrwt>
<totfact> 0.30920757E-02</totfact>
</mgrwt>
</event>
<event>
12    7  0.1544987E-007  0.2431698E+04  0.7818608E-02  0.8427731E-01
          2   -1    0    0  501    0  0.00000000000E+00  0.00000000000E+00  0.32656595496E+04  0.32656595496E+04  0.00000000000E+00 0. -1.
         -1   -1    0    0    0  501 -0.00000000000E+00 -0.00000000000E+00 -0.45267687071E+03  0.45267687071E+03  0.00000000000E+00 0.  1.
         24    2    1    2    0    0 -0.59875397421E+03  0.28013772382E+02  0.25282724390E+04  0.25995774244E+04  0.79687933078E+02 0.  0.
        254    2    1    2    0    0  0.59875397421E+03 -0.28013772382E+02  0.28471023990E+03  0.11187589959E+04  0.90070565510E+03 0.  0.
         23    2    4    4    0    0  0.67911711075E+03 -0.16802754023E+03 -0.79417647897E+02  0.70994633318E+03  0.91012794787E+02 0.  0.
         23    2    4    4    0    0 -0.80363136534E+02  0.14001376785E+03  0.36412788779E+03  0.40881266272E+03  0.92068374752E+02 0.  0.
          4    1    3    3  502    0 -0.45197518521E+03  0.43892154898E+02  0.20121800279E+04  0.20627836905E+04  0.00000000000E+00 0. -1.
         -3    1    3    3    0  502 -0.14677878901E+03 -0.15878382516E+02  0.51609241112E+03  0.53679373390E+03  0.00000000000E+00 0.  1.
         13    1    5    5    0    0  0.51502650204E+02  0.75504343552E+01 -0.19111954809E+02  0.55450868827E+02  0.00000000000E+00 0.  1.
        -13    1    5    5    0    0  0.62761446054E+03 -0.17557797458E+03 -0.60305693088E+02  0.65449546436E+03  0.00000000000E+00 0. -1.
          2    1    6    6  503    0 -0.52168970708E+02  0.11787833558E+03  0.34475650349E+03  0.36806786086E+03  0.00000000000E+00 0. -1.
         -2    1    6    6    0  503 -0.28194165826E+02  0.22135432267E+02  0.19371384307E+02  0.40744801856E+02  0.00000000000E+00 0.  1.
<mgrwt>
<rscale>  0 0.24316978E+04</rscale>
<asrwt>0</asrwt>
<pdfrwt beam="1">  1        2 0.50240915E+00 0.24316978E+04</pdfrwt>
<pdfrwt beam="2">  1       -1 0.69642598E-01 0.24316978E+04</pdfrwt>
<totfact> 0.24995337E+00</totfact>
</mgrwt>
</event>
<event>
12    7  0.1544987E-007  0.1798093E+04  0.7818608E-02  0.8707314E-01
         -1   -1    0    0    0  501 -0.00000000000E+00  0.00000000000E+00  0.15229275550E+04  0.15229275550E+04  0.00000000000E+00 0.  1.
          2   -1    0    0  501    0  0.00000000000E+00 -0.00000000000E+00 -0.53074411592E+03  0.53074411592E+03  0.00000000000E+00 0. -1.
         24    2    1    2    0    0  0.51852831000E+03 -0.42409477434E+03  0.38961121100E+03  0.77900563788E+03  0.79529253858E+02 0.  0.
        254    2    1    2    0    0 -0.51852831000E+03  0.42409477434E+03  0.60257222809E+03  0.12746660330E+04  0.90163863039E+03 0.  0.
         23    2    4    4    0    0 -0.61343677806E+02 -0.23543207943E+03 -0.12860298113E+02  0.25919242802E+03  0.88453471638E+02 0.  0.
         23    2    4    4    0    0 -0.45718463220E+03  0.65952685377E+03  0.61543252620E+03  0.10154736050E+04  0.91847642369E+02 0.  0.
          4    1    3    3  502    0  0.34005636229E+03 -0.27890708812E+03  0.21131207755E+03  0.48793471639E+03  0.00000000000E+00 0. -1.
         -3    1    3    3    0  502  0.17847194771E+03 -0.14518768621E+03  0.17829913345E+03  0.29107092149E+03  0.00000000000E+00 0.  1.
         13    1    5    5    0    0 -0.15981668789E+02 -0.23808573749E+01 -0.14576453733E+02  0.21761324007E+02  0.00000000000E+00 0. -1.
        -13    1    5    5    0    0 -0.45362009017E+02 -0.23305122206E+03  0.17161556195E+01  0.23743110402E+03  0.00000000000E+00 0.  1.
          1    1    6    6  503    0 -0.61322854639E+02  0.13880850109E+03  0.89708682941E+02  0.17628369258E+03  0.00000000000E+00 0. -1.
         -1    1    6    6    0  503 -0.39586177756E+03  0.52071835268E+03  0.52572384326E+03  0.83918991243E+03  0.00000000000E+00 0.  1.
<mgrwt>
<rscale>  0 0.17980933E+04</rscale>
<asrwt>0</asrwt>
<pdfrwt beam="1">  1        2 0.81652941E-01 0.17980933E+04</pdfrwt>
<pdfrwt beam="2">  1       -1 0.23429655E+00 0.17980933E+04</pdfrwt>
<totfact> 0.54764170E+00</totfact>
</mgrwt>
</event>
<event>
12    7  0.1544987E-007  0.1203674E+04  0.7818608E-02  0.9109647E-01
         -1   -1    0    0    0  501 -0.00000000000E+00  0.00000000000E+00  0.18237537243E+04  0.18237537243E+04  0.00000000000E+00 0.  1.
          2   -1    0    0  501    0  0.00000000000E+00 -0.00000000000E+00 -0.19860548947E+03  0.19860548947E+03  0.00000000000E+00 0. -1.
         24    2    1    2    0    0 -0.25048315918E+03 -0.16764453032E+02  0.29305677078E+03  0.39411076698E+03  0.80113455992E+02 0.  0.
        254    2    1    2    0    0  0.25048315918E+03  0.16764453032E+02  0.13320914641E+04  0.16282484468E+04  0.90205458592E+03 0.  0.
         23    2    4    4    0    0 -0.31638784418E+03  0.10155230048E+03  0.37735044933E+03  0.51101258879E+03  0.91248926606E+02 0.  0.
         23    2    4    4    0    0  0.56687100337E+03 -0.84787847444E+02  0.95474101477E+03  0.11172358581E+04  0.90298636206E+02 0.  0.
          4    1    3    3  502    0 -0.21088030048E+03 -0.10049021148E+02  0.19202132367E+03  0.28538337846E+03  0.00000000000E+00 0. -1.
         -3    1    3    3    0  502 -0.39602858706E+02 -0.67154318837E+01  0.10103544710E+03  0.10872738852E+03  0.00000000000E+00 0.  1.
         13    1    5    5    0    0 -0.30584557403E+03  0.92258975726E+02  0.32076008443E+03  0.45270328640E+03  0.00000000000E+00 0.  1.
        -13    1    5    5    0    0 -0.10542270157E+02  0.92933247496E+01  0.56590364899E+02  0.58309302383E+02  0.00000000000E+00 0. -1.
          1    1    6    6  503    0  0.31088535315E+03 -0.84060542233E+02  0.48312237045E+03  0.58062302951E+03  0.00000000000E+00 0. -1.
         -1    1    6    6    0  503  0.25598565022E+03 -0.72730521032E+00  0.47161864432E+03  0.53661282854E+03  0.00000000000E+00 0.  1.
<mgrwt>
<rscale>  0 0.12036735E+04</rscale>
<asrwt>0</asrwt>
<pdfrwt beam="1">  1        2 0.30554692E-01 0.12036735E+04</pdfrwt>
<pdfrwt beam="2">  1       -1 0.28057748E+00 0.12036735E+04</pdfrwt>
<totfact> 0.87529668E+00</totfact>
</mgrwt>
</event>
<event>
12    7  0.1544987E-007  0.1396050E+04  0.7818608E-02  0.8956683E-01
         -3   -1    0    0    0  501 -0.00000000000E+00  0.00000000000E+00  0.42845649974E+03  0.42845649974E+03  0.00000000000E+00 0.  1.
          2   -1    0    0  501    0  0.00000000000E+00 -0.00000000000E+00 -0.11371955422E+04  0.11371955422E+04  0.00000000000E+00 0. -1.
         24    2    1    2    0    0  0.97808206446E+02 -0.39206450879E+03 -0.20739538675E+03  0.46129754683E+03  0.80632226635E+02 0.  0.
        254    2    1    2    0    0 -0.97808206446E+02  0.39206450879E+03 -0.50134365567E+03  0.11043544951E+04  0.89720252195E+03 0.  0.
         23    2    4    4    0    0 -0.31549668330E+03 -0.17231562253E+03 -0.20204550203E+03  0.42322281761E+03  0.95206814413E+02 0.  0.
         23    2    4    4    0    0  0.21768847685E+03  0.56438013132E+03 -0.29929815364E+03  0.68113167747E+03  0.91911760385E+02 0.  0.
          4    1    3    3  502    0  0.27892558765E+02 -0.70808500908E+02 -0.73821512648E+01  0.76461328739E+02  0.00000000000E+00 0. -1.
         -3    1    3    3    0  502  0.69915647681E+02 -0.32125600788E+03 -0.20001323548E+03  0.38483621809E+03  0.00000000000E+00 0.  1.
         13    1    5    5    0    0 -0.13994780924E+03 -0.38898831881E+02 -0.43437153570E+02  0.15160901933E+03  0.00000000000E+00 0. -1.
        -13    1    5    5    0    0 -0.17554887406E+03 -0.13341679065E+03 -0.15860834846E+03  0.27161379827E+03  0.00000000000E+00 0.  1.
          3    1    6    6  503    0  0.20921826508E+03  0.48936401425E+03 -0.28693565579E+03  0.60463335291E+03  0.00000000000E+00 0. -1.
         -3    1    6    6    0  503  0.84702117695E+01  0.75016117063E+02 -0.12362497853E+02  0.76498324555E+02  0.00000000000E+00 0.  1.
<mgrwt>
<rscale>  0 0.13960499E+04</rscale>
<asrwt>0</asrwt>
<pdfrwt beam="1">  1        2 0.17495316E+00 0.13960499E+04</pdfrwt>
<pdfrwt beam="2">  1       -3 0.65916385E-01 0.13960499E+04</pdfrwt>
<totfact> 0.28480656E+01</totfact>
</mgrwt>
</event>
<event>
12    7  0.1544987E-007  0.2540372E+04  0.7818608E-02  0.8388742E-01
          2   -1    0    0  501    0  0.00000000000E+00  0.00000000000E+00  0.12202578045E+04  0.12202578045E+04  0.00000000000E+00 0. -1.
         -1   -1    0    0    0  501 -0.00000000000E+00 -0.00000000000E+00 -0.13221570633E+04  0.13221570633E+04  0.00000000000E+00 0.  1.
         24    2    1    2    0    0  0.67373956590E+03  0.18608482613E+03 -0.90690145006E+03  0.11477775377E+04  0.79815228212E+02 0.  0.
        254    2    1    2    0    0 -0.67373956590E+03 -0.18608482613E+03  0.80500219120E+03  0.13946373301E+04  0.89912857231E+03 0.  0.
         23    2    4    4    0    0 -0.64550830681E+03  0.12047548687E+03  0.84221776045E+03  0.10718289322E+04  0.91055953851E+02 0.  0.
         23    2    4    4    0    0 -0.28231259093E+02 -0.30656031300E+03 -0.37215569250E+02  0.32280839794E+03  0.89688537120E+02 0.  0.
          4    1    3    3  502    0  0.17684804296E+03  0.57424888545E+02 -0.29977257256E+03  0.35275550086E+03  0.00000000000E+00 0. -1.
         -3    1    3    3    0  502  0.49689152294E+03  0.12865993759E+03 -0.60712887749E+03  0.79502203680E+03  0.00000000000E+00 0.  1.
         13    1    5    5    0    0 -0.33987612968E+02  0.15914703290E+02  0.22322460061E+02  0.43666094847E+02  0.00000000000E+00 0. -1.
        -13    1    5    5    0    0 -0.61152069384E+03  0.10456078358E+03  0.81989530039E+03  0.10281628373E+04  0.00000000000E+00 0.  1.
          3    1    6    6  503    0 -0.14910121415E+01 -0.56059711694E+02  0.27855268183E+02  0.62616534222E+02  0.00000000000E+00 0. -1.
         -3    1    6    6    0  503 -0.26740246951E+02 -0.25050060131E+03 -0.65070837434E+02  0.26019186372E+03  0.00000000000E+00 0.  1.
<mgrwt>
<rscale>  0 0.25403720E+04</rscale>
<asrwt>0</asrwt>
<pdfrwt beam="1">  1        2 0.18773197E+00 0.25403720E+04</pdfrwt>
<pdfrwt beam="2">  1       -1 0.20340878E+00 0.25403720E+04</pdfrwt>
<totfact> 0.26607955E+00</totfact>
</mgrwt>
</event>
<event>
12    7  0.1544987E-007  0.1636743E+04  0.7818608E-02  0.8798288E-01
          2   -1    0    0  501    0  0.00000000000E+00  0.00000000000E+00  0.35018560991E+03  0.35018560991E+03  0.00000000000E+00 0. -1.
         -1   -1    0    0    0  501 -0.00000000000E+00 -0.00000000000E+00 -0.19125045882E+04  0.19125045882E+04  0.00000000000E+00 0.  1.
         24    2    1    2    0    0  0.62890095796E+02 -0.50008879858E+03 -0.80375224700E+03  0.95195045320E+03  0.78409311766E+02 0.  0.
        254    2    1    2    0    0 -0.62890095796E+02  0.50008879858E+03 -0.75856673129E+03  0.13107397449E+04  0.94264055847E+03 0.  0.
         23    2    4    4    0    0 -0.15752776939E+03  0.41249150881E+03  0.79520049387E+02  0.45800759768E+03  0.92104713862E+02 0.  0.
         23    2    4    4    0    0  0.94637673592E+02  0.87597289777E+02 -0.83808678068E+03  0.85273214724E+03  0.90183637894E+02 0.  0.
          2    1    3    3  502    0 -0.41831574273E+01 -0.32204294507E+02 -0.91846850461E+02  0.97418988551E+02  0.00000000000E+00 0. -1.
         -1    1    3    3    0  502  0.67073253224E+02 -0.46788450408E+03 -0.71190539654E+03  0.85453146465E+03  0.00000000000E+00 0.  1.
         13    1    5    5    0    0  0.55689229760E+01  0.10480664971E+02 -0.94161430248E+01  0.15149950192E+02  0.00000000000E+00 0.  1.
        -13    1    5    5    0    0 -0.16309669236E+03  0.40201084384E+03  0.88936192412E+02  0.44285764749E+03  0.00000000000E+00 0. -1.
          2    1    6    6  503    0  0.11167790354E+03  0.82263216444E+02 -0.76673191304E+03  0.77917714122E+03  0.00000000000E+00 0. -1.
         -2    1    6    6    0  503 -0.17040229949E+02  0.53340733331E+01 -0.71354867636E+02  0.73555006019E+02  0.00000000000E+00 0.  1.
<mgrwt>
<rscale>  0 0.16367426E+04</rscale>
<asrwt>0</asrwt>
<pdfrwt beam="1">  1        2 0.53874710E-01 0.16367426E+04</pdfrwt>
<pdfrwt beam="2">  1       -1 0.29423147E+00 0.16367426E+04</pdfrwt>
<totfact> 0.36429283E+00</totfact>
</mgrwt>
</event>
<event>
12    7  0.1544987E-007  0.2225487E+04  0.7818608E-02  0.8507894E-01
         -1   -1    0    0    0  501 -0.00000000000E+00  0.00000000000E+00  0.79015875159E+03  0.79015875159E+03  0.00000000000E+00 0.  1.
          2   -1    0    0  501    0  0.00000000000E+00 -0.00000000000E+00 -0.15670239088E+04  0.15670239088E+04  0.00000000000E+00 0. -1.
         24    2    1    2    0    0  0.54379212630E+03 -0.10282694379E+03 -0.11346019466E+04  0.12649225961E+04  0.80151979615E+02 0.  0.
        254    2    1    2    0    0 -0.54379212630E+03  0.10282694379E+03  0.35773678945E+03  0.10922600643E+04  0.87107587526E+03 0.  0.
         23    2    4    4    0    0 -0.22502072128E+03 -0.18147355092E+03 -0.21610062306E+03  0.37042213528E+03  0.83343292055E+02 0.  0.
         23    2    4    4    0    0 -0.31877140502E+03  0.28430049471E+03  0.57383741251E+03  0.72183792898E+03  0.96533101855E+02 0.  0.
          4    1    3    3  502    0  0.19482208081E+03 -0.75996605818E+02 -0.43493509761E+03  0.48259679485E+03  0.00000000000E+00 0. -1.
         -3    1    3    3    0  502  0.34897004550E+03 -0.26830337972E+02 -0.69966684904E+03  0.78232580127E+03  0.00000000000E+00 0.  1.
         13    1    5    5    0    0  0.50604540810E+01  0.10331119723E+01 -0.11188222586E+02  0.12322817880E+02  0.00000000000E+00 0.  1.
        -13    1    5    5    0    0 -0.23008117536E+03 -0.18250666290E+03 -0.20491240048E+03  0.35809931740E+03  0.00000000000E+00 0. -1.
          3    1    6    6  503    0 -0.31098978873E+03  0.27568276344E+03  0.57574721387E+03  0.71007076340E+03  0.00000000000E+00 0. -1.
         -3    1    6    6    0  503 -0.77816162922E+01  0.86177312777E+01 -0.19098013602E+01  0.11767165577E+02  0.00000000000E+00 0.  1.
<mgrwt>
<rscale>  0 0.22254866E+04</rscale>
<asrwt>0</asrwt>
<pdfrwt beam="1">  1        2 0.24108060E+00 0.22254866E+04</pdfrwt>
<pdfrwt beam="2">  1       -1 0.12156289E+00 0.22254866E+04</pdfrwt>
<totfact> 0.72504678E+00</totfact>
</mgrwt>
</event>
<event>
12    7  0.1544987E-007  0.3046246E+04  0.7818608E-02  0.8230647E-01
          2   -1    0    0  501    0  0.00000000000E+00  0.00000000000E+00  0.16167159132E+04  0.16167159132E+04  0.00000000000E+00 0. -1.
         -1   -1    0    0    0  501 -0.00000000000E+00 -0.00000000000E+00 -0.14349486562E+04  0.14349486562E+04  0.00000000000E+00 0.  1.
         24    2    1    2    0    0  0.25118303073E+03  0.12517358054E+04  0.62992858499E+03  0.14259196526E+04  0.80631209268E+02 0.  0.
        254    2    1    2    0    0 -0.25118303073E+03 -0.12517358054E+04 -0.44816132793E+03  0.16257449168E+04  0.90125607753E+03 0.  0.
         23    2    4    4    0    0 -0.85168803404E+02 -0.16945684058E+02 -0.34975008684E+03  0.37295722507E+03  0.96078547059E+02 0.  0.
         23    2    4    4    0    0 -0.16601422732E+03 -0.12347901214E+04 -0.98411241089E+02  0.12527876918E+04  0.86745955432E+02 0.  0.
          4    1    3    3  502    0  0.20133967660E+03  0.10274014144E+04  0.48159453895E+03  0.11523995104E+04  0.00000000000E+00 0. -1.
         -3    1    3    3    0  502  0.49843354126E+02  0.22433439101E+03  0.14833404603E+03  0.27352014213E+03  0.00000000000E+00 0.  1.
         13    1    5    5    0    0 -0.10397082181E+03 -0.71638425873E+00 -0.26587867066E+03  0.28548539806E+03  0.00000000000E+00 0. -1.
        -13    1    5    5    0    0  0.18802018405E+02 -0.16229299799E+02 -0.83871416183E+02  0.87471827010E+02  0.00000000000E+00 0.  1.
          3    1    6    6  503    0 -0.30746761444E+02 -0.36625954653E+03  0.60778766292E+01  0.36759809486E+03  0.00000000000E+00 0. -1.
         -3    1    6    6    0  503 -0.13526746588E+03 -0.86853057485E+03 -0.10448911772E+03  0.88518959692E+03  0.00000000000E+00 0.  1.
<mgrwt>
<rscale>  0 0.30462464E+04</rscale>
<asrwt>0</asrwt>
<pdfrwt beam="1">  1        2 0.24872553E+00 0.30462464E+04</pdfrwt>
<pdfrwt beam="2">  1       -1 0.22076133E+00 0.30462464E+04</pdfrwt>
<totfact> 0.11524229E+00</totfact>
</mgrwt>
</event>
<event>
12    7  0.1544987E-007  0.2875861E+04  0.7818608E-02  0.8280096E-01
          2   -1    0    0  501    0  0.00000000000E+00  0.00000000000E+00  0.13079010166E+04  0.13079010166E+04  0.00000000000E+00 0. -1.
         -1   -1    0    0    0  501 -0.00000000000E+00 -0.00000000000E+00 -0.15808873726E+04  0.15808873726E+04  0.00000000000E+00 0.  1.
         24    2    1    2    0    0  0.73713297024E+03 -0.10469196123E+04  0.10609091983E+03  0.12880263643E+04  0.91383484840E+02 0.  0.
        254    2    1    2    0    0 -0.73713297024E+03  0.10469196123E+04 -0.37907727584E+03  0.16007620249E+04  0.88279883830E+03 0.  0.
         23    2    4    4    0    0 -0.89851944775E+03  0.95697561520E+03 -0.20463390330E+03  0.13318345855E+04  0.93641885137E+02 0.  0.
         23    2    4    4    0    0  0.16138647752E+03  0.89943997143E+02 -0.17444337255E+03  0.26892743945E+03  0.88067926708E+02 0.  0.
          4    1    3    3  502    0  0.33902272270E+03 -0.44630043530E+03  0.87133764932E+02  0.56719730081E+03  0.00000000000E+00 0. -1.
         -3    1    3    3    0  502  0.39811024754E+03 -0.60061917705E+03  0.18957154896E+02  0.72082906348E+03  0.00000000000E+00 0.  1.
         13    1    5    5    0    0 -0.29073117565E+03  0.29112026190E+03 -0.22241465519E+02  0.41203192373E+03  0.00000000000E+00 0. -1.
        -13    1    5    5    0    0 -0.60778827210E+03  0.66585535331E+03 -0.18239243778E+03  0.91980266177E+03  0.00000000000E+00 0.  1.
          2    1    6    6  503    0 -0.88595153357E+00  0.24457867354E+02 -0.42810663760E+01  0.24845516999E+02  0.00000000000E+00 0. -1.
         -2    1    6    6    0  503  0.16227242905E+03  0.65486129789E+02 -0.17016230617E+03  0.24408192245E+03  0.00000000000E+00 0.  1.
<mgrwt>
<rscale>  0 0.28758611E+04</rscale>
<asrwt>0</asrwt>
<pdfrwt beam="1">  1        2 0.20121554E+00 0.28758611E+04</pdfrwt>
<pdfrwt beam="2">  1       -1 0.24321344E+00 0.28758611E+04</pdfrwt>
<totfact> 0.12443636E+00</totfact>
</mgrwt>
</event>
<event>
12    7  0.1544987E-007  0.1457704E+04  0.7818608E-02  0.8913077E-01
          2   -1    0    0  501    0  0.00000000000E+00  0.00000000000E+00  0.10924980320E+04  0.10924980320E+04  0.00000000000E+00 0. -1.
         -1   -1    0    0    0  501 -0.00000000000E+00 -0.00000000000E+00 -0.48624844712E+03  0.48624844712E+03  0.00000000000E+00 0.  1.
         24    2    1    2    0    0 -0.19888208344E+03 -0.20514127444E+03  0.54499892378E+03  0.62059103575E+03  0.80451110287E+02 0.  0.
        254    2    1    2    0    0  0.19888208344E+03  0.20514127444E+03  0.61250661075E+02  0.95815544334E+03  0.91250927915E+03 0.  0.
         23    2    4    4    0    0  0.62490413020E+02  0.43426178404E+03  0.33943137916E+03  0.56211588787E+03  0.90951973309E+02 0.  0.
         23    2    4    4    0    0  0.13639167042E+03 -0.22912050960E+03 -0.27818071808E+03  0.39603955547E+03  0.91454479982E+02 0.  0.
          4    1    3    3  502    0 -0.15630502922E+03 -0.18279679680E+03  0.49952097069E+03  0.55440700865E+03  0.00000000000E+00 0. -1.
         -3    1    3    3    0  502 -0.42577054216E+02 -0.22344477638E+02  0.45477953092E+02  0.66184027107E+02  0.00000000000E+00 0.  1.
         13    1    5    5    0    0  0.57489447898E+02  0.42906405788E+03  0.31164227130E+03  0.53340595014E+03  0.00000000000E+00 0. -1.
        -13    1    5    5    0    0  0.50009651222E+01  0.51977261614E+01  0.27789107855E+02  0.28709937735E+02  0.00000000000E+00 0.  1.
          3    1    6    6  503    0  0.78994500467E+02 -0.20037514852E+03 -0.23445074296E+03  0.31836689860E+03  0.00000000000E+00 0. -1.
         -3    1    6    6    0  503  0.57397169950E+02 -0.28745361079E+02 -0.43729975121E+02  0.77672656874E+02  0.00000000000E+00 0.  1.
<mgrwt>
<rscale>  0 0.14577043E+04</rscale>
<asrwt>0</asrwt>
<pdfrwt beam="1">  1        2 0.16807662E+00 0.14577043E+04</pdfrwt>
<pdfrwt beam="2">  1       -1 0.74807453E-01 0.14577043E+04</pdfrwt>
<totfact> 0.43764928E+01</totfact>
</mgrwt>
</event>
<event>
12    7  0.1544987E-007  0.1772807E+04  0.7818608E-02  0.8720896E-01
         -1   -1    0    0    0  501 -0.00000000000E+00  0.00000000000E+00  0.10672214899E+04  0.10672214899E+04  0.00000000000E+00 0.  1.
          2   -1    0    0  501    0  0.00000000000E+00 -0.00000000000E+00 -0.73622092124E+03  0.73622092124E+03  0.00000000000E+00 0. -1.
         24    2    1    2    0    0  0.10183862262E+03  0.56393990547E+03  0.44557199448E+03  0.73022938318E+03  0.79380273155E+02 0.  0.
        254    2    1    2    0    0 -0.10183862262E+03 -0.56393990547E+03 -0.11457142578E+03  0.10732130280E+04  0.90014458272E+03 0.  0.
         23    2    4    4    0    0 -0.40589605599E+03  0.10934146796E+01 -0.80425877882E+02  0.42407873055E+03  0.92852808485E+02 0.  0.
         23    2    4    4    0    0  0.30405743337E+03 -0.56503332014E+03 -0.34145547903E+02  0.64913429743E+03  0.92172891903E+02 0.  0.
          4    1    3    3  502    0  0.56696726744E+02  0.21600932517E+03  0.21769080879E+03  0.31187150498E+03  0.00000000000E+00 0. -1.
         -3    1    3    3    0  502  0.45141895880E+02  0.34793058029E+03  0.22788118569E+03  0.41835787821E+03  0.00000000000E+00 0.  1.
         13    1    5    5    0    0 -0.28159940857E+03 -0.18582647972E+02 -0.94116287513E+02  0.29749187768E+03  0.00000000000E+00 0. -1.
        -13    1    5    5    0    0 -0.12429664742E+03  0.19676062652E+02  0.13690409631E+02  0.12658685287E+03  0.00000000000E+00 0.  1.
          2    1    6    6  503    0  0.18848352435E+03 -0.33459172451E+03  0.24287127492E+02  0.38479543347E+03  0.00000000000E+00 0. -1.
         -2    1    6    6    0  503  0.11557390902E+03 -0.23044159564E+03 -0.58432675395E+02  0.26433886396E+03  0.00000000000E+00 0.  1.
<mgrwt>
<rscale>  0 0.17728066E+04</rscale>
<asrwt>0</asrwt>
<pdfrwt beam="1">  1        2 0.11326476E+00 0.17728066E+04</pdfrwt>
<pdfrwt beam="2">  1       -1 0.16418792E+00 0.17728066E+04</pdfrwt>
<totfact> 0.11275949E+01</totfact>
</mgrwt>
</event>
<event>
12    7  0.1544987E-007  0.1303422E+04  0.7818608E-02  0.9026856E-01
          2   -1    0    0  501    0  0.00000000000E+00  0.00000000000E+00  0.51405645946E+03  0.51405645946E+03  0.00000000000E+00 0. -1.
         -1   -1    0    0    0  501 -0.00000000000E+00 -0.00000000000E+00 -0.82622623001E+03  0.82622623001E+03  0.00000000000E+00 0.  1.
         24    2    1    2    0    0  0.38054435987E+02 -0.32225207674E+03 -0.16479001549E+03  0.37254543060E+03  0.79622908714E+02 0.  0.
        254    2    1    2    0    0 -0.38054435987E+02  0.32225207674E+03 -0.14737975506E+03  0.96773725887E+03  0.89972221765E+03 0.  0.
         23    2    4    4    0    0  0.31325675180E+03  0.55243511179E+02 -0.34243967193E+03  0.47631587669E+03  0.91816378740E+02 0.  0.
         23    2    4    4    0    0 -0.35131118779E+03  0.26700856557E+03  0.19505991686E+03  0.49142138217E+03  0.93453084170E+02 0.  0.
          2    1    3    3  502    0  0.39035898521E+02 -0.15442162829E+03 -0.11825971127E+03  0.19838145066E+03  0.00000000000E+00 0. -1.
         -1    1    3    3    0  502 -0.98146253402E+00 -0.16783044846E+03 -0.46530304216E+02  0.17416397994E+03  0.00000000000E+00 0.  1.
         13    1    5    5    0    0  0.18048356375E+03  0.30964170902E+01 -0.13889170677E+03  0.22776042411E+03  0.00000000000E+00 0. -1.
        -13    1    5    5    0    0  0.13277318805E+03  0.52147094089E+02 -0.20354796516E+03  0.24855545258E+03  0.00000000000E+00 0.  1.
          3    1    6    6  503    0  0.42721640587E+01  0.12525533509E+02  0.18153050867E+01  0.13357982931E+02  0.00000000000E+00 0. -1.
         -3    1    6    6    0  503 -0.35558335185E+03  0.25448303206E+03  0.19324461178E+03  0.47806339924E+03  0.00000000000E+00 0.  1.
<mgrwt>
<rscale>  0 0.13034215E+04</rscale>
<asrwt>0</asrwt>
<pdfrwt beam="1">  1        2 0.79085610E-01 0.13034215E+04</pdfrwt>
<pdfrwt beam="2">  1       -1 0.12711173E+00 0.13034215E+04</pdfrwt>
<totfact> 0.35861663E+01</totfact>
</mgrwt>
</event>
<event>
12    7  0.1544987E-007  0.1991870E+04  0.7818608E-02  0.8610431E-01
          2   -1    0    0  501    0  0.00000000000E+00  0.00000000000E+00  0.10169316937E+04  0.10169316937E+04  0.00000000000E+00 0. -1.
         -1   -1    0    0    0  501 -0.00000000000E+00 -0.00000000000E+00 -0.97537219002E+03  0.97537219002E+03  0.00000000000E+00 0.  1.
         24    2    1    2    0    0 -0.45419157480E+03  0.13671659362E+03  0.64837204821E+03  0.80740171418E+03  0.80807187557E+02 0.  0.
        254    2    1    2    0    0  0.45419157480E+03 -0.13671659362E+03 -0.60681254455E+03  0.11849021695E+04  0.90043893382E+03 0.  0.
         23    2    4    4    0    0 -0.29861208284E+02  0.30132853379E+03 -0.36597692143E+03  0.48378937631E+03  0.91774051731E+02 0.  0.
         23    2    4    4    0    0  0.48405278309E+03 -0.43804512742E+03 -0.24083562313E+03  0.70111279322E+03  0.85829604375E+02 0.  0.
          4    1    3    3  502    0 -0.17197959434E+03  0.91318999727E+02  0.24315539341E+03  0.31151354051E+03  0.00000000000E+00 0. -1.
         -3    1    3    3    0  502 -0.28221198046E+03  0.45397593893E+02  0.40521665481E+03  0.49588817366E+03  0.00000000000E+00 0.  1.
         13    1    5    5    0    0 -0.46494826863E+02  0.69962884505E+02 -0.86262198346E+02  0.12040656542E+03  0.00000000000E+00 0.  1.
        -13    1    5    5    0    0  0.16633618579E+02  0.23136564929E+03 -0.27971472308E+03  0.36338281088E+03  0.00000000000E+00 0. -1.
          4    1    6    6  503    0  0.43790934446E+03 -0.38671208749E+03 -0.18648728330E+03  0.61326041728E+03  0.00000000000E+00 0. -1.
         -4    1    6    6    0  503  0.46143438632E+02 -0.51333039929E+02 -0.54348339823E+02  0.87852375942E+02  0.00000000000E+00 0.  1.
<mgrwt>
<rscale>  0 0.19918704E+04</rscale>
<asrwt>0</asrwt>
<pdfrwt beam="1">  1        2 0.15645103E+00 0.19918704E+04</pdfrwt>
<pdfrwt beam="2">  1       -1 0.15005726E+00 0.19918704E+04</pdfrwt>
<totfact> 0.90805470E+00</totfact>
</mgrwt>
</event>
<event>
12    7  0.1544987E-007  0.1690349E+04  0.7818608E-02  0.8766888E-01
          2   -1    0    0  501    0  0.00000000000E+00  0.00000000000E+00  0.31155448796E+04  0.31155448796E+04  0.00000000000E+00 0. -1.
         -1   -1    0    0    0  501 -0.00000000000E+00 -0.00000000000E+00 -0.22927621878E+03  0.22927621878E+03  0.00000000000E+00 0.  1.
         24    2    1    2    0    0 -0.59744863126E+03 -0.50411554649E+02  0.10083163023E+04  0.11758212574E+04  0.79797693430E+02 0.  0.
        254    2    1    2    0    0  0.59744863126E+03  0.50411554649E+02  0.18779523584E+04  0.21689998410E+04  0.90463752838E+03 0.  0.
         23    2    4    4    0    0  0.14161131486E+03 -0.39210359341E+03  0.94072954423E+03  0.10330513439E+04  0.91782413213E+02 0.  0.
         23    2    4    4    0    0  0.45583731640E+03  0.44251514806E+03  0.93722281420E+03  0.11359484970E+04  0.91570023213E+02 0.  0.
          2    1    3    3  502    0 -0.41315793744E+03 -0.20976998345E+02  0.75865044870E+03  0.86411227225E+03  0.00000000000E+00 0. -1.
         -1    1    3    3    0  502 -0.18429069381E+03 -0.29434556304E+02  0.24966585363E+03  0.31170898511E+03  0.00000000000E+00 0.  1.
         13    1    5    5    0    0  0.42710217049E+02 -0.17883965384E+03  0.31662401684E+03  0.36614007219E+03  0.00000000000E+00 0. -1.
        -13    1    5    5    0    0  0.98901097809E+02 -0.21326393957E+03  0.62410552739E+03  0.66691127176E+03  0.00000000000E+00 0.  1.
          4    1    6    6  503    0  0.12628643876E+03  0.74193352635E+02  0.24394989701E+03  0.28454256350E+03  0.00000000000E+00 0. -1.
         -4    1    6    6    0  503  0.32955087764E+03  0.36832179543E+03  0.69327291719E+03  0.85140593353E+03  0.00000000000E+00 0.  1.
<mgrwt>
<rscale>  0 0.16903495E+04</rscale>
<asrwt>0</asrwt>
<pdfrwt beam="1">  1        2 0.47931457E+00 0.16903495E+04</pdfrwt>
<pdfrwt beam="2">  1       -1 0.35273267E-01 0.16903495E+04</pdfrwt>
<totfact> 0.12275335E+01</totfact>
</mgrwt>
</event>
<event>
12    7  0.1544987E-007  0.2103317E+04  0.7818608E-02  0.8559784E-01
         -1   -1    0    0    0  501 -0.00000000000E+00  0.00000000000E+00  0.88270698272E+03  0.88270698272E+03  0.00000000000E+00 0.  1.
          2   -1    0    0  501    0  0.00000000000E+00 -0.00000000000E+00 -0.12529477816E+04  0.12529477816E+04  0.00000000000E+00 0. -1.
         24    2    1    2    0    0 -0.17239374967E+03 -0.42490284746E+03  0.58293544802E+03  0.74595033955E+03  0.79788080626E+02 0.  0.
        254    2    1    2    0    0  0.17239374967E+03  0.42490284746E+03 -0.95317624686E+03  0.13897044247E+04  0.90137195199E+03 0.  0.
         23    2    4    4    0    0  0.14000777686E+03 -0.11447610251E+03 -0.79240618380E+03  0.81831931855E+03  0.95036789435E+02 0.  0.
         23    2    4    4    0    0  0.32385972806E+02  0.53937894996E+03 -0.16077006305E+03  0.57138510618E+03  0.93034528495E+02 0.  0.
          2    1    3    3  502    0 -0.31866771591E+02 -0.32258732625E+02  0.34554455461E+02  0.57009888216E+02  0.00000000000E+00 0. -1.
         -3    1    3    3    0  502 -0.14052697808E+03 -0.39264411483E+03  0.54838099256E+03  0.68894045133E+03  0.00000000000E+00 0.  1.
         13    1    5    5    0    0  0.10138046806E+03 -0.35208911751E+02 -0.55001373521E+03  0.56038627365E+03  0.00000000000E+00 0.  1.
        -13    1    5    5    0    0  0.38627308807E+02 -0.79267190757E+02 -0.24239244859E+03  0.25793304490E+03  0.00000000000E+00 0. -1.
          4    1    6    6  503    0  0.55001163603E+02  0.22923091272E+03 -0.90939587712E+02  0.25266964194E+03  0.00000000000E+00 0. -1.
         -4    1    6    6    0  503 -0.22615190797E+02  0.31014803724E+03 -0.69830475342E+02  0.31871546424E+03  0.00000000000E+00 0.  1.
<mgrwt>
<rscale>  0 0.21033171E+04</rscale>
<asrwt>0</asrwt>
<pdfrwt beam="1">  1        2 0.19276120E+00 0.21033171E+04</pdfrwt>
<pdfrwt beam="2">  1       -1 0.13580107E+00 0.21033171E+04</pdfrwt>
<totfact> 0.83946472E+00</totfact>
</mgrwt>
</event>
<event>
12    7  0.1544987E-007  0.1773676E+04  0.7818608E-02  0.8720425E-01
         -1   -1    0    0    0  501 -0.00000000000E+00  0.00000000000E+00  0.58602909120E+03  0.58602909120E+03  0.00000000000E+00 0.  1.
          2   -1    0    0  501    0  0.00000000000E+00 -0.00000000000E+00 -0.13420516467E+04  0.13420516467E+04  0.00000000000E+00 0. -1.
         24    2    1    2    0    0  0.43463781811E+03  0.35995929318E+03 -0.63883932167E+03  0.85617628008E+03  0.80258444856E+02 0.  0.
        254    2    1    2    0    0 -0.43463781811E+03 -0.35995929318E+03 -0.11718323379E+03  0.10719044578E+04  0.90375136551E+03 0.  0.
         23    2    4    4    0    0  0.26731249569E+03 -0.44388218847E+02 -0.72883239062E+02  0.29548760644E+03  0.92599539410E+02 0.  0.
         23    2    4    4    0    0 -0.70195031380E+03 -0.31557107434E+03 -0.44299994726E+02  0.77641685135E+03  0.92419107966E+02 0.  0.
          2    1    3    3  502    0  0.34198329448E+03  0.31938310682E+03 -0.50580054448E+03  0.68905176397E+03  0.00000000000E+00 0. -1.
         -1    1    3    3    0  502  0.92654523633E+02  0.40576186360E+02 -0.13303877719E+03  0.16712451611E+03  0.00000000000E+00 0.  1.
         13    1    5    5    0    0  0.19799357723E+03  0.19173048217E+01 -0.25604995041E+02  0.19965156762E+03  0.00000000000E+00 0.  1.
        -13    1    5    5    0    0  0.69318918455E+02 -0.46305523669E+02 -0.47278244021E+02  0.95836038815E+02  0.00000000000E+00 0. -1.
          1    1    6    6  503    0 -0.48898811846E+03 -0.17220204096E+03 -0.30772558645E+02  0.51933599266E+03  0.00000000000E+00 0. -1.
         -1    1    6    6    0  503 -0.21296219534E+03 -0.14336903338E+03 -0.13527436081E+02  0.25708085869E+03  0.00000000000E+00 0.  1.
<mgrwt>
<rscale>  0 0.17736756E+04</rscale>
<asrwt>0</asrwt>
<pdfrwt beam="1">  1        2 0.20646948E+00 0.17736756E+04</pdfrwt>
<pdfrwt beam="2">  1       -1 0.90158323E-01 0.17736756E+04</pdfrwt>
<totfact> 0.20277279E+01</totfact>
</mgrwt>
</event>
<event>
12    7  0.1544987E-007  0.1538368E+04  0.7818608E-02  0.8859332E-01
          2   -1    0    0  501    0  0.00000000000E+00  0.00000000000E+00  0.93354618077E+03  0.93354618077E+03  0.00000000000E+00 0. -1.
         -1   -1    0    0    0  501 -0.00000000000E+00 -0.00000000000E+00 -0.63376004293E+03  0.63376004293E+03  0.00000000000E+00 0.  1.
         24    2    1    2    0    0 -0.28548063573E+03  0.18736877918E+03  0.47500092465E+03  0.59035030197E+03  0.79254954586E+02 0.  0.
        254    2    1    2    0    0  0.28548063573E+03 -0.18736877918E+03 -0.17521478681E+03  0.97695592174E+03  0.89840770183E+03 0.  0.
         23    2    4    4    0    0 -0.81013280602E+02  0.15481435244E+03 -0.37889467472E+03  0.42721168586E+03  0.91749739229E+02 0.  0.
         23    2    4    4    0    0  0.36649391633E+03 -0.34218313161E+03  0.20367988791E+03  0.54974423587E+03  0.96571951753E+02 0.  0.
          4    1    3    3  502    0 -0.13282854617E+03  0.88185924516E+02  0.15600006994E+03  0.22306098221E+03  0.00000000000E+00 0. -1.
         -3    1    3    3    0  502 -0.15265208956E+03  0.99182854662E+02  0.31900085471E+03  0.36728931976E+03  0.00000000000E+00 0.  1.
         13    1    5    5    0    0 -0.27992663977E+02  0.10282626167E+03 -0.30228776544E+03  0.32052257714E+03  0.00000000000E+00 0. -1.
        -13    1    5    5    0    0 -0.53020616625E+02  0.51988090764E+02 -0.76606909287E+02  0.10668910872E+03  0.00000000000E+00 0.  1.
          4    1    6    6  503    0  0.27367244475E+03 -0.29128551860E+03  0.19149065550E+03  0.44318453437E+03  0.00000000000E+00 0. -1.
         -4    1    6    6    0  503  0.92821471585E+02 -0.50897613015E+02  0.12189232412E+02  0.10655970150E+03  0.00000000000E+00 0.  1.
<mgrwt>
<rscale>  0 0.15383683E+04</rscale>
<asrwt>0</asrwt>
<pdfrwt beam="1">  1        2 0.14362249E+00 0.15383683E+04</pdfrwt>
<pdfrwt beam="2">  1       -1 0.97501545E-01 0.15383683E+04</pdfrwt>
<totfact> 0.30913057E+01</totfact>
</mgrwt>
</event>
<event>
12    7  0.1544987E-007  0.1539841E+04  0.7818608E-02  0.8858383E-01
         -1   -1    0    0    0  501 -0.00000000000E+00  0.00000000000E+00  0.90782729167E+03  0.90782729167E+03  0.00000000000E+00 0.  1.
          2   -1    0    0  501    0  0.00000000000E+00 -0.00000000000E+00 -0.65296275053E+03  0.65296275053E+03  0.00000000000E+00 0. -1.
         24    2    1    2    0    0 -0.16402920027E+03  0.28643726810E+03 -0.29828995127E+03  0.45601395705E+03  0.10009968481E+03 0.  0.
        254    2    1    2    0    0  0.16402920027E+03 -0.28643726810E+03  0.55315449241E+03  0.11047760852E+04  0.89755134603E+03 0.  0.
         23    2    4    4    0    0  0.18188269169E+01 -0.48992832343E+02 -0.23723251195E+03  0.25896039842E+03  0.91529325761E+02 0.  0.
         23    2    4    4    0    0  0.16221037335E+03 -0.23744443575E+03  0.79038700436E+03  0.84581568673E+03  0.89445480448E+02 0.  0.
          4    1    3    3  502    0 -0.11869763551E+03  0.22027774685E+03 -0.27648785101E+03  0.37290340061E+03  0.00000000000E+00 0. -1.
         -3    1    3    3    0  502 -0.45331564758E+02  0.66159521249E+02 -0.21802100259E+02  0.83110556435E+02  0.00000000000E+00 0.  1.
         13    1    5    5    0    0  0.26959247552E+02 -0.64969864908E+02 -0.13173931321E+03  0.14934232829E+03  0.00000000000E+00 0. -1.
        -13    1    5    5    0    0 -0.25140420635E+02  0.15977032565E+02 -0.10549319874E+03  0.10961807014E+03  0.00000000000E+00 0.  1.
          4    1    6    6  503    0  0.53322563417E+02 -0.10446010971E+03  0.44260743583E+03  0.45788268425E+03  0.00000000000E+00 0. -1.
         -4    1    6    6    0  503  0.10888780993E+03 -0.13298432604E+03  0.34777956853E+03  0.38793300248E+03  0.00000000000E+00 0.  1.
<mgrwt>
<rscale>  0 0.15398408E+04</rscale>
<asrwt>0</asrwt>
<pdfrwt beam="1">  1        2 0.10045581E+00 0.15398408E+04</pdfrwt>
<pdfrwt beam="2">  1       -1 0.13966574E+00 0.15398408E+04</pdfrwt>
<totfact> 0.20755476E+01</totfact>
</mgrwt>
</event>
<event>
12    7  0.1544987E-007  0.2034685E+04  0.7818608E-02  0.8590574E-01
          2   -1    0    0  501    0  0.00000000000E+00  0.00000000000E+00  0.74843169160E+03  0.74843169160E+03  0.00000000000E+00 0. -1.
         -1   -1    0    0    0  501 -0.00000000000E+00 -0.00000000000E+00 -0.13828724389E+04  0.13828724389E+04  0.00000000000E+00 0.  1.
         24    2    1    2    0    0 -0.11384104783E+03  0.49735222165E+02  0.59019950528E+03  0.60859256378E+03  0.81339265768E+02 0.  0.
        254    2    1    2    0    0  0.11384104783E+03 -0.49735222165E+02 -0.12246402526E+04  0.15227115668E+04  0.89636677243E+03 0.  0.
         23    2    4    4    0    0 -0.33439462917E+03 -0.22668375560E+03 -0.52672151568E+03  0.66917565034E+03  0.84588432149E+02 0.  0.
         23    2    4    4    0    0  0.44823567700E+03  0.17694853344E+03 -0.69791873693E+03  0.85353591642E+03  0.95953069954E+02 0.  0.
          2    1    3    3  502    0 -0.41486961420E+02  0.18563078605E+02  0.40210080514E+03  0.40466135638E+03  0.00000000000E+00 0. -1.
         -1    1    3    3    0  502 -0.72354086414E+02  0.31172143559E+02  0.18809870014E+03  0.20393120740E+03  0.00000000000E+00 0.  1.
         13    1    5    5    0    0 -0.16208355582E+03 -0.87102222684E+02 -0.17862399268E+03  0.25644571945E+03  0.00000000000E+00 0. -1.
        -13    1    5    5    0    0 -0.17231107335E+03 -0.13958153292E+03 -0.34809752301E+03  0.41272993089E+03  0.00000000000E+00 0.  1.
          4    1    6    6  503    0  0.17183474147E+03  0.10025491592E+03 -0.35029326684E+03  0.40284438601E+03  0.00000000000E+00 0. -1.
         -4    1    6    6    0  503  0.27640093553E+03  0.76693617517E+02 -0.34762547009E+03  0.45069153041E+03  0.00000000000E+00 0.  1.
<mgrwt>
<rscale>  0 0.20346848E+04</rscale>
<asrwt>0</asrwt>
<pdfrwt beam="1">  1        2 0.11514334E+00 0.20346848E+04</pdfrwt>
<pdfrwt beam="2">  1       -1 0.21274960E+00 0.20346848E+04</pdfrwt>
<totfact> 0.48961753E+00</totfact>
</mgrwt>
</event>
<event>
12    7  0.1544987E-007  0.1534234E+04  0.7818608E-02  0.8862001E-01
         -1   -1    0    0    0  501 -0.00000000000E+00  0.00000000000E+00  0.67169300018E+03  0.67169300018E+03  0.00000000000E+00 0.  1.
          2   -1    0    0  501    0  0.00000000000E+00 -0.00000000000E+00 -0.87609766083E+03  0.87609766083E+03  0.00000000000E+00 0. -1.
         24    2    1    2    0    0 -0.16201878586E+03 -0.15216392277E+03  0.37399526798E+03  0.44236456398E+03  0.80062479541E+02 0.  0.
        254    2    1    2    0    0  0.16201878586E+03  0.15216392277E+03 -0.57839992863E+03  0.11054260970E+04  0.91543237445E+03 0.  0.
         23    2    4    4    0    0  0.29738523747E+03 -0.12749064282E+03 -0.68510374045E+03  0.76325584421E+03  0.92198183697E+02 0.  0.
         23    2    4    4    0    0 -0.13536645161E+03  0.27965456559E+03  0.10670381182E+03  0.34217025282E+03  0.95728920293E+02 0.  0.
          4    1    3    3  502    0 -0.90304520488E+02 -0.33307360477E+02  0.17521883569E+03  0.19991479951E+03  0.00000000000E+00 0. -1.
         -3    1    3    3    0  502 -0.71714265368E+02 -0.11885656229E+03  0.19877643229E+03  0.24244976447E+03  0.00000000000E+00 0.  1.
         13    1    5    5    0    0  0.72006665316E+01  0.62998450360E+01 -0.30203594392E+01  0.10032956549E+02  0.00000000000E+00 0.  1.
        -13    1    5    5    0    0  0.29018457093E+03 -0.13379048786E+03 -0.68208338101E+03  0.75322288766E+03  0.00000000000E+00 0. -1.
          4    1    6    6  503    0 -0.99558114361E+02  0.25635000253E+03  0.11596437789E+03  0.29845414869E+03  0.00000000000E+00 0. -1.
         -4    1    6    6    0  503 -0.35808337250E+02  0.23304563058E+02 -0.92605660711E+01  0.43716104125E+02  0.00000000000E+00 0.  1.
<mgrwt>
<rscale>  0 0.15342342E+04</rscale>
<asrwt>0</asrwt>
<pdfrwt beam="1">  1        2 0.13478426E+00 0.15342342E+04</pdfrwt>
<pdfrwt beam="2">  1       -1 0.10333738E+00 0.15342342E+04</pdfrwt>
<totfact> 0.29597718E+01</totfact>
</mgrwt>
</event>
<event>
12    7  0.1544987E-007  0.1104422E+04  0.7818608E-02  0.9200893E-01
         -1   -1    0    0    0  501 -0.00000000000E+00  0.00000000000E+00  0.20907769564E+03  0.20907769564E+03  0.00000000000E+00 0.  1.
          2   -1    0    0  501    0  0.00000000000E+00 -0.00000000000E+00 -0.14584852375E+04  0.14584852375E+04  0.00000000000E+00 0. -1.
         24    2    1    2    0    0  0.12954082363E+02  0.15956078338E+03 -0.12847712476E+03  0.21942587402E+03  0.77549279575E+02 0.  0.
        254    2    1    2    0    0 -0.12954082363E+02 -0.15956078338E+03 -0.11209304171E+04  0.14481370591E+04  0.90276712955E+03 0.  0.
         23    2    4    4    0    0  0.18098250897E+03  0.22414087434E+03 -0.73674672016E+02  0.31239146417E+03  0.95742725506E+02 0.  0.
         23    2    4    4    0    0 -0.19393659134E+03 -0.38370165772E+03 -0.10472557451E+04  0.11357455950E+04  0.91296753744E+02 0.  0.
          4    1    3    3  502    0  0.42814469350E+01  0.14756872917E+02  0.10438173767E+02  0.18575563457E+02  0.00000000000E+00 0. -1.
         -3    1    3    3    0  502  0.86726354284E+01  0.14480391046E+03 -0.13891529853E+03  0.20085031057E+03  0.00000000000E+00 0.  1.
         13    1    5    5    0    0  0.10555184350E+03  0.10722927364E+03  0.86759940528E+01  0.15071357492E+03  0.00000000000E+00 0. -1.
        -13    1    5    5    0    0  0.75430665471E+02  0.11691160070E+03 -0.82350666069E+02  0.16167788926E+03  0.00000000000E+00 0.  1.
          4    1    6    6  503    0 -0.19967265131E+03 -0.33801029760E+03 -0.95778609867E+03  0.10351204470E+04  0.00000000000E+00 0. -1.
         -4    1    6    6    0  503  0.57360599743E+01 -0.45691360119E+02 -0.89469646440E+02  0.10062514799E+03  0.00000000000E+00 0.  1.
<mgrwt>
<rscale>  0 0.11044215E+04</rscale>
<asrwt>0</asrwt>
<pdfrwt beam="1">  1        2 0.22438234E+00 0.11044215E+04</pdfrwt>
<pdfrwt beam="2">  1       -1 0.32165800E-01 0.11044215E+04</pdfrwt>
<totfact> 0.13662972E+02</totfact>
</mgrwt>
</event>
<event>
12    7  0.1544987E-007  0.2843526E+04  0.7818608E-02  0.8289881E-01
          2   -1    0    0  501    0  0.00000000000E+00  0.00000000000E+00  0.15706424795E+04  0.15706424795E+04  0.00000000000E+00 0. -1.
         -1   -1    0    0    0  501 -0.00000000000E+00 -0.00000000000E+00 -0.12869952360E+04  0.12869952360E+04  0.00000000000E+00 0.  1.
         24    2    1    2    0    0 -0.66553628565E+03  0.10159793094E+04  0.49800774746E+03  0.13150790833E+04  0.79175591027E+02 0.  0.
        254    2    1    2    0    0  0.66553628565E+03 -0.10159793094E+04 -0.21436050394E+03  0.15425586322E+04  0.92649026084E+03 0.  0.
         23    2    4    4    0    0  0.94672201232E+02 -0.93393923896E+03 -0.14977564007E+03  0.95497455726E+03  0.91314483476E+02 0.  0.
         23    2    4    4    0    0  0.57086408442E+03 -0.82040070424E+02 -0.64584863863E+02  0.58758407491E+03  0.92018826450E+02 0.  0.
          4    1    3    3  502    0 -0.64008088323E+03  0.98252741383E+03  0.49533827643E+03  0.12729586262E+04  0.00000000000E+00 0. -1.
         -3    1    3    3    0  502 -0.25455402420E+02  0.33451895557E+02  0.26694710213E+01  0.42120457076E+02  0.00000000000E+00 0.  1.
         13    1    5    5    0    0  0.60759967687E+02 -0.43271050896E+03 -0.11257637922E+03  0.45122455540E+03  0.00000000000E+00 0.  1.
        -13    1    5    5    0    0  0.33912233545E+02 -0.50122873000E+03 -0.37199260849E+02  0.50375000186E+03  0.00000000000E+00 0. -1.
          4    1    6    6  503    0  0.27421816142E+03 -0.70213904081E+02 -0.66180551985E+02  0.29069822469E+03  0.00000000000E+00 0. -1.
         -4    1    6    6    0  503  0.29664592300E+03 -0.11826166343E+02  0.15956881216E+01  0.29688585023E+03  0.00000000000E+00 0.  1.
<mgrwt>
<rscale>  0 0.28435256E+04</rscale>
<asrwt>0</asrwt>
<pdfrwt beam="1">  1        2 0.24163730E+00 0.28435256E+04</pdfrwt>
<pdfrwt beam="2">  1       -1 0.19799927E+00 0.28435256E+04</pdfrwt>
<totfact> 0.17767576E+00</totfact>
</mgrwt>
</event>
<event>
12    7  0.1544987E-007  0.1636177E+04  0.7818608E-02  0.8798626E-01
          2   -1    0    0  501    0  0.00000000000E+00  0.00000000000E+00  0.12307624378E+04  0.12307624378E+04  0.00000000000E+00 0. -1.
         -1   -1    0    0    0  501 -0.00000000000E+00 -0.00000000000E+00 -0.54378370455E+03  0.54378370455E+03  0.00000000000E+00 0.  1.
         24    2    1    2    0    0  0.34270648062E+03  0.35262958537E+03 -0.65758918361E+02  0.50255833395E+03  0.80282546889E+02 0.  0.
        254    2    1    2    0    0 -0.34270648062E+03 -0.35262958537E+03  0.75273765166E+03  0.12719878084E+04  0.89974643999E+03 0.  0.
         23    2    4    4    0    0 -0.36087454085E+03  0.61524364081E+02 -0.32926319375E+02  0.37855814142E+03  0.90589416150E+02 0.  0.
         23    2    4    4    0    0  0.18168060233E+02 -0.41415394946E+03  0.78566397104E+03  0.89342966702E+03  0.95368350469E+02 0.  0.
          4    1    3    3  502    0  0.24518052693E+03  0.28422075034E+03 -0.76057016190E+02  0.38298772228E+03  0.00000000000E+00 0. -1.
         -3    1    3    3    0  502  0.97525953695E+02  0.68408835032E+02  0.10298097829E+02  0.11957061166E+03  0.00000000000E+00 0.  1.
         13    1    5    5    0    0 -0.21182585513E+03  0.11256482816E+02 -0.56460867242E+02  0.21951020668E+03  0.00000000000E+00 0. -1.
        -13    1    5    5    0    0 -0.14904868572E+03  0.50267881265E+02  0.23534547867E+02  0.15904793474E+03  0.00000000000E+00 0.  1.
          2    1    6    6  503    0  0.46573314666E+02 -0.32594233095E+03  0.65675992926E+03  0.73467072994E+03  0.00000000000E+00 0. -1.
         -2    1    6    6    0  503 -0.28405254433E+02 -0.88211618506E+02  0.12890404178E+03  0.15875893709E+03  0.00000000000E+00 0.  1.
<mgrwt>
<rscale>  0 0.16361767E+04</rscale>
<asrwt>0</asrwt>
<pdfrwt beam="1">  1        2 0.18934807E+00 0.16361767E+04</pdfrwt>
<pdfrwt beam="2">  1       -1 0.83659031E-01 0.16361767E+04</pdfrwt>
<totfact> 0.28058329E+01</totfact>
</mgrwt>
</event>
<event>
12    7  0.1544987E-007  0.1575365E+04  0.7818608E-02  0.8835827E-01
          2   -1    0    0  501    0  0.00000000000E+00  0.00000000000E+00  0.35757407006E+04  0.35757407006E+04  0.00000000000E+00 0. -1.
         -1   -1    0    0    0  501 -0.00000000000E+00 -0.00000000000E+00 -0.17351472204E+03  0.17351472204E+03  0.00000000000E+00 0.  1.
         24    2    1    2    0    0 -0.15425096858E+02  0.36746915325E+02 -0.99313098954E+02  0.13362181783E+03  0.80021429481E+02 0.  0.
        254    2    1    2    0    0  0.15425096858E+02 -0.36746915325E+02  0.35015390775E+04  0.36156336048E+04  0.90024562401E+03 0.  0.
         23    2    4    4    0    0 -0.43191487907E+03 -0.17401755603E+02  0.18560452012E+04  0.19078644225E+04  0.90496309743E+02 0.  0.
         23    2    4    4    0    0  0.44733997593E+03 -0.19345159723E+02  0.16454938763E+04  0.17077691823E+04  0.91313710126E+02 0.  0.
          2    1    3    3  502    0  0.31302393067E+02  0.11518019721E+02 -0.22477173820E+02  0.40220988712E+02  0.00000000000E+00 0. -1.
         -1    1    3    3    0  502 -0.46727489925E+02  0.25228895604E+02 -0.76835925133E+02  0.93400829114E+02  0.00000000000E+00 0.  1.
         13    1    5    5    0    0 -0.14826347100E+03 -0.12056351585E+02  0.46609409981E+03  0.48925568196E+03  0.00000000000E+00 0. -1.
        -13    1    5    5    0    0 -0.28365140807E+03 -0.53454040181E+01  0.13899511013E+04  0.14186087406E+04  0.00000000000E+00 0.  1.
          1    1    6    6  503    0  0.18509518005E+03  0.29685566114E+01  0.84788832489E+03  0.86786153820E+03  0.00000000000E+00 0. -1.
         -1    1    6    6    0  503  0.26224479588E+03 -0.22313716334E+02  0.79760555143E+03  0.83990764408E+03  0.00000000000E+00 0.  1.
<mgrwt>
<rscale>  0 0.15753649E+04</rscale>
<asrwt>0</asrwt>
<pdfrwt beam="1">  1        2 0.55011390E+00 0.15753649E+04</pdfrwt>
<pdfrwt beam="2">  1       -1 0.26694575E-01 0.15753649E+04</pdfrwt>
<totfact> 0.99676065E+00</totfact>
</mgrwt>
</event>
<event>
12    7  0.1544987E-007  0.1631509E+04  0.7818608E-02  0.8801421E-01
          2   -1    0    0  501    0  0.00000000000E+00  0.00000000000E+00  0.32969689615E+04  0.32969689615E+04  0.00000000000E+00 0. -1.
         -1   -1    0    0    0  501 -0.00000000000E+00 -0.00000000000E+00 -0.20183852586E+03  0.20183852586E+03  0.00000000000E+00 0.  1.
         24    2    1    2    0    0  0.16584991132E+03 -0.49311756771E+03  0.15850279535E+04  0.16701560872E+04  0.80228509412E+02 0.  0.
        254    2    1    2    0    0 -0.16584991132E+03  0.49311756771E+03  0.15101024822E+04  0.18286514001E+04  0.89044107492E+03 0.  0.
         23    2    4    4    0    0  0.24459174320E+01 -0.19193363426E+03  0.78304258146E+03  0.81132249143E+03  0.90796465987E+02 0.  0.
         23    2    4    4    0    0 -0.16829582876E+03  0.68505120198E+03  0.72705990071E+03  0.10173289087E+04  0.93399004169E+02 0.  0.
          2    1    3    3  502    0  0.16597450649E+03 -0.42495602641E+03  0.13249727117E+04  0.14013164696E+04  0.00000000000E+00 0. -1.
         -1    1    3    3    0  502 -0.12459516566E+00 -0.68161541304E+02  0.26005524178E+03  0.26883961764E+03  0.00000000000E+00 0.  1.
         13    1    5    5    0    0  0.13157936065E+02 -0.89838352673E+02  0.53859321402E+03  0.54619292478E+03  0.00000000000E+00 0. -1.
        -13    1    5    5    0    0 -0.10712018633E+02 -0.10209528159E+03  0.24444936744E+03  0.26512956665E+03  0.00000000000E+00 0.  1.
          4    1    6    6  503    0 -0.12582319780E+03  0.51939169782E+03  0.49022969134E+03  0.72520642795E+03  0.00000000000E+00 0. -1.
         -4    1    6    6    0  503 -0.42472630957E+02  0.16565950415E+03  0.23683020937E+03  0.29212248076E+03  0.00000000000E+00 0.  1.
<mgrwt>
<rscale>  0 0.16315089E+04</rscale>
<asrwt>0</asrwt>
<pdfrwt beam="1">  1        2 0.50722596E+00 0.16315089E+04</pdfrwt>
<pdfrwt beam="2">  1       -1 0.31052083E-01 0.16315089E+04</pdfrwt>
<totfact> 0.11806836E+01</totfact>
</mgrwt>
</event>
<event>
12    7  0.1544987E-007  0.1405188E+04  0.7818608E-02  0.8950072E-01
          4   -1    0    0  501    0  0.00000000000E+00  0.00000000000E+00  0.17864715082E+04  0.17864715082E+04  0.00000000000E+00 0. -1.
         -3   -1    0    0    0  501 -0.00000000000E+00 -0.00000000000E+00 -0.27632039717E+03  0.27632039717E+03  0.00000000000E+00 0.  1.
         24    2    1    2    0    0  0.35617292927E+03  0.41978823491E+00  0.64878242863E+03  0.74436927801E+03  0.79420718850E+02 0.  0.
        254    2    1    2    0    0 -0.35617292927E+03 -0.41978823491E+00  0.86136868240E+03  0.13184226274E+04  0.93242848818E+03 0.  0.
         23    2    4    4    0    0 -0.20707962307E+03  0.12700554017E+03  0.10188558241E+04  0.10514009792E+04  0.91457373706E+02 0.  0.
         23    2    4    4    0    0 -0.14909330619E+03 -0.12742532841E+03 -0.15748714166E+03  0.26702164821E+03  0.89623281322E+02 0.  0.
          2    1    3    3  502    0  0.34554087294E+03  0.15632719989E+02  0.60668576270E+03  0.69836272199E+03  0.00000000000E+00 0. -1.
         -1    1    3    3    0  502  0.10632056330E+02 -0.15212931754E+02  0.42096665932E+02  0.46006556021E+02  0.00000000000E+00 0.  1.
         13    1    5    5    0    0 -0.16964807255E+01  0.27505830670E+02  0.64552599499E+02  0.70188936948E+02  0.00000000000E+00 0. -1.
        -13    1    5    5    0    0 -0.20538314235E+03  0.99499709505E+02  0.95430322457E+03  0.98121204221E+03  0.00000000000E+00 0.  1.
          3    1    6    6  503    0 -0.41801490516E+02 -0.47764394856E+02 -0.10652651842E+03  0.12400282719E+03  0.00000000000E+00 0. -1.
         -3    1    6    6    0  503 -0.10729181568E+03 -0.79660933554E+02 -0.50960623246E+02  0.14301882102E+03  0.00000000000E+00 0.  1.
<mgrwt>
<rscale>  0 0.14051883E+04</rscale>
<asrwt>0</asrwt>
<pdfrwt beam="1">  1        4 0.27484176E+00 0.14051883E+04</pdfrwt>
<pdfrwt beam="2">  1       -3 0.42510831E-01 0.14051883E+04</pdfrwt>
<totfact> 0.54513564E-01</totfact>
</mgrwt>
</event>
<event>
12    7  0.1544987E-007  0.4703354E+04  0.7818608E-02  0.7875972E-01
          2   -1    0    0  501    0  0.00000000000E+00  0.00000000000E+00  0.28679321278E+04  0.28679321278E+04  0.00000000000E+00 0. -1.
         -1   -1    0    0    0  501 -0.00000000000E+00 -0.00000000000E+00 -0.19283525330E+04  0.19283525330E+04  0.00000000000E+00 0.  1.
         24    2    1    2    0    0 -0.12103109302E+04 -0.10260562314E+04  0.21015260455E+04  0.26344745971E+04  0.80004656015E+02 0.  0.
        254    2    1    2    0    0  0.12103109302E+04  0.10260562314E+04 -0.11619464506E+04  0.21618100638E+04  0.89758523827E+03 0.  0.
         23    2    4    4    0    0  0.92004522094E+03  0.80817795870E+03 -0.36473733756E+03  0.12812981001E+04  0.95166561759E+02 0.  0.
         23    2    4    4    0    0  0.29026570922E+03  0.21787827273E+03 -0.79720911305E+03  0.88051196363E+03  0.89631604314E+02 0.  0.
          4    1    3    3  502    0 -0.97828761409E+03 -0.84686365197E+03  0.16654584909E+04  0.21090226850E+04  0.00000000000E+00 0. -1.
         -3    1    3    3    0  502 -0.23202331607E+03 -0.17919257945E+03  0.43606755454E+03  0.52545191203E+03  0.00000000000E+00 0.  1.
         13    1    5    5    0    0  0.67526195645E+01  0.15101367067E+02  0.35066127037E+01  0.16909922854E+02  0.00000000000E+00 0.  1.
        -13    1    5    5    0    0  0.91329260137E+03  0.79307659164E+03 -0.36824395026E+03  0.12643881773E+04  0.00000000000E+00 0. -1.
          3    1    6    6  503    0  0.18896307271E+03  0.12014737098E+03 -0.57952722982E+03  0.62128435012E+03  0.00000000000E+00 0. -1.
         -3    1    6    6    0  503  0.10130263651E+03  0.97730901742E+02 -0.21768188323E+03  0.25922761351E+03  0.00000000000E+00 0.  1.
<mgrwt>
<rscale>  0 0.47033538E+04</rscale>
<asrwt>0</asrwt>
<pdfrwt beam="1">  1        2 0.44122033E+00 0.47033538E+04</pdfrwt>
<pdfrwt beam="2">  1       -1 0.29666962E+00 0.47033538E+04</pdfrwt>
<totfact> 0.61796823E-02</totfact>
</mgrwt>
</event>
<event>
12    7  0.1544987E-007  0.1736987E+04  0.7818608E-02  0.8740546E-01
          2   -1    0    0  501    0  0.00000000000E+00  0.00000000000E+00  0.21510744751E+04  0.21510744751E+04  0.00000000000E+00 0. -1.
         -1   -1    0    0    0  501 -0.00000000000E+00 -0.00000000000E+00 -0.35065325684E+03  0.35065325684E+03  0.00000000000E+00 0.  1.
         24    2    1    2    0    0  0.66754496363E+02 -0.33921604496E+03 -0.10347274648E+03  0.36700241223E+03  0.66786775478E+02 0.  0.
        254    2    1    2    0    0 -0.66754496363E+02  0.33921604496E+03  0.19038939647E+04  0.21347253197E+04  0.90150777795E+03 0.  0.
         23    2    4    4    0    0 -0.40201929219E+03  0.42485095754E+01  0.12868922280E+04  0.13513576308E+04  0.91860103013E+02 0.  0.
         23    2    4    4    0    0  0.33526479583E+03  0.33496753538E+03  0.61700173672E+03  0.78336768896E+03  0.91477100483E+02 0.  0.
          4    1    3    3  502    0 -0.28313144841E+01 -0.33865038455E+01 -0.10908192204E+02  0.11767472420E+02  0.00000000000E+00 0. -1.
         -3    1    3    3    0  502  0.69585810847E+02 -0.33582954111E+03 -0.92564554276E+02  0.35523493981E+03  0.00000000000E+00 0.  1.
         13    1    5    5    0    0 -0.19321539125E+03  0.37837755930E+02  0.52672958312E+03  0.56232369408E+03  0.00000000000E+00 0. -1.
        -13    1    5    5    0    0 -0.20880390094E+03 -0.33589246355E+02  0.76016264490E+03  0.78903393668E+03  0.00000000000E+00 0.  1.
          4    1    6    6  503    0  0.28542488985E+03  0.23642422096E+03  0.50123179409E+03  0.62337556209E+03  0.00000000000E+00 0. -1.
         -4    1    6    6    0  503  0.49839905974E+02  0.98543314415E+02  0.11576994263E+03  0.15999212687E+03  0.00000000000E+00 0.  1.
<mgrwt>
<rscale>  0 0.17369874E+04</rscale>
<asrwt>0</asrwt>
<pdfrwt beam="1">  1        2 0.33093452E+00 0.17369874E+04</pdfrwt>
<pdfrwt beam="2">  1       -1 0.53946656E-01 0.17369874E+04</pdfrwt>
<totfact> 0.20625731E+01</totfact>
</mgrwt>
</event>
<event>
12    7  0.1544987E-007  0.1032250E+04  0.7818608E-02  0.9273864E-01
         -1   -1    0    0    0  501 -0.00000000000E+00  0.00000000000E+00  0.12209704249E+04  0.12209704249E+04  0.00000000000E+00 0.  1.
          2   -1    0    0  501    0  0.00000000000E+00 -0.00000000000E+00 -0.21817498189E+03  0.21817498189E+03  0.00000000000E+00 0. -1.
         24    2    1    2    0    0  0.53210190080E+02  0.75013207946E+02  0.18111397718E+03  0.21908585585E+03  0.82085527398E+02 0.  0.
        254    2    1    2    0    0 -0.53210190080E+02 -0.75013207946E+02  0.82168146580E+03  0.12200595509E+04  0.89717700083E+03 0.  0.
         23    2    4    4    0    0  0.34559741501E+03 -0.14043044360E+03  0.11397092753E+03  0.40023980341E+03  0.89689716007E+02 0.  0.
         23    2    4    4    0    0 -0.39880760509E+03  0.65417235653E+02  0.70771053827E+03  0.81981974750E+03  0.89012874418E+02 0.  0.
          4    1    3    3  502    0  0.41063524571E+02  0.15404080936E+02  0.22681910553E+02  0.49375781776E+02  0.00000000000E+00 0. -1.
         -3    1    3    3    0  502  0.12146665509E+02  0.59609127010E+02  0.15843206663E+03  0.16971007407E+03  0.00000000000E+00 0.  1.
         13    1    5    5    0    0  0.27886067863E+02 -0.36394318826E+02  0.32337423345E+02  0.56106043991E+02  0.00000000000E+00 0. -1.
        -13    1    5    5    0    0  0.31771134715E+03 -0.10403612477E+03  0.81633504187E+02  0.34413375942E+03  0.00000000000E+00 0.  1.
          3    1    6    6  503    0 -0.20190797665E+03  0.77059071211E+02  0.35052081272E+03  0.41178850353E+03  0.00000000000E+00 0. -1.
         -3    1    6    6    0  503 -0.19689962844E+03 -0.11641835558E+02  0.35718972554E+03  0.40803124396E+03  0.00000000000E+00 0.  1.
<mgrwt>
<rscale>  0 0.10322504E+04</rscale>
<asrwt>0</asrwt>
<pdfrwt beam="1">  1        2 0.33565382E-01 0.10322504E+04</pdfrwt>
<pdfrwt beam="2">  1       -1 0.18784160E+00 0.10322504E+04</pdfrwt>
<totfact> 0.32857278E+01</totfact>
</mgrwt>
</event>
<event>
12    7  0.1544987E-007  0.1117244E+04  0.7818608E-02  0.9188545E-01
         -1   -1    0    0    0  501 -0.00000000000E+00  0.00000000000E+00  0.14469826484E+04  0.14469826484E+04  0.00000000000E+00 0.  1.
          2   -1    0    0  501    0  0.00000000000E+00 -0.00000000000E+00 -0.21566172199E+03  0.21566172199E+03  0.00000000000E+00 0. -1.
         24    2    1    2    0    0 -0.60874284059E+02  0.35663428064E+02 -0.35531414405E+02  0.11180996317E+03  0.79129184838E+02 0.  0.
        254    2    1    2    0    0  0.60874284059E+02 -0.35663428064E+02  0.12668523408E+04  0.15508344072E+04  0.89173703896E+03 0.  0.
         23    2    4    4    0    0  0.15204482293E+03 -0.43733865024E+03  0.64018286926E+03  0.79536215558E+03  0.91564891003E+02 0.  0.
         23    2    4    4    0    0 -0.91170538875E+02  0.40167522218E+03  0.62666947155E+03  0.75547225164E+03  0.91480299235E+02 0.  0.
          2    1    3    3  502    0 -0.38284774956E+02 -0.17532762490E+01 -0.52435254783E+02  0.64948086309E+02  0.00000000000E+00 0. -1.
         -1    1    3    3    0  502 -0.22589509103E+02  0.37416704313E+02  0.16903840379E+02  0.46861876859E+02  0.00000000000E+00 0.  1.
         13    1    5    5    0    0  0.62892468734E+02 -0.75006449400E+02  0.11322446859E+03  0.14967033896E+03  0.00000000000E+00 0.  1.
        -13    1    5    5    0    0  0.89152354199E+02 -0.36233220084E+03  0.52695840066E+03  0.64569181662E+03  0.00000000000E+00 0. -1.
          3    1    6    6  503    0 -0.86050154031E+01  0.18717601774E+03  0.22613071249E+03  0.29367329984E+03  0.00000000000E+00 0. -1.
         -3    1    6    6    0  503 -0.82565523472E+02  0.21449920444E+03  0.40053875906E+03  0.46179895180E+03  0.00000000000E+00 0.  1.
<mgrwt>
<rscale>  0 0.11172444E+04</rscale>
<asrwt>0</asrwt>
<pdfrwt beam="1">  1        2 0.33178727E-01 0.11172444E+04</pdfrwt>
<pdfrwt beam="2">  1       -1 0.22261271E+00 0.11172444E+04</pdfrwt>
<totfact> 0.19149200E+01</totfact>
</mgrwt>
</event>
<event>
12    7  0.1544987E-007  0.1354912E+04  0.7818608E-02  0.8987118E-01
          2   -1    0    0  501    0  0.00000000000E+00  0.00000000000E+00  0.76721108845E+03  0.76721108845E+03  0.00000000000E+00 0. -1.
         -1   -1    0    0    0  501 -0.00000000000E+00 -0.00000000000E+00 -0.59820090901E+03  0.59820090901E+03  0.00000000000E+00 0.  1.
         24    2    1    2    0    0  0.31833529536E+03 -0.11053475106E+03 -0.10058730733E+03  0.36059272613E+03  0.79712083608E+02 0.  0.
        254    2    1    2    0    0 -0.31833529536E+03  0.11053475106E+03  0.26959748677E+03  0.10048192713E+04  0.90742695117E+03 0.  0.
         23    2    4    4    0    0 -0.23909535649E+03 -0.38184578012E+03  0.10798205283E+03  0.47253694610E+03  0.93049730796E+02 0.  0.
         23    2    4    4    0    0 -0.79239938872E+02  0.49238053118E+03  0.16161543394E+03  0.53228232524E+03  0.92126922650E+02 0.  0.
          4    1    3    3  502    0  0.28201272314E+03 -0.79713581775E+02 -0.10810683377E+03  0.31236600109E+03  0.00000000000E+00 0. -1.
         -3    1    3    3    0  502  0.36322572225E+02 -0.30821169288E+02  0.75195264459E+01  0.48226725032E+02  0.00000000000E+00 0.  1.
         13    1    5    5    0    0 -0.14195008471E+03 -0.25523580766E+03  0.26224619704E+02  0.29322836619E+03  0.00000000000E+00 0.  1.
        -13    1    5    5    0    0 -0.97145271784E+02 -0.12660997246E+03  0.81757433123E+02  0.17930857990E+03  0.00000000000E+00 0. -1.
          3    1    6    6  503    0 -0.29541501695E+02  0.28753234032E+03  0.48590238006E+02  0.29310161767E+03  0.00000000000E+00 0. -1.
         -3    1    6    6    0  503 -0.49698437177E+02  0.20484819086E+03  0.11302519594E+03  0.23918070757E+03  0.00000000000E+00 0.  1.
<mgrwt>
<rscale>  0 0.13549116E+04</rscale>
<asrwt>0</asrwt>
<pdfrwt beam="1">  1        2 0.11803248E+00 0.13549116E+04</pdfrwt>
<pdfrwt beam="2">  1       -1 0.92030909E-01 0.13549116E+04</pdfrwt>
<totfact> 0.46685004E+01</totfact>
</mgrwt>
</event>
<event>
12    7  0.1544987E-007  0.2516960E+04  0.7818608E-02  0.8396968E-01
          2   -1    0    0  501    0  0.00000000000E+00  0.00000000000E+00  0.37010977498E+04  0.37010977498E+04  0.00000000000E+00 0. -1.
         -1   -1    0    0    0  501 -0.00000000000E+00 -0.00000000000E+00 -0.42791941488E+03  0.42791941488E+03  0.00000000000E+00 0.  1.
         24    2    1    2    0    0 -0.16272761920E+03 -0.82221929521E+03  0.26945050633E+03  0.88375613478E+03  0.76788559925E+02 0.  0.
        254    2    1    2    0    0  0.16272761920E+03  0.82221929521E+03  0.30037278286E+04  0.32452610299E+04  0.89822794237E+03 0.  0.
         23    2    4    4    0    0 -0.98386370651E+02 -0.10777442542E+03  0.14379115895E+03  0.22519931908E+03  0.93507385882E+02 0.  0.
         23    2    4    4    0    0  0.26111398985E+03  0.92999372063E+03  0.28599366697E+04  0.30200617108E+04  0.92011666171E+02 0.  0.
          4    1    3    3  502    0 -0.11672404078E+03 -0.54317461737E+03  0.21514988690E+03  0.59577901984E+03  0.00000000000E+00 0. -1.
         -3    1    3    3    0  502 -0.46003578418E+02 -0.27904467784E+03  0.54300619434E+02  0.28797711494E+03  0.00000000000E+00 0.  1.
         13    1    5    5    0    0 -0.11679337510E+03 -0.92653408347E+02  0.12910770666E+03  0.19721598937E+03  0.00000000000E+00 0.  1.
        -13    1    5    5    0    0  0.18407004447E+02 -0.15121017075E+02  0.14683452295E+02  0.27983329706E+02  0.00000000000E+00 0. -1.
          2    1    6    6  503    0  0.27616942904E+02  0.12793719776E+03  0.30092980320E+03  0.32816058350E+03  0.00000000000E+00 0. -1.
         -2    1    6    6    0  503  0.23349704695E+03  0.80205652287E+03  0.25590068664E+04  0.26919011273E+04  0.00000000000E+00 0.  1.
<mgrwt>
<rscale>  0 0.25169597E+04</rscale>
<asrwt>0</asrwt>
<pdfrwt beam="1">  1        2 0.56939963E+00 0.25169597E+04</pdfrwt>
<pdfrwt beam="2">  1       -1 0.65833759E-01 0.25169597E+04</pdfrwt>
<totfact> 0.13826239E+00</totfact>
</mgrwt>
</event>
<event>
12    7  0.1544987E-007  0.1475037E+04  0.7818608E-02  0.8901225E-01
         -1   -1    0    0    0  501 -0.00000000000E+00  0.00000000000E+00  0.15160541901E+04  0.15160541901E+04  0.00000000000E+00 0.  1.
          2   -1    0    0  501    0  0.00000000000E+00 -0.00000000000E+00 -0.35878244927E+03  0.35878244927E+03  0.00000000000E+00 0. -1.
         24    2    1    2    0    0  0.41259733869E+01  0.19527072847E+03 -0.15572055568E+03  0.26203823060E+03  0.79167302495E+02 0.  0.
        254    2    1    2    0    0 -0.41259733869E+01 -0.19527072847E+03  0.13129922966E+04  0.16127984088E+04  0.91598158038E+03 0.  0.
         23    2    4    4    0    0 -0.19708099514E+03 -0.50524625742E+03  0.65747469626E+03  0.85702984362E+03  0.90069291865E+02 0.  0.
         23    2    4    4    0    0  0.19295502175E+03  0.30997552896E+03  0.65551760029E+03  0.75576856519E+03  0.90367753502E+02 0.  0.
          4    1    3    3  502    0  0.74886772400E+01  0.14012416200E+03 -0.15169134794E+03  0.20664250798E+03  0.00000000000E+00 0. -1.
         -3    1    3    3    0  502 -0.33627038531E+01  0.55146566466E+02 -0.40292077381E+01  0.55395722626E+02  0.00000000000E+00 0.  1.
         13    1    5    5    0    0  0.50839076616E+01 -0.26999096315E+02  0.16144619043E+02  0.31866064128E+02  0.00000000000E+00 0. -1.
        -13    1    5    5    0    0 -0.20216490280E+03 -0.47824716111E+03  0.64133007722E+03  0.82516377949E+03  0.00000000000E+00 0.  1.
          1    1    6    6  503    0  0.70097391570E+02  0.15914125884E+03  0.38613783127E+03  0.42348790929E+03  0.00000000000E+00 0. -1.
         -1    1    6    6    0  503  0.12285763018E+03  0.15083427011E+03  0.26937976901E+03  0.33228065590E+03  0.00000000000E+00 0.  1.
<mgrwt>
<rscale>  0 0.14750371E+04</rscale>
<asrwt>0</asrwt>
<pdfrwt beam="1">  1        2 0.55197300E-01 0.14750371E+04</pdfrwt>
<pdfrwt beam="2">  1       -1 0.23323910E+00 0.14750371E+04</pdfrwt>
<totfact> 0.89479130E+00</totfact>
</mgrwt>
</event>
<event>
12    7  0.1544987E-007  0.1476718E+04  0.7818608E-02  0.8900085E-01
         -1   -1    0    0    0  501 -0.00000000000E+00  0.00000000000E+00  0.34649695610E+03  0.34649695610E+03  0.00000000000E+00 0.  1.
          2   -1    0    0  501    0  0.00000000000E+00 -0.00000000000E+00 -0.15733875176E+04  0.15733875176E+04  0.00000000000E+00 0. -1.
         24    2    1    2    0    0 -0.77363036894E+02 -0.44439036378E+03 -0.30431043301E+03  0.55002977633E+03  0.80374624784E+02 0.  0.
        254    2    1    2    0    0  0.77363036894E+02  0.44439036378E+03 -0.92258012844E+03  0.13698546973E+04  0.90657595573E+03 0.  0.
         23    2    4    4    0    0  0.40610922584E+03  0.56142191734E+02 -0.67891585085E+03  0.79841664309E+03  0.92009534375E+02 0.  0.
         23    2    4    4    0    0 -0.32874618894E+03  0.38824817205E+03 -0.24366427759E+03  0.57143805424E+03  0.91424667466E+02 0.  0.
          4    1    3    3  502    0 -0.58407087645E+02 -0.22053028647E+03 -0.19533003131E+03  0.30033117765E+03  0.00000000000E+00 0. -1.
         -3    1    3    3    0  502 -0.18955949249E+02 -0.22386007732E+03 -0.10898040170E+03  0.24969859868E+03  0.00000000000E+00 0.  1.
         13    1    5    5    0    0  0.31597513028E+03  0.43692061367E+02 -0.44575293443E+03  0.54812859599E+03  0.00000000000E+00 0.  1.
        -13    1    5    5    0    0  0.90134095557E+02  0.12450130367E+02 -0.23316291642E+03  0.25028804710E+03  0.00000000000E+00 0. -1.
          1    1    6    6  503    0 -0.36280034010E+02  0.93589391524E+02 -0.64171217207E+02  0.11913505022E+03  0.00000000000E+00 0. -1.
         -1    1    6    6    0  503 -0.29246615493E+03  0.29465878052E+03 -0.17949306038E+03  0.45230300402E+03  0.00000000000E+00 0.  1.
<mgrwt>
<rscale>  0 0.14767180E+04</rscale>
<asrwt>0</asrwt>
<pdfrwt beam="1">  1        2 0.24205962E+00 0.14767180E+04</pdfrwt>
<pdfrwt beam="2">  1       -1 0.53307223E-01 0.14767180E+04</pdfrwt>
<totfact> 0.45176293E+01</totfact>
</mgrwt>
</event>
<event>
12    7  0.1544987E-007  0.1500558E+04  0.7818608E-02  0.8884082E-01
         -1   -1    0    0    0  501 -0.00000000000E+00  0.00000000000E+00  0.42825615362E+03  0.42825615362E+03  0.00000000000E+00 0.  1.
          2   -1    0    0  501    0  0.00000000000E+00 -0.00000000000E+00 -0.13144428644E+04  0.13144428644E+04  0.00000000000E+00 0. -1.
         24    2    1    2    0    0  0.20293708091E+03 -0.42258234157E+03 -0.35668672948E+03  0.59433397559E+03  0.79045286634E+02 0.  0.
        254    2    1    2    0    0 -0.20293708091E+03  0.42258234157E+03 -0.52949998132E+03  0.11483650424E+04  0.90477220685E+03 0.  0.
         23    2    4    4    0    0 -0.51207176449E+03  0.38176053358E+03 -0.17697340041E+03  0.66893354572E+03  0.90520203021E+02 0.  0.
         23    2    4    4    0    0  0.30913468358E+03  0.40821807996E+02 -0.35252658092E+03  0.47943149673E+03  0.91372299973E+02 0.  0.
          2    1    3    3  502    0  0.11688986113E+03 -0.28874798835E+03 -0.27476808594E+03  0.41537470007E+03  0.00000000000E+00 0. -1.
         -1    1    3    3    0  502  0.86047219781E+02 -0.13383435322E+03 -0.81918643541E+02  0.17895927552E+03  0.00000000000E+00 0.  1.
         13    1    5    5    0    0 -0.36114164170E+03  0.22228183647E+03 -0.95166282005E+02  0.43461376120E+03  0.00000000000E+00 0. -1.
        -13    1    5    5    0    0 -0.15093012279E+03  0.15947869711E+03 -0.81807118401E+02  0.23431978452E+03  0.00000000000E+00 0.  1.
          3    1    6    6  503    0  0.70908575198E+01 -0.12703757120E+02 -0.35157733418E+02  0.38049072583E+02  0.00000000000E+00 0. -1.
         -3    1    6    6    0  503  0.30204382606E+03  0.53525565116E+02 -0.31736884750E+03  0.44138242415E+03  0.00000000000E+00 0.  1.
<mgrwt>
<rscale>  0 0.15005576E+04</rscale>
<asrwt>0</asrwt>
<pdfrwt beam="1">  1        2 0.20222198E+00 0.15005576E+04</pdfrwt>
<pdfrwt beam="2">  1       -1 0.65885561E-01 0.15005576E+04</pdfrwt>
<totfact> 0.41694444E+01</totfact>
</mgrwt>
</event>
<event>
12    7  0.1544987E-007  0.2600212E+04  0.7818608E-02  0.8368129E-01
         -1   -1    0    0    0  501 -0.00000000000E+00  0.00000000000E+00  0.94577965052E+03  0.94577965052E+03  0.00000000000E+00 0.  1.
          2   -1    0    0  501    0  0.00000000000E+00 -0.00000000000E+00 -0.17871768998E+04  0.17871768998E+04  0.00000000000E+00 0. -1.
         24    2    1    2    0    0  0.10212312795E+04  0.34427853067E+03 -0.64694353544E+03  0.12594114679E+04  0.78359903579E+02 0.  0.
        254    2    1    2    0    0 -0.10212312795E+04 -0.34427853067E+03 -0.19445371379E+03  0.14735450824E+04  0.98594210292E+03 0.  0.
         23    2    4    4    0    0 -0.79116752093E+03  0.21617527003E+03  0.19642069678E+02  0.82515922388E+03  0.88454170636E+02 0.  0.
         23    2    4    4    0    0 -0.23006375852E+03 -0.56045380071E+03 -0.21409578347E+03  0.64838585855E+03  0.86772238382E+02 0.  0.
          4    1    3    3  502    0  0.58043102368E+03  0.22282102302E+03 -0.40637967367E+03  0.74276094453E+03  0.00000000000E+00 0. -1.
         -3    1    3    3    0  502  0.44080025577E+03  0.12145750765E+03 -0.24056386177E+03  0.51665052332E+03  0.00000000000E+00 0.  1.
         13    1    5    5    0    0 -0.45686052772E+03  0.12924670621E+03 -0.32131496593E+02  0.47587675497E+03  0.00000000000E+00 0. -1.
        -13    1    5    5    0    0 -0.33430699322E+03  0.86928563826E+02  0.51773566271E+02  0.34928246891E+03  0.00000000000E+00 0.  1.
          1    1    6    6  503    0 -0.94340574467E+02 -0.28637654068E+03 -0.66360675274E+02  0.30873193270E+03  0.00000000000E+00 0. -1.
         -1    1    6    6    0  503 -0.13572318406E+03 -0.27407726002E+03 -0.14773510820E+03  0.33965392585E+03  0.00000000000E+00 0.  1.
<mgrwt>
<rscale>  0 0.26002119E+04</rscale>
<asrwt>0</asrwt>
<pdfrwt beam="1">  1        2 0.27495029E+00 0.26002119E+04</pdfrwt>
<pdfrwt beam="2">  1       -1 0.14550456E+00 0.26002119E+04</pdfrwt>
<totfact> 0.33432488E+00</totfact>
</mgrwt>
</event>
<event>
12    7  0.1544987E-007  0.1593126E+04  0.7818608E-02  0.8824782E-01
         -1   -1    0    0    0  501 -0.00000000000E+00  0.00000000000E+00  0.25967051843E+04  0.25967051843E+04  0.00000000000E+00 0.  1.
          2   -1    0    0  501    0  0.00000000000E+00 -0.00000000000E+00 -0.24435301346E+03  0.24435301346E+03  0.00000000000E+00 0. -1.
         24    2    1    2    0    0 -0.32581373479E+03  0.47674032508E+02  0.15287714724E+04  0.15657533622E+04  0.77549811052E+02 0.  0.
        254    2    1    2    0    0  0.32581373479E+03 -0.47674032508E+02  0.82358069836E+03  0.12753048355E+04  0.91634592464E+03 0.  0.
         23    2    4    4    0    0  0.20490502590E+03 -0.47147083622E+03  0.41014493332E+03  0.66414716678E+03  0.92745747976E+02 0.  0.
         23    2    4    4    0    0  0.12090870888E+03  0.42379680371E+03  0.41343576504E+03  0.61115766872E+03  0.91443520852E+02 0.  0.
          2    1    3    3  502    0 -0.15714146058E+03  0.58714830379E+02  0.83529798151E+03  0.85197628362E+03  0.00000000000E+00 0. -1.
         -1    1    3    3    0  502 -0.16867227421E+03 -0.11040797872E+02  0.69347349092E+03  0.71377707858E+03  0.00000000000E+00 0.  1.
         13    1    5    5    0    0  0.46112002125E+02 -0.36171116355E+02  0.54590149475E+02  0.80092139552E+02  0.00000000000E+00 0. -1.
        -13    1    5    5    0    0  0.15879302378E+03 -0.43529971987E+03  0.35555478385E+03  0.58405502723E+03  0.00000000000E+00 0.  1.
          4    1    6    6  503    0  0.20164372715E+02  0.21618197759E+03  0.23068967019E+03  0.31679484417E+03  0.00000000000E+00 0. -1.
         -4    1    6    6    0  503  0.10074433617E+03  0.20761482612E+03  0.18274609485E+03  0.29436282455E+03  0.00000000000E+00 0.  1.
<mgrwt>
<rscale>  0 0.15931262E+04</rscale>
<asrwt>0</asrwt>
<pdfrwt beam="1">  1        2 0.37592773E-01 0.15931262E+04</pdfrwt>
<pdfrwt beam="2">  1       -1 0.39949309E+00 0.15931262E+04</pdfrwt>
<totfact> 0.11001895E+00</totfact>
</mgrwt>
</event>
<event>
12    7  0.1900356E-007  0.3246299E+04  0.7818608E-02  0.8176696E-01
          2   -1    0    0  501    0  0.00000000000E+00  0.00000000000E+00  0.17899646386E+04  0.17899646386E+04  0.00000000000E+00 0. -1.
         -1   -1    0    0    0  501 -0.00000000000E+00 -0.00000000000E+00 -0.14718803904E+04  0.14718803904E+04  0.00000000000E+00 0.  1.
         24    2    1    2    0    0 -0.54587795867E+03 -0.18923850125E+03  0.15362710663E+04  0.16432645809E+04  0.79973355906E+02 0.  0.
        254    2    1    2    0    0  0.54587795867E+03  0.18923850125E+03 -0.12181868180E+04  0.16185804481E+04  0.89556104605E+03 0.  0.
         23    2    4    4    0    0 -0.19911669157E+02 -0.24088313996E+03 -0.79224332842E+02  0.27221011680E+03  0.96957161107E+02 0.  0.
         23    2    4    4    0    0  0.56578962782E+03  0.43012164121E+03 -0.11389624852E+04  0.13463703313E+04  0.10175950624E+03 0.  0.
          2    1    3    3  502    0 -0.49657059840E+03 -0.17173836853E+03  0.14512022825E+04  0.15433938224E+04  0.00000000000E+00 0. -1.
         -1    1    3    3    0  502 -0.49307360266E+02 -0.17500132727E+02  0.85068783758E+02  0.99870758443E+02  0.00000000000E+00 0.  1.
         13    1    5    5    0    0  0.30202478906E+02 -0.29420278070E+02 -0.21630189502E+02  0.47387842235E+02  0.00000000000E+00 0.  1.
        -13    1    5    5    0    0 -0.50114148063E+02 -0.21146286189E+03 -0.57594143340E+02  0.22482227457E+03  0.00000000000E+00 0. -1.
          3    1    6    6  503    0  0.48577020578E+03  0.38247161337E+03 -0.10441445042E+04  0.12134640389E+04  0.00000000000E+00 0. -1.
         -3    1    6    6    0  503  0.80019422044E+02  0.47650027841E+02 -0.94817980962E+02  0.13290629244E+03  0.00000000000E+00 0.  1.
<mgrwt>
<rscale>  0 0.32462987E+04</rscale>
<asrwt>0</asrwt>
<pdfrwt beam="1">  1        2 0.27537917E+00 0.32462987E+04</pdfrwt>
<pdfrwt beam="2">  1       -1 0.22644314E+00 0.32462987E+04</pdfrwt>
<totfact> 0.83157726E-01</totfact>
</mgrwt>
</event>
<event>
12    7  0.1544987E-007  0.2601753E+04  0.7818608E-02  0.8367606E-01
          2   -1    0    0  501    0  0.00000000000E+00  0.00000000000E+00  0.22466178435E+04  0.22466178435E+04  0.00000000000E+00 0. -1.
         -1   -1    0    0    0  501 -0.00000000000E+00 -0.00000000000E+00 -0.75325629720E+03  0.75325629720E+03  0.00000000000E+00 0.  1.
         24    2    1    2    0    0  0.49272598205E+03 -0.39172666838E+03  0.17644030075E+04  0.18749810691E+04  0.78786803578E+02 0.  0.
        254    2    1    2    0    0 -0.49272598205E+03  0.39172666838E+03 -0.27104146128E+03  0.11248930716E+04  0.89201584772E+03 0.  0.
         23    2    4    4    0    0 -0.30245594321E+03  0.16881286874E+02 -0.53303503124E+03  0.61977057358E+03  0.90689822606E+02 0.  0.
         23    2    4    4    0    0 -0.19027003884E+03  0.37484538150E+03  0.26199356995E+03  0.50512249797E+03  0.98976560570E+02 0.  0.
          4    1    3    3  502    0  0.44169761694E+03 -0.34543671131E+03  0.14887542038E+04  0.15908527228E+04  0.00000000000E+00 0. -1.
         -3    1    3    3    0  502  0.51028365109E+02 -0.46289957065E+02  0.27564880379E+03  0.28412834636E+03  0.00000000000E+00 0.  1.
         13    1    5    5    0    0 -0.53113298212E+02  0.37719673099E+02 -0.92496613892E+02  0.11313452067E+03  0.00000000000E+00 0.  1.
        -13    1    5    5    0    0 -0.24934264500E+03 -0.20838386225E+02 -0.44053841734E+03  0.50663605291E+03  0.00000000000E+00 0. -1.
          3    1    6    6  503    0 -0.11432956330E+03  0.21124274062E+03  0.91826218195E+02  0.25715131510E+03  0.00000000000E+00 0. -1.
         -3    1    6    6    0  503 -0.75940475537E+02  0.16360264088E+03  0.17016735176E+03  0.24797118287E+03  0.00000000000E+00 0.  1.
<mgrwt>
<rscale>  0 0.26017525E+04</rscale>
<asrwt>0</asrwt>
<pdfrwt beam="1">  1        2 0.34563351E+00 0.26017525E+04</pdfrwt>
<pdfrwt beam="2">  1       -1 0.11588559E+00 0.26017525E+04</pdfrwt>
<totfact> 0.32942666E+00</totfact>
</mgrwt>
</event>
<event>
12    7  0.1544987E-007  0.1977787E+04  0.7818608E-02  0.8617077E-01
          2   -1    0    0  501    0  0.00000000000E+00  0.00000000000E+00  0.17324551438E+04  0.17324551438E+04  0.00000000000E+00 0. -1.
         -1   -1    0    0    0  501 -0.00000000000E+00 -0.00000000000E+00 -0.56446495330E+03  0.56446495330E+03  0.00000000000E+00 0.  1.
         24    2    1    2    0    0  0.12346078063E+03 -0.44614253734E+02 -0.42451774539E+03  0.45139739210E+03  0.79443649571E+02 0.  0.
        254    2    1    2    0    0 -0.12346078063E+03  0.44614253734E+02  0.15925079359E+04  0.18455227050E+04  0.92338482380E+03 0.  0.
         23    2    4    4    0    0  0.62883835613E+02  0.31692108509E+03  0.14259979304E+04  0.14649664788E+04  0.90902891343E+02 0.  0.
         23    2    4    4    0    0 -0.18634461625E+03 -0.27230683136E+03  0.16651000549E+03  0.38055622617E+03  0.90675977733E+02 0.  0.
          2    1    3    3  502    0 -0.43599451355E+01 -0.20760684355E+02 -0.90745970515E+02  0.93192522775E+02  0.00000000000E+00 0. -1.
         -3    1    3    3    0  502  0.12782072577E+03 -0.23853569379E+02 -0.33377177487E+03  0.35820486933E+03  0.00000000000E+00 0.  1.
         13    1    5    5    0    0 -0.13318452555E+02  0.15755779008E+03  0.62085305746E+03  0.64067180159E+03  0.00000000000E+00 0. -1.
        -13    1    5    5    0    0  0.76202288168E+02  0.15936329502E+03  0.80514487294E+03  0.82429467725E+03  0.00000000000E+00 0.  1.
          3    1    6    6  503    0 -0.44238921836E+02 -0.14133680861E+03  0.59069702099E+02  0.15944405093E+03  0.00000000000E+00 0. -1.
         -3    1    6    6    0  503 -0.14210569441E+03 -0.13097002275E+03  0.10744030339E+03  0.22111217524E+03  0.00000000000E+00 0.  1.
<mgrwt>
<rscale>  0 0.19777869E+04</rscale>
<asrwt>0</asrwt>
<pdfrwt beam="1">  1        2 0.26653156E+00 0.19777869E+04</pdfrwt>
<pdfrwt beam="2">  1       -1 0.86840762E-01 0.19777869E+04</pdfrwt>
<totfact> 0.13029561E+01</totfact>
</mgrwt>
</event>
<event>
12    7  0.1544987E-007  0.2062883E+04  0.7818608E-02  0.8577772E-01
          2   -1    0    0  501    0  0.00000000000E+00  0.00000000000E+00  0.31775544813E+04  0.31775544813E+04  0.00000000000E+00 0. -1.
         -1   -1    0    0    0  501 -0.00000000000E+00 -0.00000000000E+00 -0.33480822743E+03  0.33480822743E+03  0.00000000000E+00 0.  1.
         24    2    1    2    0    0  0.36797743892E+03  0.31013463343E+03 -0.54658576895E+01  0.48821820782E+03  0.82074700343E+02 0.  0.
        254    2    1    2    0    0 -0.36797743892E+03 -0.31013463343E+03  0.28482121116E+04  0.30241445009E+04  0.89529148526E+03 0.  0.
         23    2    4    4    0    0 -0.15575247395E+03 -0.56888729215E+03  0.12062702123E+04  0.13458519943E+04  0.91313641847E+02 0.  0.
         23    2    4    4    0    0 -0.21222496497E+03  0.25875265872E+03  0.16419418993E+04  0.16782925066E+04  0.93274664432E+02 0.  0.
          4    1    3    3  502    0  0.15124847518E+03  0.15785750256E+03 -0.36079647660E+02  0.22157805246E+03  0.00000000000E+00 0. -1.
         -3    1    3    3    0  502  0.21672896374E+03  0.15227713087E+03  0.30613789970E+02  0.26664015535E+03  0.00000000000E+00 0.  1.
         13    1    5    5    0    0 -0.11364295820E+03 -0.38313582745E+03  0.71759497898E+03  0.82137101123E+03  0.00000000000E+00 0. -1.
        -13    1    5    5    0    0 -0.42109515743E+02 -0.18575146470E+03  0.48867523329E+03  0.52448098306E+03  0.00000000000E+00 0.  1.
          1    1    6    6  503    0 -0.62240616120E+02  0.14420651686E+03  0.82714064678E+03  0.84192105530E+03  0.00000000000E+00 0. -1.
         -1    1    6    6    0  503 -0.14998434885E+03  0.11454614187E+03  0.81480125251E+03  0.83637145134E+03  0.00000000000E+00 0.  1.
<mgrwt>
<rscale>  0 0.20628828E+04</rscale>
<asrwt>0</asrwt>
<pdfrwt beam="1">  1        2 0.48885452E+00 0.20628828E+04</pdfrwt>
<pdfrwt beam="2">  1       -1 0.51508960E-01 0.20628828E+04</pdfrwt>
<totfact> 0.53656247E+00</totfact>
</mgrwt>
</event>
<event>
12    7  0.1544987E-007  0.1145132E+04  0.7818608E-02  0.9162286E-01
         -1   -1    0    0    0  501 -0.00000000000E+00  0.00000000000E+00  0.39850439543E+03  0.39850439543E+03  0.00000000000E+00 0.  1.
          2   -1    0    0  501    0  0.00000000000E+00 -0.00000000000E+00 -0.82265538409E+03  0.82265538409E+03  0.00000000000E+00 0. -1.
         24    2    1    2    0    0  0.19020595520E+03 -0.78210479929E+02 -0.12144815749E+03  0.25154145392E+03  0.78919348197E+02 0.  0.
        254    2    1    2    0    0 -0.19020595520E+03  0.78210479929E+02 -0.30270283117E+03  0.96961832559E+03  0.89790618038E+03 0.  0.
         23    2    4    4    0    0  0.14916488575E+03  0.69555391602E+02 -0.52190518755E+03  0.55504842645E+03  0.92766455546E+02 0.  0.
         23    2    4    4    0    0 -0.33937084095E+03  0.86550883278E+01  0.21920235639E+03  0.41456989914E+03  0.92579965375E+02 0.  0.
          2    1    3    3  502    0  0.12130270924E+02 -0.23000703606E+02 -0.40858304094E+02  0.48431155804E+02  0.00000000000E+00 0. -1.
         -1    1    3    3    0  502  0.17807568427E+03 -0.55209776324E+02 -0.80589853398E+02  0.20311029812E+03  0.00000000000E+00 0.  1.
         13    1    5    5    0    0  0.17605303184E+02  0.31682088099E+02 -0.39570166008E+02  0.53660967606E+02  0.00000000000E+00 0. -1.
        -13    1    5    5    0    0  0.13155958257E+03  0.37873303503E+02 -0.48233502154E+03  0.50138745885E+03  0.00000000000E+00 0.  1.
          2    1    6    6  503    0 -0.11929580253E+03  0.40082161964E+02  0.50958930758E+02  0.13577511124E+03  0.00000000000E+00 0.  1.
         -2    1    6    6    0  503 -0.22007503842E+03 -0.31427073637E+02  0.16824342563E+03  0.27879478790E+03  0.00000000000E+00 0. -1.
<mgrwt>
<rscale>  0 0.11451319E+04</rscale>
<asrwt>0</asrwt>
<pdfrwt beam="1">  1        2 0.12656237E+00 0.11451319E+04</pdfrwt>
<pdfrwt beam="2">  1       -1 0.61308369E-01 0.11451319E+04</pdfrwt>
<totfact> 0.10120020E+02</totfact>
</mgrwt>
</event>
<event>
12    7  0.1544987E-007  0.1259530E+04  0.7818608E-02  0.9062289E-01
         -1   -1    0    0    0  501 -0.00000000000E+00  0.00000000000E+00  0.37245483737E+03  0.37245483737E+03  0.00000000000E+00 0.  1.
          2   -1    0    0  501    0  0.00000000000E+00 -0.00000000000E+00 -0.10648370974E+04  0.10648370974E+04  0.00000000000E+00 0. -1.
         24    2    1    2    0    0  0.20532584458E+03 -0.12382264283E+03 -0.25031393573E+02  0.25417056894E+03  0.80531721194E+02 0.  0.
        254    2    1    2    0    0 -0.20532584458E+03  0.12382264283E+03 -0.66735086646E+03  0.11831213658E+04  0.94706295355E+03 0.  0.
         23    2    4    4    0    0  0.12903457025E+03  0.15292679611E+03  0.16869339806E+03  0.27756131558E+03  0.92446179326E+02 0.  0.
         23    2    4    4    0    0 -0.33436041483E+03 -0.29104153280E+02 -0.83604426452E+03  0.90556005024E+03  0.91788090850E+02 0.  0.
          2    1    3    3  502    0  0.35577408032E+01 -0.10499974268E+02  0.15679511081E+02  0.19202969744E+02  0.00000000000E+00 0. -1.
         -1    1    3    3    0  502  0.20176810378E+03 -0.11332266857E+03 -0.40710904654E+02  0.23496759919E+03  0.00000000000E+00 0.  1.
         13    1    5    5    0    0 -0.71230298609E+01  0.35006710692E+02  0.51472729708E+02  0.62655001807E+02  0.00000000000E+00 0.  1.
        -13    1    5    5    0    0  0.13615760011E+03  0.11792008542E+03  0.11722066835E+03  0.21490631378E+03  0.00000000000E+00 0. -1.
          1    1    6    6  503    0 -0.94844437346E+02  0.42707100042E+01 -0.14401375821E+03  0.17249251814E+03  0.00000000000E+00 0. -1.
         -1    1    6    6    0  503 -0.23951597748E+03 -0.33374863284E+02 -0.69203050631E+03  0.73306753211E+03  0.00000000000E+00 0.  1.
<mgrwt>
<rscale>  0 0.12595296E+04</rscale>
<asrwt>0</asrwt>
<pdfrwt beam="1">  1        2 0.16382109E+00 0.12595296E+04</pdfrwt>
<pdfrwt beam="2">  1       -1 0.57300745E-01 0.12595296E+04</pdfrwt>
<totfact> 0.79207576E+01</totfact>
</mgrwt>
</event>
<event>
12    7  0.1544987E-007  0.1376092E+04  0.7818608E-02  0.8971309E-01
          2   -1    0    0  501    0  0.00000000000E+00  0.00000000000E+00  0.10013339706E+04  0.10013339706E+04  0.00000000000E+00 0. -1.
         -1   -1    0    0    0  501 -0.00000000000E+00 -0.00000000000E+00 -0.47277637669E+03  0.47277637669E+03  0.00000000000E+00 0.  1.
         24    2    1    2    0    0 -0.86287965333E+02 -0.34412685983E+03  0.32093208647E+03  0.48360948274E+03  0.70794202103E+02 0.  0.
        254    2    1    2    0    0  0.86287965333E+02  0.34412685983E+03  0.20762550740E+03  0.99050086451E+03  0.90117406901E+03 0.  0.
         23    2    4    4    0    0  0.11762864852E+03  0.55775728259E+03 -0.11689426213E+03  0.59009696527E+03  0.98084018405E+02 0.  0.
         23    2    4    4    0    0 -0.31340683191E+02 -0.21363042275E+03  0.32451976953E+03  0.40040389924E+03  0.91596974644E+02 0.  0.
          2    1    3    3  502    0 -0.70362815047E+02 -0.33323700375E+03  0.31359696000E+03  0.46296963154E+03  0.00000000000E+00 0. -1.
         -1    1    3    3    0  502 -0.15925150286E+02 -0.10889856080E+02  0.73351264705E+01  0.20639851196E+02  0.00000000000E+00 0.  1.
         13    1    5    5    0    0  0.83882328883E+02  0.47389458765E+03 -0.64368113774E+02  0.48554668094E+03  0.00000000000E+00 0. -1.
        -13    1    5    5    0    0  0.33746319640E+02  0.83862694936E+02 -0.52526148356E+02  0.10455028432E+03  0.00000000000E+00 0.  1.
          1    1    6    6  503    0  0.16764958810E+02 -0.12096613856E+03  0.12236112892E+03  0.17287601451E+03  0.00000000000E+00 0. -1.
         -1    1    6    6    0  503 -0.48105642001E+02 -0.92664284191E+02  0.20215864061E+03  0.22752788473E+03  0.00000000000E+00 0.  1.
<mgrwt>
<rscale>  0 0.13760916E+04</rscale>
<asrwt>0</asrwt>
<pdfrwt beam="1">  1        2 0.15405138E+00 0.13760916E+04</pdfrwt>
<pdfrwt beam="2">  1       -1 0.72734828E-01 0.13760916E+04</pdfrwt>
<totfact> 0.53308102E+01</totfact>
</mgrwt>
</event>
<event>
12    7  0.1544987E-007  0.2049667E+04  0.7818608E-02  0.8583745E-01
         -1   -1    0    0    0  501 -0.00000000000E+00  0.00000000000E+00  0.11024807415E+04  0.11024807415E+04  0.00000000000E+00 0.  1.
          2   -1    0    0  501    0  0.00000000000E+00 -0.00000000000E+00 -0.95265538456E+03  0.95265538456E+03  0.00000000000E+00 0. -1.
         24    2    1    2    0    0 -0.68360412197E+03 -0.12464532988E+02 -0.40134190005E+03  0.79697199971E+03  0.81357774273E+02 0.  0.
        254    2    1    2    0    0  0.68360412197E+03  0.12464532988E+02  0.55116725695E+03  0.12581641263E+04  0.90095597198E+03 0.  0.
         23    2    4    4    0    0 -0.15813337565E+03  0.68216855248E+02  0.32761106459E+03  0.38095279624E+03  0.90201549225E+02 0.  0.
         23    2    4    4    0    0  0.84173749761E+03 -0.55752322260E+02  0.22355619236E+03  0.87721133008E+03  0.88836986377E+02 0.  0.
          2    1    3    3  502    0 -0.45194264418E+03 -0.46581891170E+02 -0.26056453322E+03  0.52375175626E+03  0.00000000000E+00 0. -1.
         -1    1    3    3    0  502 -0.23166147778E+03  0.34117358182E+02 -0.14077736682E+03  0.27322024345E+03  0.00000000000E+00 0.  1.
         13    1    5    5    0    0 -0.15476037896E+03  0.37032494448E+02  0.24061461921E+03  0.28847456650E+03  0.00000000000E+00 0.  1.
        -13    1    5    5    0    0 -0.33729966848E+01  0.31184360800E+02  0.86996445386E+02  0.92478229735E+02  0.00000000000E+00 0. -1.
          3    1    6    6  503    0  0.35062058918E+03  0.18252024708E+02  0.10729183272E+03  0.36712323725E+03  0.00000000000E+00 0. -1.
         -3    1    6    6    0  503  0.49111690843E+03 -0.74004346968E+02  0.11626435965E+03  0.51008809283E+03  0.00000000000E+00 0.  1.
<mgrwt>
<rscale>  0 0.20496675E+04</rscale>
<asrwt>0</asrwt>
<pdfrwt beam="1">  1        2 0.14656237E+00 0.20496675E+04</pdfrwt>
<pdfrwt beam="2">  1       -1 0.16961242E+00 0.20496675E+04</pdfrwt>
<totfact> 0.70699701E+00</totfact>
</mgrwt>
</event>
<event>
12    7  0.1544987E-007  0.2193686E+04  0.7818608E-02  0.8521061E-01
         -1   -1    0    0    0  501 -0.00000000000E+00  0.00000000000E+00  0.10286713798E+04  0.10286713798E+04  0.00000000000E+00 0.  1.
          2   -1    0    0  501    0  0.00000000000E+00 -0.00000000000E+00 -0.11695322855E+04  0.11695322855E+04  0.00000000000E+00 0. -1.
         24    2    1    2    0    0 -0.86147974977E+03  0.26959952364E+03  0.32162487523E+02  0.90683952481E+03  0.80574411282E+02 0.  0.
        254    2    1    2    0    0  0.86147974977E+03 -0.26959952364E+03 -0.17302339331E+03  0.12913641405E+04  0.90711244414E+03 0.  0.
         23    2    4    4    0    0  0.39021757760E+03  0.31945958493E+03 -0.21028613448E+01  0.51244989777E+03  0.90974125031E+02 0.  0.
         23    2    4    4    0    0  0.47126217217E+03 -0.58905910857E+03 -0.17092053196E+03  0.77891424273E+03  0.91732769375E+02 0.  0.
          2    1    3    3  502    0 -0.50436746806E+03  0.12578624820E+03  0.44002317882E+02  0.52167511638E+03  0.00000000000E+00 0. -1.
         -1    1    3    3    0  502 -0.35711228171E+03  0.14381327544E+03 -0.11839830359E+02  0.38516440843E+03  0.00000000000E+00 0.  1.
         13    1    5    5    0    0  0.36873798007E+03  0.30899429389E+03 -0.21657422933E+02  0.48157472480E+03  0.00000000000E+00 0. -1.
        -13    1    5    5    0    0  0.21479597532E+02  0.10465291040E+02  0.19554561588E+02  0.30875172965E+02  0.00000000000E+00 0.  1.
          2    1    6    6  503    0  0.39147776490E+03 -0.48146302652E+03 -0.10403399329E+03  0.62919357758E+03  0.00000000000E+00 0. -1.
         -2    1    6    6    0  503  0.79784407270E+02 -0.10759608205E+03 -0.66886538672E+02  0.14972066514E+03  0.00000000000E+00 0.  1.
<mgrwt>
<rscale>  0 0.21936858E+04</rscale>
<asrwt>0</asrwt>
<pdfrwt beam="1">  1        2 0.17992804E+00 0.21936858E+04</pdfrwt>
<pdfrwt beam="2">  1       -1 0.15825713E+00 0.21936858E+04</pdfrwt>
<totfact> 0.62066152E+00</totfact>
</mgrwt>
</event>
<event>
12    7  0.1544987E-007  0.2160373E+04  0.7818608E-02  0.8535105E-01
         -1   -1    0    0    0  501 -0.00000000000E+00  0.00000000000E+00  0.10161616621E+04  0.10161616621E+04  0.00000000000E+00 0.  1.
          2   -1    0    0  501    0  0.00000000000E+00 -0.00000000000E+00 -0.11482456979E+04  0.11482456979E+04  0.00000000000E+00 0. -1.
         24    2    1    2    0    0  0.75869968551E+03  0.38028698999E+03  0.89145206710E+02  0.85747612931E+03  0.84113238577E+02 0.  0.
        254    2    1    2    0    0 -0.75869968551E+03 -0.38028698999E+03 -0.22122924248E+03  0.13069312307E+04  0.96895998703E+03 0.  0.
         23    2    4    4    0    0 -0.92733638444E+03 -0.88967395245E+02 -0.11577241138E+03  0.94271717133E+03  0.86281206296E+02 0.  0.
         23    2    4    4    0    0  0.16863669893E+03 -0.29131959474E+03 -0.10545683110E+03  0.36421405935E+03  0.90693413737E+02 0.  0.
          2    1    3    3  502    0  0.77008685631E+02  0.66237483928E+02  0.21953487714E+02  0.10392159334E+03  0.00000000000E+00 0. -1.
         -1    1    3    3    0  502  0.68169099988E+03  0.31404950606E+03  0.67191718996E+02  0.75355453597E+03  0.00000000000E+00 0.  1.
         13    1    5    5    0    0 -0.45096969844E+03 -0.51463096663E+01 -0.35239926727E+02  0.45237374575E+03  0.00000000000E+00 0. -1.
        -13    1    5    5    0    0 -0.47636668601E+03 -0.83821085579E+02 -0.80532484652E+02  0.49034342558E+03  0.00000000000E+00 0.  1.
          4    1    6    6  503    0  0.68549974769E+02 -0.18356049062E+03 -0.27811607385E+02  0.19790664027E+03  0.00000000000E+00 0. -1.
         -4    1    6    6    0  503  0.10008672416E+03 -0.10775910412E+03 -0.77645223717E+02  0.16630741908E+03  0.00000000000E+00 0.  1.
<mgrwt>
<rscale>  0 0.21603734E+04</rscale>
<asrwt>0</asrwt>
<pdfrwt beam="1">  1        2 0.17665318E+00 0.21603734E+04</pdfrwt>
<pdfrwt beam="2">  1       -1 0.15633256E+00 0.21603734E+04</pdfrwt>
<totfact> 0.66327667E+00</totfact>
</mgrwt>
</event>
<event>
12    7  0.1544987E-007  0.1084398E+04  0.7818608E-02  0.9220534E-01
          2   -1    0    0  501    0  0.00000000000E+00  0.00000000000E+00  0.17690020409E+04  0.17690020409E+04  0.00000000000E+00 0. -1.
         -1   -1    0    0    0  501 -0.00000000000E+00 -0.00000000000E+00 -0.16618384661E+03  0.16618384661E+03  0.00000000000E+00 0.  1.
         24    2    1    2    0    0  0.67743859370E+02 -0.40063454159E+02  0.30372709223E+02  0.11449740938E+03  0.77413464253E+02 0.  0.
        254    2    1    2    0    0 -0.67743859370E+02  0.40063454159E+02  0.15724454850E+04  0.18206884781E+04  0.91440003283E+03 0.  0.
         23    2    4    4    0    0 -0.55273830738E+01  0.72714287965E+02 -0.93839239554E+02  0.15036600127E+03  0.92120637319E+02 0.  0.
         23    2    4    4    0    0 -0.62216476296E+02 -0.32650833806E+02  0.16662847246E+04  0.16703224768E+04  0.92387371085E+02 0.  0.
          2    1    3    3  502    0 -0.27665620725E+01  0.17823602557E+02 -0.89531086566E+00  0.18059242934E+02  0.00000000000E+00 0. -1.
         -1    1    3    3    0  502  0.70510421443E+02 -0.57887056715E+02  0.31268020089E+02  0.96438166446E+02  0.00000000000E+00 0.  1.
         13    1    5    5    0    0  0.19452132130E+02  0.35804330910E+02 -0.97475783497E+02  0.10564972279E+03  0.00000000000E+00 0. -1.
        -13    1    5    5    0    0 -0.24979515204E+02  0.36909957055E+02  0.36365439434E+01  0.44716278484E+02  0.00000000000E+00 0.  1.
          1    1    6    6  503    0 -0.81967526552E+02 -0.40840507156E+02  0.14764508921E+04  0.14792882948E+04  0.00000000000E+00 0. -1.
         -1    1    6    6    0  503  0.19751050255E+02  0.81896733501E+01  0.18983383248E+03  0.19103418200E+03  0.00000000000E+00 0.  1.
<mgrwt>
<rscale>  0 0.10843976E+04</rscale>
<asrwt>0</asrwt>
<pdfrwt beam="1">  1        2 0.27215415E+00 0.10843976E+04</pdfrwt>
<pdfrwt beam="2">  1       -1 0.25566747E-01 0.10843976E+04</pdfrwt>
<totfact> 0.13704448E+02</totfact>
</mgrwt>
</event>
<event>
12    7  0.1544987E-007  0.3089218E+04  0.7818608E-02  0.8218703E-01
         -1   -1    0    0    0  501 -0.00000000000E+00  0.00000000000E+00  0.86745377129E+03  0.86745377129E+03  0.00000000000E+00 0.  1.
          2   -1    0    0  501    0  0.00000000000E+00 -0.00000000000E+00 -0.27503680114E+04  0.27503680114E+04  0.00000000000E+00 0. -1.
         24    2    1    2    0    0 -0.11630923946E+04  0.77178786355E+03 -0.59044373727E+03  0.15169990510E+04  0.64976066919E+02 0.  0.
        254    2    1    2    0    0  0.11630923946E+04 -0.77178786355E+03 -0.12924705029E+04  0.21008227317E+04  0.89136733430E+03 0.  0.
         23    2    4    4    0    0  0.21342500059E+03  0.19115561355E+03 -0.21110731877E+03  0.36679742148E+03  0.88788224991E+02 0.  0.
         23    2    4    4    0    0  0.94966739398E+03 -0.96294347710E+03 -0.10813631841E+04  0.17340253102E+04  0.91483011171E+02 0.  0.
          2    1    3    3  502    0 -0.10477881657E+04  0.70700364453E+03 -0.51638772873E+03  0.13654195252E+04  0.00000000000E+00 0. -1.
         -1    1    3    3    0  502 -0.11530422887E+03  0.64784219013E+02 -0.74056008543E+02  0.15157952576E+03  0.00000000000E+00 0.  1.
         13    1    5    5    0    0  0.74701808536E+02  0.85047383195E+02 -0.34311806343E+02  0.11828236403E+03  0.00000000000E+00 0.  1.
        -13    1    5    5    0    0  0.13872319205E+03  0.10610823035E+03 -0.17679551243E+03  0.24851505745E+03  0.00000000000E+00 0. -1.
          3    1    6    6  503    0  0.84394119179E+03 -0.83770929278E+03 -0.98350525716E+03  0.15431384206E+04  0.00000000000E+00 0. -1.
         -3    1    6    6    0  503  0.10572620218E+03 -0.12523418431E+03 -0.97857926917E+02  0.19088688957E+03  0.00000000000E+00 0.  1.
<mgrwt>
<rscale>  0 0.30892181E+04</rscale>
<asrwt>0</asrwt>
<pdfrwt beam="1">  1        2 0.42313354E+00 0.30892181E+04</pdfrwt>
<pdfrwt beam="2">  1       -1 0.13345443E+00 0.30892181E+04</pdfrwt>
<totfact> 0.11343879E+00</totfact>
</mgrwt>
</event>
<event>
12    7  0.1544987E-007  0.1975510E+04  0.7818608E-02  0.8618157E-01
         -1   -1    0    0    0  501 -0.00000000000E+00  0.00000000000E+00  0.14842030002E+04  0.14842030002E+04  0.00000000000E+00 0.  1.
          2   -1    0    0  501    0  0.00000000000E+00 -0.00000000000E+00 -0.65736265005E+03  0.65736265005E+03  0.00000000000E+00 0. -1.
         24    2    1    2    0    0  0.65669621377E+03  0.39711293895E+03  0.17860468048E+03  0.79293823257E+03  0.88897723914E+02 0.  0.
        254    2    1    2    0    0 -0.65669621377E+03 -0.39711293895E+03  0.64823566971E+03  0.13486274177E+04  0.89979876912E+03 0.  0.
         23    2    4    4    0    0  0.31653186387E+02  0.92413548998E+02  0.46058367039E+03  0.47853579486E+03  0.85539472129E+02 0.  0.
         23    2    4    4    0    0 -0.68834940016E+03 -0.48952648795E+03  0.18765199932E+03  0.87009162287E+03  0.91570083727E+02 0.  0.
          2    1    3    3  502    0  0.31593920208E+03  0.16386933103E+03  0.44013015212E+02  0.35861941187E+03  0.00000000000E+00 0. -1.
         -1    1    3    3    0  502  0.34075701169E+03  0.23324360792E+03  0.13459166527E+03  0.43431882069E+03  0.00000000000E+00 0.  1.
         13    1    5    5    0    0 -0.16425713227E+01  0.93457712430E+02  0.38023109350E+03  0.39155169074E+03  0.00000000000E+00 0. -1.
        -13    1    5    5    0    0  0.33295757710E+02 -0.10441634319E+01  0.80352576886E+02  0.86984104128E+02  0.00000000000E+00 0.  1.
          3    1    6    6  503    0 -0.43381234811E+03 -0.35786250829E+03  0.14063021413E+03  0.57968576430E+03  0.00000000000E+00 0. -1.
         -3    1    6    6    0  503 -0.25453705205E+03 -0.13166397966E+03  0.47021785189E+02  0.29040585856E+03  0.00000000000E+00 0.  1.
<mgrwt>
<rscale>  0 0.19755097E+04</rscale>
<asrwt>0</asrwt>
<pdfrwt beam="1">  1        2 0.10113272E+00 0.19755097E+04</pdfrwt>
<pdfrwt beam="2">  1       -1 0.22833892E+00 0.19755097E+04</pdfrwt>
<totfact> 0.45622049E+00</totfact>
</mgrwt>
</event>
<event>
12    7  0.1544987E-007  0.1126030E+04  0.7818608E-02  0.9180186E-01
         -1   -1    0    0    0  501 -0.00000000000E+00  0.00000000000E+00  0.12097851147E+03  0.12097851147E+03  0.00000000000E+00 0.  1.
          2   -1    0    0  501    0  0.00000000000E+00 -0.00000000000E+00 -0.26201822287E+04  0.26201822287E+04  0.00000000000E+00 0. -1.
         24    2    1    2    0    0  0.13716911518E+02  0.17462602257E+03 -0.33513586634E+03  0.38641694486E+03  0.79495942967E+02 0.  0.
        254    2    1    2    0    0 -0.13716911518E+02 -0.17462602257E+03 -0.21640678509E+04  0.23547437954E+04  0.91156254690E+03 0.  0.
         23    2    4    4    0    0  0.43596811451E+02 -0.48421843614E+03 -0.71648163883E+03  0.87066120446E+03  0.91306178888E+02 0.  0.
         23    2    4    4    0    0 -0.57313722968E+02  0.30959241357E+03 -0.14475862121E+04  0.14840825909E+04  0.88673388134E+02 0.  0.
          2    1    3    3  502    0  0.32240330052E+02  0.15459507923E+03 -0.31545587739E+03  0.35277682461E+03  0.00000000000E+00 0. -1.
         -3    1    3    3    0  502 -0.18523418534E+02  0.20030943337E+02 -0.19679988950E+02  0.33640120247E+02  0.00000000000E+00 0.  1.
         13    1    5    5    0    0  0.14986224541E+01 -0.37100439097E+03 -0.57886644852E+03  0.68755572081E+03  0.00000000000E+00 0. -1.
        -13    1    5    5    0    0  0.42098188997E+02 -0.11321404517E+03 -0.13761519031E+03  0.18310548365E+03  0.00000000000E+00 0.  1.
          3    1    6    6  503    0  0.11100766225E+01  0.21613008152E+03 -0.10050659459E+04  0.10280423143E+04  0.00000000000E+00 0. -1.
         -3    1    6    6    0  503 -0.58423799591E+02  0.93462332051E+02 -0.44252026621E+03  0.45604027659E+03  0.00000000000E+00 0.  1.
<mgrwt>
<rscale>  0 0.11260297E+04</rscale>
<asrwt>0</asrwt>
<pdfrwt beam="1">  1        2 0.40310489E+00 0.11260297E+04</pdfrwt>
<pdfrwt beam="2">  1       -1 0.18612082E-01 0.11260297E+04</pdfrwt>
<totfact> 0.77903028E+01</totfact>
</mgrwt>
</event>
<event>
12    7  0.1544987E-007  0.1865216E+04  0.7818608E-02  0.8672367E-01
         -1   -1    0    0    0  501 -0.00000000000E+00  0.00000000000E+00  0.10201628556E+04  0.10201628556E+04  0.00000000000E+00 0.  1.
          2   -1    0    0  501    0  0.00000000000E+00 -0.00000000000E+00 -0.85256712271E+03  0.85256712271E+03  0.00000000000E+00 0. -1.
         24    2    1    2    0    0  0.63962927001E+03 -0.58198048116E+02  0.37378807503E+03  0.74743893591E+03  0.80217342380E+02 0.  0.
        254    2    1    2    0    0 -0.63962927001E+03  0.58198048116E+02 -0.20619234211E+03  0.11252910424E+04  0.90069530495E+03 0.  0.
         23    2    4    4    0    0  0.13660700821E+03  0.15478845311E+03  0.13969912103E+03  0.26541116720E+03  0.91138923344E+02 0.  0.
         23    2    4    4    0    0 -0.77623627823E+03 -0.96590404997E+02 -0.34589146313E+03  0.85987987523E+03  0.88769530740E+02 0.  0.
          2    1    3    3  502    0  0.58223752951E+03 -0.52479239325E+02  0.36476024760E+03  0.68906070092E+03  0.00000000000E+00 0. -1.
         -3    1    3    3    0  502  0.57391740507E+02 -0.57188087910E+01  0.90278274324E+01  0.58378234990E+02  0.00000000000E+00 0.  1.
         13    1    5    5    0    0  0.40168674286E+02  0.20364895135E+01  0.59914567755E+01  0.40664077978E+02  0.00000000000E+00 0.  1.
        -13    1    5    5    0    0  0.96438333926E+02  0.15275196360E+03  0.13370766425E+03  0.22474708922E+03  0.00000000000E+00 0. -1.
          3    1    6    6  503    0 -0.50433223279E+03 -0.88186897235E+02 -0.26247243860E+03  0.57534312449E+03  0.00000000000E+00 0. -1.
         -3    1    6    6    0  503 -0.27190404544E+03 -0.84035077625E+01 -0.83419024529E+02  0.28453675074E+03  0.00000000000E+00 0.  1.
<mgrwt>
<rscale>  0 0.18652156E+04</rscale>
<asrwt>0</asrwt>
<pdfrwt beam="1">  1        2 0.13116417E+00 0.18652156E+04</pdfrwt>
<pdfrwt beam="2">  1       -1 0.15694813E+00 0.18652156E+04</pdfrwt>
<totfact> 0.10445648E+01</totfact>
</mgrwt>
</event>
<event>
12    7  0.1544987E-007  0.1639978E+04  0.7818608E-02  0.8796358E-01
          2   -1    0    0  501    0  0.00000000000E+00  0.00000000000E+00  0.12916947916E+04  0.12916947916E+04  0.00000000000E+00 0. -1.
         -1   -1    0    0    0  501 -0.00000000000E+00 -0.00000000000E+00 -0.52054236205E+03  0.52054236205E+03  0.00000000000E+00 0.  1.
         24    2    1    2    0    0 -0.35516939763E+03  0.15600289669E+02 -0.22078246975E+03  0.42562945286E+03  0.77632867692E+02 0.  0.
        254    2    1    2    0    0  0.35516939763E+03 -0.15600289669E+02  0.99193489930E+03  0.13866077008E+04  0.90130871592E+03 0.  0.
         23    2    4    4    0    0  0.14016172029E+03 -0.44639301950E+03  0.46002501580E+03  0.66374666245E+03  0.10012282988E+03 0.  0.
         23    2    4    4    0    0  0.21500767734E+03  0.43079272983E+03  0.53190988350E+03  0.72286103834E+03  0.88256893219E+02 0.  0.
          4    1    3    3  502    0 -0.15981670493E+03 -0.27185386617E+02 -0.11994975356E+03  0.20166399728E+03  0.00000000000E+00 0. -1.
         -3    1    3    3    0  502 -0.19535269270E+03  0.42785676286E+02 -0.10083271619E+03  0.22396545559E+03  0.00000000000E+00 0.  1.
         13    1    5    5    0    0  0.26807867244E+02 -0.26444991127E+02  0.70143404870E+02  0.79612163321E+02  0.00000000000E+00 0. -1.
        -13    1    5    5    0    0  0.11335385304E+03 -0.41994802837E+03  0.38988161093E+03  0.58413449913E+03  0.00000000000E+00 0.  1.
          2    1    6    6  503    0  0.39654327325E+02  0.70335090309E+02  0.45915273494E+02  0.92885429129E+02  0.00000000000E+00 0. -1.
         -2    1    6    6    0  503  0.17535335002E+03  0.36045763952E+03  0.48599461001E+03  0.62997560922E+03  0.00000000000E+00 0.  1.
<mgrwt>
<rscale>  0 0.16399779E+04</rscale>
<asrwt>0</asrwt>
<pdfrwt beam="1">  1        2 0.19872227E+00 0.16399779E+04</pdfrwt>
<pdfrwt beam="2">  1       -1 0.80083441E-01 0.16399779E+04</pdfrwt>
<totfact> 0.28358981E+01</totfact>
</mgrwt>
</event>
<event>
12    7  0.1544987E-007  0.1603004E+04  0.7818608E-02  0.8818705E-01
          2   -1    0    0  501    0  0.00000000000E+00  0.00000000000E+00  0.23330022401E+04  0.23330022401E+04  0.00000000000E+00 0. -1.
         -1   -1    0    0    0  501 -0.00000000000E+00 -0.00000000000E+00 -0.27535566330E+03  0.27535566330E+03  0.00000000000E+00 0.  1.
         24    2    1    2    0    0  0.35942937933E+03  0.17141916145E+03  0.13113413973E+04  0.13740920099E+04  0.99692446660E+02 0.  0.
        254    2    1    2    0    0 -0.35942937933E+03 -0.17141916145E+03  0.74630517955E+03  0.12342658935E+04  0.89881414495E+03 0.  0.
         23    2    4    4    0    0  0.10826819686E+03 -0.40684138444E+03  0.20797345002E+03  0.47772865619E+03  0.87919272571E+02 0.  0.
         23    2    4    4    0    0 -0.46769757619E+03  0.23542222299E+03  0.53833172953E+03  0.75653723729E+03  0.91558148416E+02 0.  0.
          2    1    3    3  502    0  0.26450567720E+03  0.17208697671E+03  0.10025900846E+04  0.10510775702E+04  0.00000000000E+00 0. -1.
         -3    1    3    3    0  502  0.94923702128E+02 -0.66781525841E+00  0.30875131263E+03  0.32301443969E+03  0.00000000000E+00 0.  1.
         13    1    5    5    0    0  0.10008267445E+03 -0.40162724734E+03  0.18614558275E+03  0.45384046262E+03  0.00000000000E+00 0.  1.
        -13    1    5    5    0    0  0.81855224109E+01 -0.52141371002E+01  0.21827867266E+02  0.23888193574E+02  0.00000000000E+00 0. -1.
          2    1    6    6  503    0 -0.17760589754E+03  0.57130888898E+02  0.14495458588E+03  0.23626177278E+03  0.00000000000E+00 0. -1.
         -2    1    6    6    0  503 -0.29009167865E+03  0.17829133409E+03  0.39337714365E+03  0.52027546452E+03  0.00000000000E+00 0.  1.
<mgrwt>
<rscale>  0 0.16030039E+04</rscale>
<asrwt>0</asrwt>
<pdfrwt beam="1">  1        2 0.35892341E+00 0.16030039E+04</pdfrwt>
<pdfrwt beam="2">  1       -1 0.42362411E-01 0.16030039E+04</pdfrwt>
<totfact> 0.26011582E+01</totfact>
</mgrwt>
</event>
<event>
12    7  0.1544987E-007  0.2350171E+04  0.7818608E-02  0.8458398E-01
          2   -1    0    0  501    0  0.00000000000E+00  0.00000000000E+00  0.16603849301E+04  0.16603849301E+04  0.00000000000E+00 0. -1.
         -1   -1    0    0    0  501 -0.00000000000E+00 -0.00000000000E+00 -0.83162994403E+03  0.83162994403E+03  0.00000000000E+00 0.  1.
         24    2    1    2    0    0 -0.16012913091E+03 -0.25120506712E+03  0.13651323491E+04  0.13990826952E+04  0.71419417052E+02 0.  0.
        254    2    1    2    0    0  0.16012913091E+03  0.25120506712E+03 -0.53637736305E+03  0.10929321789E+04  0.90446379021E+03 0.  0.
         23    2    4    4    0    0 -0.26727632640E+03 -0.66839289199E+02 -0.46489586549E+03  0.54804314005E+03  0.91208510437E+02 0.  0.
         23    2    4    4    0    0  0.42740545731E+03  0.31804435632E+03 -0.71481497568E+02  0.54488903886E+03  0.89257059395E+02 0.  0.
          4    1    3    3  502    0 -0.12908238799E+03 -0.19573280459E+03  0.91870920312E+03  0.94815620738E+03  0.00000000000E+00 0. -1.
         -3    1    3    3    0  502 -0.31046742927E+02 -0.55472262529E+02  0.44642314603E+03  0.45092648787E+03  0.00000000000E+00 0.  1.
         13    1    5    5    0    0 -0.22282947252E+03 -0.57962161443E+02 -0.30685156935E+03  0.38362803807E+03  0.00000000000E+00 0. -1.
        -13    1    5    5    0    0 -0.44446853879E+02 -0.88771277563E+01 -0.15804429614E+03  0.16441510198E+03  0.00000000000E+00 0.  1.
          3    1    6    6  503    0  0.39641890158E+03  0.30584049882E+03 -0.86931520493E+02  0.50817658890E+03  0.00000000000E+00 0. -1.
         -3    1    6    6    0  503  0.30986555733E+02  0.12203857496E+02  0.15450022925E+02  0.36712449964E+02  0.00000000000E+00 0.  1.
<mgrwt>
<rscale>  0 0.23501709E+04</rscale>
<asrwt>0</asrwt>
<pdfrwt beam="1">  1        2 0.25544384E+00 0.23501709E+04</pdfrwt>
<pdfrwt beam="2">  1       -1 0.12794307E+00 0.23501709E+04</pdfrwt>
<totfact> 0.56010823E+00</totfact>
</mgrwt>
</event>
<event>
12    7  0.1544987E-007  0.1279960E+04  0.7818608E-02  0.9045610E-01
         -3   -1    0    0    0  501 -0.00000000000E+00  0.00000000000E+00  0.23305479127E+03  0.23305479127E+03  0.00000000000E+00 0.  1.
          2   -1    0    0  501    0  0.00000000000E+00 -0.00000000000E+00 -0.17574175205E+04  0.17574175205E+04  0.00000000000E+00 0. -1.
         24    2    1    2    0    0  0.13830786910E+03 -0.52087680438E+02  0.47326346357E+02  0.17522995052E+03  0.81385252919E+02 0.  0.
        254    2    1    2    0    0 -0.13830786910E+03  0.52087680438E+02 -0.15716890755E+04  0.18152423612E+04  0.89613396688E+03 0.  0.
         23    2    4    4    0    0  0.59673550326E+02  0.41639061558E+03 -0.10960846214E+04  0.11776506905E+04  0.92290705822E+02 0.  0.
         23    2    4    4    0    0 -0.19798141942E+03 -0.36430293515E+03 -0.47560445419E+03  0.63759167066E+03  0.91707527854E+02 0.  0.
          2    1    3    3  502    0  0.68940839297E+02  0.16693864231E+02  0.16964215672E+02  0.72933593352E+02  0.00000000000E+00 0. -1.
         -1    1    3    3    0  502  0.69367029800E+02 -0.68781544669E+02  0.30362130685E+02  0.10229635717E+03  0.00000000000E+00 0.  1.
         13    1    5    5    0    0  0.18117157981E+02  0.18606021124E+03 -0.61271413213E+03  0.64059756582E+03  0.00000000000E+00 0.  1.
        -13    1    5    5    0    0  0.41556392345E+02  0.23033040434E+03 -0.48337048922E+03  0.53705312471E+03  0.00000000000E+00 0. -1.
          2    1    6    6  503    0 -0.17346838387E+03 -0.35642386821E+03 -0.46100493706E+03  0.60799243912E+03  0.00000000000E+00 0. -1.
         -2    1    6    6    0  503 -0.24513035550E+02 -0.78790669393E+01 -0.14599517122E+02  0.29599231543E+02  0.00000000000E+00 0.  1.
<mgrwt>
<rscale>  0 0.12799603E+04</rscale>
<asrwt>0</asrwt>
<pdfrwt beam="1">  1        2 0.27037193E+00 0.12799603E+04</pdfrwt>
<pdfrwt beam="2">  1       -3 0.35854583E-01 0.12799603E+04</pdfrwt>
<totfact> 0.44373235E+01</totfact>
</mgrwt>
</event>
<event>
12    7  0.1544987E-007  0.1197372E+04  0.7818608E-02  0.9115160E-01
          2   -1    0    0  501    0  0.00000000000E+00  0.00000000000E+00  0.15404945920E+04  0.15404945920E+04  0.00000000000E+00 0. -1.
         -1   -1    0    0    0  501 -0.00000000000E+00 -0.00000000000E+00 -0.23266865584E+03  0.23266865584E+03  0.00000000000E+00 0.  1.
         24    2    1    2    0    0 -0.15255321298E+03 -0.11356200304E+03  0.55606814992E+03  0.59315165711E+03  0.80301243141E+02 0.  0.
        254    2    1    2    0    0  0.15255321298E+03  0.11356200304E+03  0.75175778625E+03  0.11800115907E+04  0.88944857849E+03 0.  0.
         23    2    4    4    0    0  0.25818579673E+03  0.43720405953E+03  0.27182952360E+03  0.58459582480E+03  0.10026810646E+03 0.  0.
         23    2    4    4    0    0 -0.10563258375E+03 -0.32364205649E+03  0.47992826265E+03  0.59541576595E+03  0.91029520291E+02 0.  0.
          2    1    3    3  502    0 -0.15187469661E+03 -0.99770540525E+02  0.54757905409E+03  0.57694272221E+03  0.00000000000E+00 0. -1.
         -1    1    3    3    0  502 -0.67851636966E+00 -0.13791462510E+02  0.84890958284E+01  0.16208934901E+02  0.00000000000E+00 0.  1.
         13    1    5    5    0    0  0.66865365013E+01  0.75340695716E+02  0.54604933230E+02  0.93287882034E+02  0.00000000000E+00 0.  1.
        -13    1    5    5    0    0  0.25149926023E+03  0.36186336381E+03  0.21722459037E+03  0.49130794277E+03  0.00000000000E+00 0. -1.
          4    1    6    6  503    0 -0.11677774281E+02 -0.12818087123E+02  0.17782076341E+01  0.17430886152E+02  0.00000000000E+00 0.  1.
         -4    1    6    6    0  503 -0.93954809474E+02 -0.31082396937E+03  0.47815005502E+03  0.57798487979E+03  0.00000000000E+00 0. -1.
<mgrwt>
<rscale>  0 0.11973718E+04</rscale>
<asrwt>0</asrwt>
<pdfrwt beam="1">  1        2 0.23699916E+00 0.11973718E+04</pdfrwt>
<pdfrwt beam="2">  1       -1 0.35795179E-01 0.11973718E+04</pdfrwt>
<totfact> 0.10088108E+02</totfact>
</mgrwt>
</event>
<event>
12    7  0.1544987E-007  0.1160357E+04  0.7818608E-02  0.9148282E-01
          2   -1    0    0  501    0  0.00000000000E+00  0.00000000000E+00  0.11616817732E+04  0.11616817732E+04  0.00000000000E+00 0. -1.
         -1   -1    0    0    0  501 -0.00000000000E+00 -0.00000000000E+00 -0.28975832931E+03  0.28975832931E+03  0.00000000000E+00 0.  1.
         24    2    1    2    0    0 -0.14450928328E+03 -0.80986929776E+02 -0.14676273370E+01  0.18494857847E+03  0.82231423422E+02 0.  0.
        254    2    1    2    0    0  0.14450928328E+03  0.80986929776E+02  0.87339107128E+03  0.12664915241E+04  0.90207926561E+03 0.  0.
         23    2    4    4    0    0  0.28075605497E+03 -0.12023470149E+03 -0.36369599541E+02  0.32041131310E+03  0.89779262315E+02 0.  0.
         23    2    4    4    0    0 -0.13624677169E+03  0.20122163127E+03  0.90976067082E+03  0.94608021099E+03  0.91378114301E+02 0.  0.
          4    1    3    3  502    0 -0.86016454966E+02 -0.90025584334E+02  0.90217806760E+01  0.12483921213E+03  0.00000000000E+00 0. -1.
         -3    1    3    3    0  502 -0.58492828314E+02  0.90386545581E+01 -0.10489408013E+02  0.60109366332E+02  0.00000000000E+00 0.  1.
         13    1    5    5    0    0  0.28383272541E+03 -0.12580166353E+03 -0.40093454009E+02  0.31304082740E+03  0.00000000000E+00 0.  1.
        -13    1    5    5    0    0 -0.30766704412E+01  0.55669620378E+01  0.37238544679E+01  0.73704856986E+01  0.00000000000E+00 0. -1.
          2    1    6    6  503    0 -0.42241116777E+02  0.52040450160E+02  0.12588308252E+03  0.14261511443E+03  0.00000000000E+00 0. -1.
         -2    1    6    6    0  503 -0.94005654915E+02  0.14918118111E+03  0.78387758830E+03  0.80346509656E+03  0.00000000000E+00 0.  1.
<mgrwt>
<rscale>  0 0.11603568E+04</rscale>
<asrwt>0</asrwt>
<pdfrwt beam="1">  1        2 0.17872027E+00 0.11603568E+04</pdfrwt>
<pdfrwt beam="2">  1       -1 0.44578205E-01 0.11603568E+04</pdfrwt>
<totfact> 0.11221960E+02</totfact>
</mgrwt>
</event>
<event>
12    7  0.1544987E-007  0.2463956E+04  0.7818608E-02  0.8415940E-01
         -1   -1    0    0    0  501 -0.00000000000E+00  0.00000000000E+00  0.10294478015E+04  0.10294478015E+04  0.00000000000E+00 0.  1.
          2   -1    0    0  501    0  0.00000000000E+00 -0.00000000000E+00 -0.14743528739E+04  0.14743528739E+04  0.00000000000E+00 0. -1.
         24    2    1    2    0    0  0.63532746902E+03 -0.80025205110E+01 -0.10496383884E+04  0.12295144538E+04  0.79120240808E+02 0.  0.
        254    2    1    2    0    0 -0.63532746902E+03  0.80025205110E+01  0.60473331595E+03  0.12742862216E+04  0.92433649598E+03 0.  0.
         23    2    4    4    0    0 -0.54919605714E+03  0.29226789365E+03  0.39848212490E+02  0.62990443366E+03  0.90304400039E+02 0.  0.
         23    2    4    4    0    0 -0.86131411881E+02 -0.28426537314E+03  0.56488510346E+03  0.64438178790E+03  0.88922921599E+02 0.  0.
          2    1    3    3  502    0  0.42084828205E+03 -0.32002189872E+02 -0.74362280685E+03  0.85505104849E+03  0.00000000000E+00 0. -1.
         -1    1    3    3    0  502  0.21447918697E+03  0.23999669361E+02 -0.30601558156E+03  0.37446340533E+03  0.00000000000E+00 0.  1.
         13    1    5    5    0    0 -0.50825529764E+03  0.25108067579E+03  0.55936519476E+02  0.56964361451E+03  0.00000000000E+00 0.  1.
        -13    1    5    5    0    0 -0.40940759498E+02  0.41187217855E+02 -0.16088306986E+02  0.60260819150E+02  0.00000000000E+00 0. -1.
          4    1    6    6  503    0 -0.43978619982E+02 -0.33577250862E+02  0.11580491926E+03  0.12834457572E+03  0.00000000000E+00 0. -1.
         -4    1    6    6    0  503 -0.42152791898E+02 -0.25068812228E+03  0.44908018420E+03  0.51603721218E+03  0.00000000000E+00 0.  1.
<mgrwt>
<rscale>  0 0.24639556E+04</rscale>
<asrwt>0</asrwt>
<pdfrwt beam="1">  1        2 0.22682352E+00 0.24639556E+04</pdfrwt>
<pdfrwt beam="2">  1       -1 0.15837658E+00 0.24639556E+04</pdfrwt>
<totfact> 0.40212804E+00</totfact>
</mgrwt>
</event>
<event>
12    7  0.1544987E-007  0.3228266E+04  0.7818608E-02  0.8181392E-01
         -1   -1    0    0    0  501 -0.00000000000E+00  0.00000000000E+00  0.15982858917E+04  0.15982858917E+04  0.00000000000E+00 0.  1.
          2   -1    0    0  501    0  0.00000000000E+00 -0.00000000000E+00 -0.16301373464E+04  0.16301373464E+04  0.00000000000E+00 0. -1.
         24    2    1    2    0    0  0.10180336486E+03  0.10937188984E+04  0.99006360298E+03  0.14810192500E+04  0.81284235863E+02 0.  0.
        254    2    1    2    0    0 -0.10180336486E+03 -0.10937188984E+04 -0.10219150577E+04  0.17474039880E+04  0.89583779697E+03 0.  0.
         23    2    4    4    0    0 -0.21042378636E+03 -0.93735694328E+03 -0.11488829116E+04  0.15004262699E+04  0.91819595323E+02 0.  0.
         23    2    4    4    0    0  0.10862042150E+03 -0.15636195513E+03  0.12696785388E+03  0.24697771810E+03  0.92896180426E+02 0.  0.
          2    1    3    3  502    0  0.20789145981E+02  0.47124657437E+02  0.40252706142E+02  0.65369735206E+02  0.00000000000E+00 0. -1.
         -1    1    3    3    0  502  0.81014218879E+02  0.10465942410E+04  0.94981089683E+03  0.14156495148E+04  0.00000000000E+00 0.  1.
         13    1    5    5    0    0 -0.67932140841E+02 -0.33146973288E+03 -0.33860691961E+03  0.47868737772E+03  0.00000000000E+00 0.  1.
        -13    1    5    5    0    0 -0.14249164552E+03 -0.60588721040E+03 -0.81027599194E+03  0.10217388922E+04  0.00000000000E+00 0. -1.
          2    1    6    6  503    0  0.79321891537E+02 -0.16335321346E+03  0.10585343965E+03  0.21019320995E+03  0.00000000000E+00 0. -1.
         -2    1    6    6    0  503  0.29298529967E+02  0.69912583275E+01  0.21114414232E+02  0.36784508147E+02  0.00000000000E+00 0.  1.
<mgrwt>
<rscale>  0 0.32282661E+04</rscale>
<asrwt>0</asrwt>
<pdfrwt beam="1">  1        2 0.25079036E+00 0.32282661E+04</pdfrwt>
<pdfrwt beam="2">  1       -1 0.24589014E+00 0.32282661E+04</pdfrwt>
<totfact> 0.76087341E-01</totfact>
</mgrwt>
</event>
<event>
12    7  0.1544987E-007  0.2503659E+04  0.7818608E-02  0.8401683E-01
          2   -1    0    0  501    0  0.00000000000E+00  0.00000000000E+00  0.28900482171E+04  0.28900482171E+04  0.00000000000E+00 0. -1.
         -1   -1    0    0    0  501 -0.00000000000E+00 -0.00000000000E+00 -0.54223233308E+03  0.54223233308E+03  0.00000000000E+00 0.  1.
         24    2    1    2    0    0  0.39853107211E+03  0.81658636180E+03  0.20530107424E+03  0.93499890478E+03  0.80212961141E+02 0.  0.
        254    2    1    2    0    0 -0.39853107211E+03 -0.81658636180E+03  0.21425148098E+04  0.24972816454E+04  0.90576244377E+03 0.  0.
         23    2    4    4    0    0  0.38881498542E+02  0.16946993494E+03  0.26244992956E+03  0.32778363984E+03  0.91270582606E+02 0.  0.
         23    2    4    4    0    0 -0.43741257065E+03 -0.98605629674E+03  0.18800648802E+04  0.21694980055E+04  0.91874179675E+02 0.  0.
          2    1    3    3  502    0  0.15459352777E+03  0.31190800164E+03  0.11875813316E+03  0.36781687632E+03  0.00000000000E+00 0. -1.
         -1    1    3    3    0  502  0.24393754434E+03  0.50467836016E+03  0.86542941080E+02  0.56718202846E+03  0.00000000000E+00 0.  1.
         13    1    5    5    0    0 -0.24514173394E+01  0.11898861825E+03  0.21944779976E+03  0.24964302021E+03  0.00000000000E+00 0. -1.
        -13    1    5    5    0    0  0.41332915881E+02  0.50481316692E+02  0.43002129796E+02  0.78140619637E+02  0.00000000000E+00 0.  1.
          3    1    6    6  503    0 -0.20615168803E+03 -0.57682777029E+03  0.10691148907E+04  0.12321669711E+04  0.00000000000E+00 0. -1.
         -3    1    6    6    0  503 -0.23126088263E+03 -0.40922852645E+03  0.81094998952E+03  0.93733103448E+03  0.00000000000E+00 0.  1.
<mgrwt>
<rscale>  0 0.25036594E+04</rscale>
<asrwt>0</asrwt>
<pdfrwt beam="1">  1        2 0.44462279E+00 0.25036594E+04</pdfrwt>
<pdfrwt beam="2">  1       -1 0.83420361E-01 0.25036594E+04</pdfrwt>
<totfact> 0.29460020E+00</totfact>
</mgrwt>
</event>
<event>
12    7  0.1820962E-007  0.1874631E+04  0.7818608E-02  0.8667588E-01
         -1   -1    0    0    0  501 -0.00000000000E+00  0.00000000000E+00  0.11746905827E+04  0.11746905827E+04  0.00000000000E+00 0.  1.
          2   -1    0    0  501    0  0.00000000000E+00 -0.00000000000E+00 -0.74790821880E+03  0.74790821880E+03  0.00000000000E+00 0. -1.
         24    2    1    2    0    0  0.61373748273E+03  0.54684488317E+02 -0.21508458449E+03  0.65746755446E+03  0.79612283634E+02 0.  0.
        254    2    1    2    0    0 -0.61373748273E+03 -0.54684488317E+02  0.64186694842E+03  0.12651312471E+04  0.89938857113E+03 0.  0.
         23    2    4    4    0    0 -0.37020060974E+03 -0.30518035458E+02  0.84918724523E+03  0.93162172304E+03  0.93916002053E+02 0.  0.
         23    2    4    4    0    0 -0.24353687300E+03 -0.24166452859E+02 -0.20732029681E+03  0.33350952403E+03  0.91392949368E+02 0.  0.
          2    1    3    3  502    0  0.60381378281E+03  0.53034502656E+02 -0.19803056094E+03  0.63766750415E+03  0.00000000000E+00 0. -1.
         -1    1    3    3    0  502  0.99236999223E+01  0.16499856604E+01 -0.17054023553E+02  0.19800050308E+02  0.00000000000E+00 0.  1.
         13    1    5    5    0    0 -0.29156667059E+02 -0.30284225360E+02  0.98548507994E+02  0.10714034706E+03  0.00000000000E+00 0. -1.
        -13    1    5    5    0    0 -0.34104394268E+03 -0.23381009827E+00  0.75063873724E+03  0.82448137598E+03  0.00000000000E+00 0.  1.
          4    1    6    6  503    0 -0.19400727688E+02 -0.11929463259E+02  0.63080268880E+01  0.23632425430E+02  0.00000000000E+00 0. -1.
         -4    1    6    6    0  503 -0.22413614531E+03 -0.12236989599E+02 -0.21362832370E+03  0.30987709860E+03  0.00000000000E+00 0.  1.
<mgrwt>
<rscale>  0 0.18746314E+04</rscale>
<asrwt>0</asrwt>
<pdfrwt beam="1">  1        2 0.11506280E+00 0.18746314E+04</pdfrwt>
<pdfrwt beam="2">  1       -1 0.18072163E+00 0.18746314E+04</pdfrwt>
<totfact> 0.82909784E+00</totfact>
</mgrwt>
</event>
<event>
12    7  0.1544987E-007  0.1350636E+04  0.7818608E-02  0.8990347E-01
          2   -1    0    0  501    0  0.00000000000E+00  0.00000000000E+00  0.22947053767E+04  0.22947053767E+04  0.00000000000E+00 0. -1.
         -1   -1    0    0    0  501 -0.00000000000E+00 -0.00000000000E+00 -0.19874208589E+03  0.19874208589E+03  0.00000000000E+00 0.  1.
         24    2    1    2    0    0  0.22123432278E+03 -0.86219196723E+02  0.70125766664E+02  0.26026934591E+03  0.80275362408E+02 0.  0.
        254    2    1    2    0    0 -0.22123432278E+03  0.86219196723E+02  0.20258375242E+04  0.22331781167E+04  0.90922409291E+03 0.  0.
         23    2    4    4    0    0  0.17821372609E+03  0.32927697638E+03  0.48669578844E+03  0.62204917774E+03  0.99443097825E+02 0.  0.
         23    2    4    4    0    0 -0.39944804887E+03 -0.24305777966E+03  0.15391417357E+04  0.16111289390E+04  0.90240496946E+02 0.  0.
          2    1    3    3  502    0  0.11692589269E+02 -0.21885004141E+02  0.27369855307E+02  0.36942915824E+02  0.00000000000E+00 0. -1.
         -1    1    3    3    0  502  0.20954173351E+03 -0.64334192582E+02  0.42755911357E+02  0.22332643009E+03  0.00000000000E+00 0.  1.
         13    1    5    5    0    0  0.41112150289E+02  0.13845499755E+03  0.24876635474E+03  0.28765377540E+03  0.00000000000E+00 0.  1.
        -13    1    5    5    0    0  0.13710157580E+03  0.19082197883E+03  0.23792943370E+03  0.33439540235E+03  0.00000000000E+00 0. -1.
          1    1    6    6  503    0 -0.28264890240E+03 -0.21164866954E+03  0.10761897543E+04  0.11326384898E+04  0.00000000000E+00 0. -1.
         -1    1    6    6    0  503 -0.11679914647E+03 -0.31409110123E+02  0.46295198146E+03  0.47849044918E+03  0.00000000000E+00 0.  1.
<mgrwt>
<rscale>  0 0.13506362E+04</rscale>
<asrwt>0</asrwt>
<pdfrwt beam="1">  1        2 0.35303158E+00 0.13506362E+04</pdfrwt>
<pdfrwt beam="2">  1       -1 0.30575707E-01 0.13506362E+04</pdfrwt>
<totfact> 0.50239717E+01</totfact>
</mgrwt>
</event>
<event>
12    7  0.1544987E-007  0.1674619E+04  0.7818608E-02  0.8775974E-01
          2   -1    0    0  501    0  0.00000000000E+00  0.00000000000E+00  0.86786770747E+03  0.86786770747E+03  0.00000000000E+00 0. -1.
         -1   -1    0    0    0  501 -0.00000000000E+00 -0.00000000000E+00 -0.80782721921E+03  0.80782721921E+03  0.00000000000E+00 0.  1.
         24    2    1    2    0    0 -0.22976122486E+03  0.31153798964E+03  0.46726930033E+03  0.61185187673E+03  0.78587407339E+02 0.  0.
        254    2    1    2    0    0  0.22976122486E+03 -0.31153798964E+03 -0.40722881208E+03  0.10638430499E+04  0.90337178952E+03 0.  0.
         23    2    4    4    0    0  0.56346537587E+03 -0.14049162929E+03 -0.31499479894E+03  0.66681573834E+03  0.90500706248E+02 0.  0.
         23    2    4    4    0    0 -0.33370415101E+03 -0.17104636034E+03 -0.92234013137E+02  0.39702731161E+03  0.92240203802E+02 0.  0.
          2    1    3    3  502    0 -0.56424012540E+02  0.11383175640E+03  0.19991117306E+03  0.23686666095E+03  0.00000000000E+00 0. -1.
         -1    1    3    3    0  502 -0.17333721232E+03  0.19770623324E+03  0.26735812727E+03  0.37498521578E+03  0.00000000000E+00 0.  1.
         13    1    5    5    0    0  0.25381330221E+03 -0.96962319379E+02 -0.18190478959E+03  0.32697436632E+03  0.00000000000E+00 0.  1.
        -13    1    5    5    0    0  0.30965207366E+03 -0.43529309914E+02 -0.13309000936E+03  0.33984137202E+03  0.00000000000E+00 0. -1.
          1    1    6    6  503    0 -0.18665560245E+02 -0.34515307890E+02 -0.26743683592E+02  0.47486147770E+02  0.00000000000E+00 0. -1.
         -1    1    6    6    0  503 -0.31503859076E+03 -0.13653105245E+03 -0.65490329545E+02  0.34954116384E+03  0.00000000000E+00 0.  1.
<mgrwt>
<rscale>  0 0.16746189E+04</rscale>
<asrwt>0</asrwt>
<pdfrwt beam="1">  1        2 0.13351811E+00 0.16746189E+04</pdfrwt>
<pdfrwt beam="2">  1       -1 0.12428111E+00 0.16746189E+04</pdfrwt>
<totfact> 0.19059430E+01</totfact>
</mgrwt>
</event>
<event>
12    7  0.1544987E-007  0.4121110E+04  0.7818608E-02  0.7980551E-01
          2   -1    0    0  501    0  0.00000000000E+00  0.00000000000E+00  0.34032174828E+04  0.34032174828E+04  0.00000000000E+00 0. -1.
         -1   -1    0    0    0  501 -0.00000000000E+00 -0.00000000000E+00 -0.12476095816E+04  0.12476095816E+04  0.00000000000E+00 0.  1.
         24    2    1    2    0    0  0.82132090414E+03  0.17379558710E+04  0.59783907826E+03  0.20146542302E+04  0.79758802818E+02 0.  0.
        254    2    1    2    0    0 -0.82132090414E+03 -0.17379558710E+04  0.15577688229E+04  0.26361728343E+04  0.90978286955E+03 0.  0.
         23    2    4    4    0    0 -0.86555166493E+03 -0.17848931563E+04  0.13521054490E+04  0.24020000753E+04  0.79949685567E+02 0.  0.
         23    2    4    4    0    0  0.44230760790E+02  0.46937285376E+02  0.20566337392E+03  0.23417275903E+03  0.91542278447E+02 0.  0.
          2    1    3    3  502    0  0.75721281818E+03  0.16451302175E+04  0.56672428683E+03  0.18976303913E+04  0.00000000000E+00 0. -1.
         -1    1    3    3    0  502  0.64108085953E+02  0.92825653460E+02  0.31114791434E+02  0.11702383890E+03  0.00000000000E+00 0.  1.
         13    1    5    5    0    0 -0.11284363464E+03 -0.29905135059E+03  0.21177202761E+03  0.38342246654E+03  0.00000000000E+00 0. -1.
        -13    1    5    5    0    0 -0.75270803028E+03 -0.14858418057E+04  0.11403334214E+04  0.20185776087E+04  0.00000000000E+00 0.  1.
          3    1    6    6  503    0  0.51174886996E+02  0.55511070481E+02  0.87816608184E+02  0.11581064147E+03  0.00000000000E+00 0. -1.
         -3    1    6    6    0  503 -0.69441262060E+01 -0.85737851049E+01  0.11784676574E+03  0.11836211756E+03  0.00000000000E+00 0.  1.
<mgrwt>
<rscale>  0 0.41211099E+04</rscale>
<asrwt>0</asrwt>
<pdfrwt beam="1">  1        2 0.52357192E+00 0.41211099E+04</pdfrwt>
<pdfrwt beam="2">  1       -1 0.19193994E+00 0.41211099E+04</pdfrwt>
<totfact> 0.14382245E-01</totfact>
</mgrwt>
</event>
<event>
12    7  0.1544987E-007  0.2175319E+04  0.7818608E-02  0.8528772E-01
          2   -1    0    0  501    0  0.00000000000E+00  0.00000000000E+00  0.66160107276E+03  0.66160107276E+03  0.00000000000E+00 0. -1.
         -1   -1    0    0    0  501 -0.00000000000E+00 -0.00000000000E+00 -0.17880914491E+04  0.17880914491E+04  0.00000000000E+00 0.  1.
         24    2    1    2    0    0  0.49231590477E+03  0.14484985768E+03 -0.12958635350E+04  0.13965179840E+04  0.87428526018E+02 0.  0.
        254    2    1    2    0    0 -0.49231590477E+03 -0.14484985768E+03  0.16937315863E+03  0.10531745378E+04  0.90395404133E+03 0.  0.
         23    2    4    4    0    0 -0.37449139977E+02  0.23089721473E+03  0.34977994077E+03  0.43038682124E+03  0.90392737937E+02 0.  0.
         23    2    4    4    0    0 -0.45486676479E+03 -0.37574707241E+03 -0.18040678214E+03  0.62278771656E+03  0.85019390230E+02 0.  0.
          2    1    3    3  502    0  0.11234822616E+03  0.88584556461E+00 -0.33254679272E+03  0.35101321627E+03  0.00000000000E+00 0. -1.
         -1    1    3    3    0  502  0.37996767861E+03  0.14396401211E+03 -0.96331674224E+03  0.10455047678E+04  0.00000000000E+00 0.  1.
         13    1    5    5    0    0 -0.65908667510E+02  0.12747288101E+03  0.20047782608E+03  0.24654542501E+03  0.00000000000E+00 0.  1.
        -13    1    5    5    0    0  0.28459527534E+02  0.10342433373E+03  0.14930211470E+03  0.18384139623E+03  0.00000000000E+00 0. -1.
          3    1    6    6  503    0 -0.36383104915E+03 -0.25398487898E+03 -0.14350182690E+03  0.46634121135E+03  0.00000000000E+00 0. -1.
         -3    1    6    6    0  503 -0.91035715638E+02 -0.12176219343E+03 -0.36904955240E+02  0.15644650521E+03  0.00000000000E+00 0.  1.
<mgrwt>
<rscale>  0 0.21753190E+04</rscale>
<asrwt>0</asrwt>
<pdfrwt beam="1">  1        2 0.10178478E+00 0.21753190E+04</pdfrwt>
<pdfrwt beam="2">  1       -1 0.27509099E+00 0.21753190E+04</pdfrwt>
<totfact> 0.22022669E+00</totfact>
</mgrwt>
</event>
<event>
12    7  0.1544987E-007  0.2299913E+04  0.7818608E-02  0.8477955E-01
         -1   -1    0    0    0  501 -0.00000000000E+00  0.00000000000E+00  0.71941401162E+03  0.71941401162E+03  0.00000000000E+00 0.  1.
          2   -1    0    0  501    0  0.00000000000E+00 -0.00000000000E+00 -0.18381632745E+04  0.18381632745E+04  0.00000000000E+00 0. -1.
         24    2    1    2    0    0 -0.67252081991E+03 -0.11969940497E+03  0.29647130723E+03  0.74935922317E+03  0.83855879804E+02 0.  0.
        254    2    1    2    0    0  0.67252081991E+03  0.11969940497E+03 -0.14152205701E+04  0.18082180629E+04  0.89453401296E+03 0.  0.
         23    2    4    4    0    0  0.70952281272E+03  0.21312871917E+02 -0.47712740712E+03  0.85982399140E+03  0.88146884698E+02 0.  0.
         23    2    4    4    0    0 -0.37001992809E+02  0.98386533057E+02 -0.93809316295E+03  0.94839407152E+03  0.91561319113E+02 0.  0.
          4    1    3    3  502    0 -0.28377105521E+03 -0.89754316360E+02  0.11176336044E+03  0.31791964050E+03  0.00000000000E+00 0. -1.
         -3    1    3    3    0  502 -0.38874976470E+03 -0.29945088614E+02  0.18470794678E+03  0.43143958266E+03  0.00000000000E+00 0.  1.
         13    1    5    5    0    0  0.61957778475E+03  0.16020259578E+02 -0.44935200219E+03  0.76553935362E+03  0.00000000000E+00 0.  1.
        -13    1    5    5    0    0  0.89945027969E+02  0.52926123396E+01 -0.27775404933E+02  0.94284637778E+02  0.00000000000E+00 0. -1.
          1    1    6    6  503    0  0.22787004904E+02  0.21180500152E+02 -0.10257832819E+03  0.10719223196E+03  0.00000000000E+00 0. -1.
         -1    1    6    6    0  503 -0.59788997713E+02  0.77206032905E+02 -0.83551483476E+03  0.84120183956E+03  0.00000000000E+00 0.  1.
<mgrwt>
<rscale>  0 0.22999134E+04</rscale>
<asrwt>0</asrwt>
<pdfrwt beam="1">  1        2 0.28279435E+00 0.22999134E+04</pdfrwt>
<pdfrwt beam="2">  1       -1 0.11067908E+00 0.22999134E+04</pdfrwt>
<totfact> 0.63790182E+00</totfact>
</mgrwt>
</event>
<event>
12    7  0.1544987E-007  0.1722834E+04  0.7818608E-02  0.8748447E-01
          2   -1    0    0  501    0  0.00000000000E+00  0.00000000000E+00  0.11549713799E+04  0.11549713799E+04  0.00000000000E+00 0. -1.
         -1   -1    0    0    0  501 -0.00000000000E+00 -0.00000000000E+00 -0.64247426751E+03  0.64247426751E+03  0.00000000000E+00 0.  1.
         24    2    1    2    0    0 -0.31758084974E+03 -0.34394422369E+03  0.62596449817E+03  0.78590841828E+03  0.81641066977E+02 0.  0.
        254    2    1    2    0    0  0.31758084974E+03  0.34394422369E+03 -0.11346738579E+03  0.10115372291E+04  0.88948158673E+03 0.  0.
         23    2    4    4    0    0  0.10127334682E+03  0.61801963552E+03  0.53023681590E+01  0.63301366824E+03  0.92052313410E+02 0.  0.
         23    2    4    4    0    0  0.21630750292E+03 -0.27407541183E+03 -0.11876975395E+03  0.37852356089E+03  0.85250011773E+02 0.  0.
          2    1    3    3  502    0 -0.30667285957E+03 -0.29671363662E+03  0.56399093945E+03  0.70722910343E+03  0.00000000000E+00 0. -1.
         -1    1    3    3    0  502 -0.10907990169E+02 -0.47230587074E+02  0.61973558720E+02  0.78679314851E+02  0.00000000000E+00 0.  1.
         13    1    5    5    0    0  0.92025737105E+02  0.57531474848E+03 -0.19148654825E+02  0.58294293640E+03  0.00000000000E+00 0.  1.
        -13    1    5    5    0    0  0.92476097112E+01  0.42704887034E+02  0.24451022984E+02  0.50070731839E+02  0.00000000000E+00 0. -1.
          1    1    6    6  503    0  0.85950418133E+02 -0.67914286803E+02 -0.57489355343E+01  0.10969446198E+03  0.00000000000E+00 0. -1.
         -1    1    6    6    0  503  0.13035708479E+03 -0.20616112502E+03 -0.11302081842E+03  0.26882909891E+03  0.00000000000E+00 0.  1.
<mgrwt>
<rscale>  0 0.17228342E+04</rscale>
<asrwt>0</asrwt>
<pdfrwt beam="1">  1        2 0.17768790E+00 0.17228342E+04</pdfrwt>
<pdfrwt beam="2">  1       -1 0.98842195E-01 0.17228342E+04</pdfrwt>
<totfact> 0.21379975E+01</totfact>
</mgrwt>
</event>
<event>
12    7  0.1544987E-007  0.1552570E+04  0.7818608E-02  0.8850228E-01
         -1   -1    0    0    0  501 -0.00000000000E+00  0.00000000000E+00  0.35457806992E+03  0.35457806992E+03  0.00000000000E+00 0.  1.
          2   -1    0    0  501    0  0.00000000000E+00 -0.00000000000E+00 -0.16995356939E+04  0.16995356939E+04  0.00000000000E+00 0. -1.
         24    2    1    2    0    0 -0.28994209670E+03  0.19202931477E+03  0.45599241370E+02  0.35986923166E+03  0.80528851412E+02 0.  0.
        254    2    1    2    0    0  0.28994209670E+03 -0.19202931477E+03 -0.13905568654E+04  0.16942445322E+04  0.90325769403E+03 0.  0.
         23    2    4    4    0    0 -0.23206328549E+03 -0.16399956063E+03 -0.97619136349E+03  0.10210278759E+04  0.93803629098E+02 0.  0.
         23    2    4    4    0    0  0.52200538219E+03 -0.28029754146E+02 -0.41436550187E+03  0.67321665629E+03  0.90810852920E+02 0.  0.
          4    1    3    3  502    0 -0.83727527169E+02  0.10065752698E+03  0.76840282100E+01  0.13115365353E+03  0.00000000000E+00 0. -1.
         -3    1    3    3    0  502 -0.20621456953E+03  0.91371787792E+02  0.37915213160E+02  0.22871557813E+03  0.00000000000E+00 0.  1.
         13    1    5    5    0    0 -0.56554952134E+02  0.28202484233E+01 -0.16329813842E+03  0.17283720209E+03  0.00000000000E+00 0. -1.
        -13    1    5    5    0    0 -0.17550833335E+03 -0.16681980905E+03 -0.81289322507E+03  0.84819067380E+03  0.00000000000E+00 0.  1.
          4    1    6    6  503    0  0.36570677166E+03 -0.61134726527E+02 -0.29331059583E+03  0.47276844570E+03  0.00000000000E+00 0. -1.
         -4    1    6    6    0  503  0.15629861053E+03  0.33104972381E+02 -0.12105490604E+03  0.20044821059E+03  0.00000000000E+00 0.  1.
<mgrwt>
<rscale>  0 0.15525696E+04</rscale>
<asrwt>0</asrwt>
<pdfrwt beam="1">  1        2 0.26146703E+00 0.15525696E+04</pdfrwt>
<pdfrwt beam="2">  1       -1 0.54550472E-01 0.15525696E+04</pdfrwt>
<totfact> 0.36521021E+01</totfact>
</mgrwt>
</event>
<event>
12    7  0.1544987E-007  0.1153439E+04  0.7818608E-02  0.9154617E-01
          2   -1    0    0  501    0  0.00000000000E+00  0.00000000000E+00  0.30663641871E+04  0.30663641871E+04  0.00000000000E+00 0. -1.
         -1   -1    0    0    0  501 -0.00000000000E+00 -0.00000000000E+00 -0.10846902711E+03  0.10846902711E+03  0.00000000000E+00 0.  1.
         24    2    1    2    0    0 -0.13015838012E+03  0.15220616437E+03  0.67366766347E+03  0.70693830570E+03  0.76326449418E+02 0.  0.
        254    2    1    2    0    0  0.13015838012E+03 -0.15220616437E+03  0.22842274965E+04  0.24678949085E+04  0.91252512469E+03 0.  0.
         23    2    4    4    0    0  0.40294490261E+03 -0.38152899498E+03  0.14959183098E+04  0.15980552371E+04  0.89888724484E+02 0.  0.
         23    2    4    4    0    0 -0.27278652249E+03  0.22932283060E+03  0.78830918670E+03  0.86983967135E+03  0.90488853110E+02 0.  0.
          4    1    3    3  502    0 -0.15680502741E+02  0.51067064721E+02  0.27217674058E+03  0.27736961149E+03  0.00000000000E+00 0. -1.
         -3    1    3    3    0  502 -0.11447787737E+03  0.10113909965E+03  0.40149092289E+03  0.42956869421E+03  0.00000000000E+00 0.  1.
         13    1    5    5    0    0  0.12415434285E+03 -0.77570852897E+02  0.31986424139E+03  0.35177360758E+03  0.00000000000E+00 0. -1.
        -13    1    5    5    0    0  0.27879055976E+03 -0.30395814208E+03  0.11760540684E+04  0.12462816296E+04  0.00000000000E+00 0.  1.
          2    1    6    6  503    0 -0.21635609190E+03  0.20067931751E+03  0.71182303850E+03  0.77056744358E+03  0.00000000000E+00 0.  1.
         -2    1    6    6    0  503 -0.56430430596E+02  0.28643513090E+02  0.76486148204E+02  0.99272227770E+02  0.00000000000E+00 0. -1.
<mgrwt>
<rscale>  0 0.11534393E+04</rscale>
<asrwt>0</asrwt>
<pdfrwt beam="1">  1        2 0.47174827E+00 0.11534393E+04</pdfrwt>
<pdfrwt beam="2">  1       -1 0.16687545E-01 0.11534393E+04</pdfrwt>
<totfact> 0.50127134E+01</totfact>
</mgrwt>
</event>
<event>
12    7  0.1544987E-007  0.2042719E+04  0.7818608E-02  0.8586905E-01
          2   -1    0    0  501    0  0.00000000000E+00  0.00000000000E+00  0.21870198960E+04  0.21870198960E+04  0.00000000000E+00 0. -1.
         -1   -1    0    0    0  501 -0.00000000000E+00 -0.00000000000E+00 -0.47698460496E+03  0.47698460496E+03  0.00000000000E+00 0.  1.
         24    2    1    2    0    0 -0.10212115557E+03  0.30418397246E+03  0.16808574527E+04  0.17131522809E+04  0.81561889344E+02 0.  0.
        254    2    1    2    0    0  0.10212115557E+03 -0.30418397246E+03  0.29177838331E+02  0.95085222004E+03  0.89460157533E+03 0.  0.
         23    2    4    4    0    0  0.31401910385E+03  0.13110793475E+03  0.22770791462E+03  0.41974559457E+03  0.92402281594E+02 0.  0.
         23    2    4    4    0    0 -0.21189794828E+03 -0.43529190721E+03 -0.19853007629E+03  0.53110662547E+03  0.90995996908E+02 0.  0.
          2    1    3    3  502    0 -0.19175055851E+02  0.13949900965E+03  0.89090814310E+03  0.90196728095E+03  0.00000000000E+00 0. -1.
         -1    1    3    3    0  502 -0.82946099719E+02  0.16468496281E+03  0.78994930963E+03  0.81118500000E+03  0.00000000000E+00 0.  1.
         13    1    5    5    0    0  0.12473879953E+03  0.86358059548E+02  0.60783334446E+02  0.16343835628E+03  0.00000000000E+00 0. -1.
        -13    1    5    5    0    0  0.18928030433E+03  0.44749875202E+02  0.16692458017E+03  0.25630723830E+03  0.00000000000E+00 0.  1.
          2    1    6    6  503    0 -0.30423110359E+02 -0.11229064447E+03 -0.13917287988E+02  0.11716844876E+03  0.00000000000E+00 0. -1.
         -2    1    6    6    0  503 -0.18147483793E+03 -0.32300126274E+03 -0.18461278830E+03  0.41393817670E+03  0.00000000000E+00 0.  1.
<mgrwt>
<rscale>  0 0.20427186E+04</rscale>
<asrwt>0</asrwt>
<pdfrwt beam="1">  1        2 0.33646459E+00 0.20427186E+04</pdfrwt>
<pdfrwt beam="2">  1       -1 0.73382248E-01 0.20427186E+04</pdfrwt>
<totfact> 0.10356886E+01</totfact>
</mgrwt>
</event>
<event>
12    7  0.1544987E-007  0.1167931E+04  0.7818608E-02  0.9141399E-01
         -1   -1    0    0    0  501 -0.00000000000E+00  0.00000000000E+00  0.15758099142E+04  0.15758099142E+04  0.00000000000E+00 0.  1.
          2   -1    0    0  501    0  0.00000000000E+00 -0.00000000000E+00 -0.21640671047E+03  0.21640671047E+03  0.00000000000E+00 0. -1.
         24    2    1    2    0    0  0.67808968604E+02 -0.21647947030E+03  0.30735283231E+03  0.39058368403E+03  0.81415191539E+02 0.  0.
        254    2    1    2    0    0 -0.67808968604E+02  0.21647947030E+03  0.10520503714E+04  0.14016329406E+04  0.89794404002E+03 0.  0.
         23    2    4    4    0    0  0.27366434342E+03  0.13842427755E+03  0.98197625422E+03  0.10327145267E+04  0.90379622891E+02 0.  0.
         23    2    4    4    0    0 -0.34147331202E+03  0.78055192750E+02  0.70074117157E+02  0.36891841396E+03  0.92161696608E+02 0.  0.
          4    1    3    3  502    0  0.48557580310E+02 -0.91388124573E+02  0.81659685324E+02  0.13182538498E+03  0.00000000000E+00 0. -1.
         -3    1    3    3    0  502  0.19251388294E+02 -0.12509134572E+03  0.22569314699E+03  0.25875829904E+03  0.00000000000E+00 0.  1.
         13    1    5    5    0    0  0.26987589963E+03  0.12128065209E+03  0.85982617823E+03  0.90930910836E+03  0.00000000000E+00 0. -1.
        -13    1    5    5    0    0  0.37884437880E+01  0.17143625453E+02  0.12215007599E+03  0.12340541829E+03  0.00000000000E+00 0.  1.
          1    1    6    6  503    0 -0.34693319858E+03  0.77928132283E+02  0.65012306019E+02  0.36147204319E+03  0.00000000000E+00 0. -1.
         -1    1    6    6    0  503  0.54598865545E+01  0.12706046743E+00  0.50618111379E+01  0.74463707635E+01  0.00000000000E+00 0.  1.
<mgrwt>
<rscale>  0 0.11679312E+04</rscale>
<asrwt>0</asrwt>
<pdfrwt beam="1">  1        2 0.33293341E-01 0.11679312E+04</pdfrwt>
<pdfrwt beam="2">  1       -1 0.24243229E+00 0.11679312E+04</pdfrwt>
<totfact> 0.14064343E+01</totfact>
</mgrwt>
</event>
<event>
12    7  0.1544987E-007  0.1428786E+04  0.7818608E-02  0.8933242E-01
          2   -1    0    0  501    0  0.00000000000E+00  0.00000000000E+00  0.25531312576E+04  0.25531312576E+04  0.00000000000E+00 0. -1.
         -1   -1    0    0    0  501 -0.00000000000E+00 -0.00000000000E+00 -0.19989457601E+03  0.19989457601E+03  0.00000000000E+00 0.  1.
         24    2    1    2    0    0  0.58685281269E+02  0.19560921995E+03 -0.10691091653E+02  0.21924614592E+03  0.79042038794E+02 0.  0.
        254    2    1    2    0    0 -0.58685281269E+02 -0.19560921995E+03  0.23639277732E+04  0.25337796877E+04  0.88891960235E+03 0.  0.
         23    2    4    4    0    0  0.24078770406E+03 -0.38924150924E+02  0.20412185806E+04  0.20576544722E+04  0.88740213217E+02 0.  0.
         23    2    4    4    0    0 -0.29947298533E+03 -0.15668506902E+03  0.32270919265E+03  0.47612521544E+03  0.91212487941E+02 0.  0.
          2    1    3    3  502    0  0.52330168385E+02  0.79908620671E+02  0.23624205835E+02  0.98396835732E+02  0.00000000000E+00 0. -1.
         -1    1    3    3    0  502  0.63551128838E+01  0.11570059928E+03 -0.34315297488E+02  0.12084931019E+03  0.00000000000E+00 0.  1.
         13    1    5    5    0    0  0.16585680730E+03  0.62161333715E+00  0.10738981397E+04  0.10866306095E+04  0.00000000000E+00 0. -1.
        -13    1    5    5    0    0  0.74930896767E+02 -0.39545764261E+02  0.96732044086E+03  0.97102386277E+03  0.00000000000E+00 0.  1.
          3    1    6    6  503    0 -0.11321186020E+03 -0.14006759293E+02  0.12579147085E+03  0.16981345275E+03  0.00000000000E+00 0. -1.
         -3    1    6    6    0  503 -0.18626112513E+03 -0.14267830973E+03  0.19691772180E+03  0.30631176269E+03  0.00000000000E+00 0.  1.
<mgrwt>
<rscale>  0 0.14287856E+04</rscale>
<asrwt>0</asrwt>
<pdfrwt beam="1">  1        2 0.39278940E+00 0.14287856E+04</pdfrwt>
<pdfrwt beam="2">  1       -1 0.30753014E-01 0.14287856E+04</pdfrwt>
<totfact> 0.35163668E+01</totfact>
</mgrwt>
</event>
<event>
12    7  0.1544987E-007  0.2463780E+04  0.7818608E-02  0.8416004E-01
          2   -1    0    0  501    0  0.00000000000E+00  0.00000000000E+00  0.24798396382E+04  0.24798396382E+04  0.00000000000E+00 0. -1.
         -1   -1    0    0    0  501 -0.00000000000E+00 -0.00000000000E+00 -0.61195617535E+03  0.61195617535E+03  0.00000000000E+00 0.  1.
         24    2    1    2    0    0  0.10126960270E+03 -0.42834176675E+03  0.20279498289E+04  0.20766195065E+04  0.77690826878E+02 0.  0.
        254    2    1    2    0    0 -0.10126960270E+03  0.42834176675E+03 -0.16006636608E+03  0.10151763070E+04  0.90068279170E+03 0.  0.
         23    2    4    4    0    0 -0.48978729204E+03  0.29091381065E+03 -0.52105247428E+02  0.57918253692E+03  0.90636734242E+02 0.  0.
         23    2    4    4    0    0  0.38851768934E+03  0.13742795610E+03 -0.10796111865E+03  0.43599377012E+03  0.92749805362E+02 0.  0.
          2    1    3    3  502    0  0.50793546214E+02 -0.33167465964E+03  0.14332045946E+04  0.14719590600E+04  0.00000000000E+00 0. -1.
         -1    1    3    3    0  502  0.50476056487E+02 -0.96667107111E+02  0.59474523430E+03  0.60466044653E+03  0.00000000000E+00 0.  1.
         13    1    5    5    0    0 -0.42326059585E+03  0.22213026270E+03 -0.65800530064E+02  0.48251538355E+03  0.00000000000E+00 0.  1.
        -13    1    5    5    0    0 -0.66526696197E+02  0.68783547948E+02  0.13695282636E+02  0.96667153375E+02  0.00000000000E+00 0. -1.
          3    1    6    6  503    0  0.17806912658E+03  0.55208563524E+02 -0.20013165810E+01  0.18644196039E+03  0.00000000000E+00 0. -1.
         -3    1    6    6    0  503  0.21044856277E+03  0.82219392576E+02 -0.10595980207E+03  0.24955180973E+03  0.00000000000E+00 0.  1.
<mgrwt>
<rscale>  0 0.24637802E+04</rscale>
<asrwt>0</asrwt>
<pdfrwt beam="1">  1        2 0.38151379E+00 0.24637802E+04</pdfrwt>
<pdfrwt beam="2">  1       -1 0.94147105E-01 0.24637802E+04</pdfrwt>
<totfact> 0.39751352E+00</totfact>
</mgrwt>
</event>
