<event>
12    5  0.5029243E-008  0.1232660E+04  0.7818608E-02  0.9084740E-01
         -4   -1    0    0    0  501 -0.00000000000E+00  0.00000000000E+00  0.10855207223E+04  0.10855207223E+04  0.00000000000E+00 0.  1.
          3   -1    0    0  501    0  0.00000000000E+00 -0.00000000000E+00 -0.34993607003E+03  0.34993607003E+03  0.00000000000E+00 0. -1.
        -24    2    1    2    0    0  0.97558991732E+02  0.22759719175E+03  0.31454782676E+03  0.40836935252E+03  0.80665694074E+02 0.  0.
        254    2    1    2    0    0 -0.97558991732E+02 -0.22759719175E+03  0.42103682555E+03  0.10270874399E+04  0.90350338244E+03 0.  0.
         23    2    4    4    0    0 -0.10061547044E+03 -0.56702753483E+03  0.28797677837E+03  0.65035391026E+03  0.91574480931E+02 0.  0.
         23    2    4    4    0    0  0.30564787063E+01  0.33943034309E+03  0.13306004718E+03  0.37673352960E+03  0.94872948194E+02 0.  0.
          3    1    3    3  502    0  0.32091186535E+02  0.73661071649E+02  0.47746273734E+02  0.93463920232E+02  0.00000000000E+00 0. -1.
         -4    1    3    3    0  502  0.65467805197E+02  0.15393612010E+03  0.26680155303E+03  0.31490543229E+03  0.00000000000E+00 0.  1.
         13    1    5    5    0    0 -0.36305292701E+02 -0.20053716484E+03  0.15183478426E+03  0.25413978529E+03  0.00000000000E+00 0. -1.
        -13    1    5    5    0    0 -0.64310177737E+02 -0.36649037000E+03  0.13614199411E+03  0.39621412496E+03  0.00000000000E+00 0.  1.
          4    1    6    6  503    0  0.26834944482E+02  0.38124316073E+02  0.31052098277E+00  0.46622678438E+02  0.00000000000E+00 0. -1.
         -4    1    6    6    0  503 -0.23778465776E+02  0.30130602701E+03  0.13274952620E+03  0.33011085116E+03  0.00000000000E+00 0.  1.
<mgrwt>
<rscale>  0 0.12326603E+04</rscale>
<asrwt>0</asrwt>
<pdfrwt beam="1">  1        3 0.53836319E-01 0.12326603E+04</pdfrwt>
<pdfrwt beam="2">  1       -4 0.16700319E+00 0.12326603E+04</pdfrwt>
<totfact> 0.17046655E+00</totfact>
</mgrwt>
</event>
<event>
12    5  0.5029243E-008  0.3729652E+04  0.7818608E-02  0.8061422E-01
         -2   -1    0    0    0  501 -0.00000000000E+00  0.00000000000E+00  0.18041279309E+04  0.18041279309E+04  0.00000000000E+00 0.  1.
          1   -1    0    0  501    0  0.00000000000E+00 -0.00000000000E+00 -0.19275663762E+04  0.19275663762E+04  0.00000000000E+00 0. -1.
        -24    2    1    2    0    0  0.95223837673E+02  0.10211582706E+04  0.13607273950E+04  0.17056980994E+04  0.77428481288E+02 0.  0.
        254    2    1    2    0    0 -0.95223837673E+02 -0.10211582706E+04 -0.14841658403E+04  0.20259962077E+04  0.92199815569E+03 0.  0.
         23    2    4    4    0    0 -0.30387530347E+03 -0.60509536399E+03 -0.13808866430E+04  0.15407385848E+04  0.92449263419E+02 0.  0.
         23    2    4    4    0    0  0.20865146579E+03 -0.41606290662E+03 -0.10327919732E+03  0.48525762289E+03  0.90358129279E+02 0.  0.
          1    1    3    3  502    0 -0.79561918018E+01  0.20474457856E+03  0.24667582254E+03  0.32067523269E+03  0.00000000000E+00 0. -1.
         -2    1    3    3    0  502  0.10318002947E+03  0.81641369205E+03  0.11140515725E+04  0.13850228667E+04  0.00000000000E+00 0.  1.
         13    1    5    5    0    0 -0.16912087137E+03 -0.35437816383E+03 -0.69726399208E+03  0.80022673461E+03  0.00000000000E+00 0. -1.
        -13    1    5    5    0    0 -0.13475443210E+03 -0.25071720016E+03 -0.68362265092E+03  0.74051185019E+03  0.00000000000E+00 0.  1.
          2    1    6    6  503    0 -0.47910541872E+00 -0.56368013615E+02  0.75995264544E+00  0.56375172096E+02  0.00000000000E+00 0. -1.
         -2    1    6    6    0  503  0.20913057121E+03 -0.35969489301E+03 -0.10403914997E+03  0.42888245079E+03  0.00000000000E+00 0.  1.
<mgrwt>
<rscale>  0 0.37296522E+04</rscale>
<asrwt>0</asrwt>
<pdfrwt beam="1">  1        1 0.29654867E+00 0.37296522E+04</pdfrwt>
<pdfrwt beam="2">  1       -2 0.27755815E+00 0.37296522E+04</pdfrwt>
<totfact> 0.10232026E-01</totfact>
</mgrwt>
</event>
<event>
12    5  0.5029243E-008  0.2125791E+04  0.7818608E-02  0.8549967E-01
         -2   -1    0    0    0  501 -0.00000000000E+00  0.00000000000E+00  0.85192927835E+03  0.85192927835E+03  0.00000000000E+00 0.  1.
          1   -1    0    0  501    0  0.00000000000E+00 -0.00000000000E+00 -0.13261035826E+04  0.13261035826E+04  0.00000000000E+00 0. -1.
        -24    2    1    2    0    0  0.25907299094E+03 -0.78998002167E+03  0.58986171106E+02  0.83698014736E+03  0.76610374113E+02 0.  0.
        254    2    1    2    0    0 -0.25907299094E+03  0.78998002167E+03 -0.53316047536E+03  0.13410527136E+04  0.90717971697E+03 0.  0.
         23    2    4    4    0    0 -0.22137900557E+03  0.11614131194E+03  0.20588510579E+03  0.33609433692E+03  0.89851310949E+02 0.  0.
         23    2    4    4    0    0 -0.37693985372E+02  0.67383870973E+03 -0.73904558115E+03  0.10049583767E+04  0.90958916908E+02 0.  0.
          1    1    3    3  502    0  0.26357163157E+03 -0.77124963357E+03  0.52816045065E+02  0.81675304521E+03  0.00000000000E+00 0. -1.
         -2    1    3    3    0  502 -0.44986406291E+01 -0.18730388100E+02  0.61701260416E+01  0.20227102147E+02  0.00000000000E+00 0.  1.
         13    1    5    5    0    0 -0.17148659841E+03  0.89852986286E+02  0.20164809616E+03  0.27954099389E+03  0.00000000000E+00 0.  1.
        -13    1    5    5    0    0 -0.49892407157E+02  0.26288325652E+02  0.42370096298E+01  0.56553343033E+02  0.00000000000E+00 0. -1.
          2    1    6    6  503    0 -0.43860589847E+02  0.14120386808E+03 -0.14554740746E+03  0.20747609868E+03  0.00000000000E+00 0. -1.
         -2    1    6    6    0  503  0.61666044754E+01  0.53263484164E+03 -0.59349817369E+03  0.79748227799E+03  0.00000000000E+00 0.  1.
<mgrwt>
<rscale>  0 0.21257906E+04</rscale>
<asrwt>0</asrwt>
<pdfrwt beam="1">  1        1 0.20401594E+00 0.21257906E+04</pdfrwt>
<pdfrwt beam="2">  1       -2 0.13106604E+00 0.21257906E+04</pdfrwt>
<totfact> 0.29684878E+00</totfact>
</mgrwt>
</event>
<event>
12    5  0.5029243E-008  0.1434655E+04  0.7818608E-02  0.8929109E-01
         -2   -1    0    0    0  501 -0.00000000000E+00  0.00000000000E+00  0.35238383478E+03  0.35238383478E+03  0.00000000000E+00 0.  1.
          1   -1    0    0  501    0  0.00000000000E+00 -0.00000000000E+00 -0.14602217863E+04  0.14602217863E+04  0.00000000000E+00 0. -1.
        -24    2    1    2    0    0  0.31818400401E+03 -0.22153753964E+03 -0.10911105102E+03  0.41057684091E+03  0.79675460196E+02 0.  0.
        254    2    1    2    0    0 -0.31818400401E+03  0.22153753964E+03 -0.99872690054E+03  0.14020287802E+04  0.90438340144E+03 0.  0.
         23    2    4    4    0    0  0.18322379842E+03 -0.21968975369E+03 -0.22876385298E+03  0.37859116247E+03  0.95727841738E+02 0.  0.
         23    2    4    4    0    0 -0.50140780243E+03  0.44122729334E+03 -0.76996304756E+03  0.10234376177E+04  0.92142032132E+02 0.  0.
          3    1    3    3  502    0  0.13441946497E+02  0.22564262664E+01  0.66462839928E+01  0.15164118044E+02  0.00000000000E+00 0. -1.
         -4    1    3    3    0  502  0.30474205751E+03 -0.22379396591E+03 -0.11575733502E+03  0.39541272287E+03  0.00000000000E+00 0.  1.
         13    1    5    5    0    0  0.16954776717E+03 -0.15914483161E+03 -0.14393679223E+03  0.27348002292E+03  0.00000000000E+00 0. -1.
        -13    1    5    5    0    0  0.13676031246E+02 -0.60544922085E+02 -0.84827060748E+02  0.10511113954E+03  0.00000000000E+00 0.  1.
          3    1    6    6  503    0 -0.39248851627E+03  0.38879775467E+03 -0.65123985650E+03  0.85400484784E+03  0.00000000000E+00 0. -1.
         -3    1    6    6    0  503 -0.10891928615E+03  0.52429538663E+02 -0.11872319106E+03  0.16943276990E+03  0.00000000000E+00 0.  1.
<mgrwt>
<rscale>  0 0.14346547E+04</rscale>
<asrwt>0</asrwt>
<pdfrwt beam="1">  1        1 0.22464951E+00 0.14346547E+04</pdfrwt>
<pdfrwt beam="2">  1       -2 0.54212897E-01 0.14346547E+04</pdfrwt>
<totfact> 0.19055824E+01</totfact>
</mgrwt>
</event>
<event>
12    5  0.5029243E-008  0.2452812E+04  0.7818608E-02  0.8419992E-01
         -2   -1    0    0    0  501 -0.00000000000E+00  0.00000000000E+00  0.36383937347E+03  0.36383937347E+03  0.00000000000E+00 0.  1.
          1   -1    0    0  501    0  0.00000000000E+00 -0.00000000000E+00 -0.41338890238E+04  0.41338890238E+04  0.00000000000E+00 0. -1.
        -24    2    1    2    0    0  0.88356000744E+03  0.10258235553E+03 -0.57720666011E+03  0.10634782174E+04  0.81344722794E+02 0.  0.
        254    2    1    2    0    0 -0.88356000744E+03 -0.10258235553E+03 -0.31928429903E+04  0.34342501800E+04  0.89923662713E+03 0.  0.
         23    2    4    4    0    0 -0.76030517740E+03 -0.28434444346E+03 -0.30491729412E+04  0.31566578435E+04  0.90096561239E+02 0.  0.
         23    2    4    4    0    0 -0.12325483004E+03  0.18176208793E+03 -0.14367004907E+03  0.27759233644E+03  0.90483216742E+02 0.  0.
          3    1    3    3  502    0  0.69582628259E+02  0.30073705578E+02 -0.42786590515E+02  0.87045173620E+02  0.00000000000E+00 0. -1.
         -4    1    3    3    0  502  0.81397737919E+03  0.72508649951E+02 -0.53442006959E+03  0.97643304375E+03  0.00000000000E+00 0.  1.
         13    1    5    5    0    0 -0.68381551529E+03 -0.28319185390E+03 -0.27498804503E+04  0.28477436289E+04  0.00000000000E+00 0. -1.
        -13    1    5    5    0    0 -0.76489662112E+02 -0.11525895627E+01 -0.29929249094E+03  0.30891421464E+03  0.00000000000E+00 0.  1.
          2    1    6    6  503    0 -0.57335865876E+02  0.11264086246E+03 -0.12963126675E+03  0.18105145879E+03  0.00000000000E+00 0. -1.
         -2    1    6    6    0  503 -0.65918964165E+02  0.69121225476E+02 -0.14038782317E+02  0.96540877647E+02  0.00000000000E+00 0.  1.
<mgrwt>
<rscale>  0 0.24528119E+04</rscale>
<asrwt>0</asrwt>
<pdfrwt beam="1">  1        1 0.63598294E+00 0.24528119E+04</pdfrwt>
<pdfrwt beam="2">  1       -2 0.55975287E-01 0.24528119E+04</pdfrwt>
<totfact> 0.17169478E-01</totfact>
</mgrwt>
</event>
<event>
12    5  0.5029243E-008  0.1668858E+04  0.7818608E-02  0.8779328E-01
          1   -1    0    0  501    0  0.00000000000E+00  0.00000000000E+00  0.15325222938E+04  0.15325222938E+04  0.00000000000E+00 0. -1.
         -2   -1    0    0    0  501 -0.00000000000E+00 -0.00000000000E+00 -0.45433070785E+03  0.45433070785E+03  0.00000000000E+00 0.  1.
        -24    2    1    2    0    0  0.39408851908E+03  0.62583854178E+02  0.97953349715E+03  0.10606574487E+04  0.79283363299E+02 0.  0.
        254    2    1    2    0    0 -0.39408851908E+03 -0.62583854178E+02  0.98658088820E+02  0.92619555301E+03  0.82998932780E+03 0.  0.
         23    2    4    4    0    0 -0.46664989427E+03  0.10653545794E+03 -0.22837264602E+03  0.53915022559E+03  0.97041087553E+02 0.  0.
         23    2    4    4    0    0  0.72561375198E+02 -0.16911931212E+03  0.32703073484E+03  0.38704532742E+03  0.94807642353E+02 0.  0.
          3    1    3    3  502    0  0.36733308045E+03  0.78244558629E+02  0.91424083955E+03  0.98837852853E+03  0.00000000000E+00 0. -1.
         -4    1    3    3    0  502  0.26755438624E+02 -0.15660704451E+02  0.65292657601E+02  0.72278920139E+02  0.00000000000E+00 0.  1.
         13    1    5    5    0    0 -0.35745317336E+03  0.89200260720E+02 -0.21804672376E+03  0.42810493036E+03  0.00000000000E+00 0.  1.
        -13    1    5    5    0    0 -0.10919672091E+03  0.17335197220E+02 -0.10325922264E+02  0.11104529522E+03  0.00000000000E+00 0. -1.
          3    1    6    6  503    0  0.74371640607E+02 -0.10409946829E+03  0.14309797244E+03  0.19195017568E+03  0.00000000000E+00 0. -1.
         -3    1    6    6    0  503 -0.18102654086E+01 -0.65019843826E+02  0.18393276240E+03  0.19509515175E+03  0.00000000000E+00 0.  1.
<mgrwt>
<rscale>  0 0.16688582E+04</rscale>
<asrwt>0</asrwt>
<pdfrwt beam="1">  1        1 0.23577266E+00 0.16688582E+04</pdfrwt>
<pdfrwt beam="2">  1       -2 0.69897033E-01 0.16688582E+04</pdfrwt>
<totfact> 0.96977533E+00</totfact>
</mgrwt>
</event>
<event>
12    5  0.5029243E-008  0.1542498E+04  0.7818608E-02  0.8856674E-01
         -2   -1    0    0    0  501 -0.00000000000E+00  0.00000000000E+00  0.10314934632E+04  0.10314934632E+04  0.00000000000E+00 0.  1.
          1   -1    0    0  501    0  0.00000000000E+00 -0.00000000000E+00 -0.57666367942E+03  0.57666367942E+03  0.00000000000E+00 0. -1.
        -24    2    1    2    0    0  0.18344091465E+03  0.42934421414E+03  0.30873800701E+03  0.56434366154E+03  0.71955458210E+02 0.  0.
        254    2    1    2    0    0 -0.18344091465E+03 -0.42934421414E+03  0.14609177680E+03  0.10438134811E+04  0.92207198889E+03 0.  0.
         23    2    4    4    0    0  0.18689246841E+03 -0.55895234654E+03 -0.44846224373E+02  0.59803070342E+03  0.90956131997E+02 0.  0.
         23    2    4    4    0    0 -0.37033338306E+03  0.12960813240E+03  0.19093800117E+03  0.44578277768E+03  0.91213387121E+02 0.  0.
          3    1    3    3  502    0  0.71292080662E+01  0.77819151971E+02  0.65251336274E+02  0.10180561334E+03  0.00000000000E+00 0. -1.
         -4    1    3    3    0  502  0.17631170658E+03  0.35152506217E+03  0.24348667073E+03  0.46253804820E+03  0.00000000000E+00 0.  1.
         13    1    5    5    0    0  0.11436847425E+03 -0.43028466016E+03 -0.58213405966E+01  0.44526275914E+03  0.00000000000E+00 0.  1.
        -13    1    5    5    0    0  0.72523994160E+02 -0.12866768638E+03 -0.39024883777E+02  0.15276794429E+03  0.00000000000E+00 0. -1.
          3    1    6    6  503    0 -0.16442194156E+03  0.10220186635E+03  0.11131872538E+03  0.22331962514E+03  0.00000000000E+00 0. -1.
         -3    1    6    6    0  503 -0.20591144150E+03  0.27406266046E+02  0.79619275787E+02  0.22246315254E+03  0.00000000000E+00 0.  1.
<mgrwt>
<rscale>  0 0.15424977E+04</rscale>
<asrwt>0</asrwt>
<pdfrwt beam="1">  1        1 0.88717489E-01 0.15424977E+04</pdfrwt>
<pdfrwt beam="2">  1       -2 0.15869130E+00 0.15424977E+04</pdfrwt>
<totfact> 0.78730855E+00</totfact>
</mgrwt>
</event>
<event>
12    5  0.5029243E-008  0.1311335E+04  0.7818608E-02  0.9020624E-01
         -2   -1    0    0    0  501 -0.00000000000E+00  0.00000000000E+00  0.24404750857E+03  0.24404750857E+03  0.00000000000E+00 0.  1.
          1   -1    0    0  501    0  0.00000000000E+00 -0.00000000000E+00 -0.17615427849E+04  0.17615427849E+04  0.00000000000E+00 0. -1.
        -24    2    1    2    0    0  0.98224916551E+02  0.68048212557E+02  0.84260915521E+02  0.16659378890E+03  0.79842940536E+02 0.  0.
        254    2    1    2    0    0 -0.98224916551E+02 -0.68048212557E+02 -0.16017561918E+04  0.18389965046E+04  0.89554818532E+03 0.  0.
         23    2    4    4    0    0 -0.16284470219E+03  0.23071054178E+03 -0.11387932539E+03  0.31733446152E+03  0.89369505949E+02 0.  0.
         23    2    4    4    0    0  0.64619785637E+02 -0.29875875434E+03 -0.14878768665E+04  0.15216620431E+04  0.90803598697E+02 0.  0.
          1    1    3    3  502    0 -0.34813286666E+01  0.18843748269E+02 -0.79614663016E+01  0.20750697429E+02  0.00000000000E+00 0. -1.
         -2    1    3    3    0  502  0.10170624522E+03  0.49204464288E+02  0.92222381823E+02  0.14584309148E+03  0.00000000000E+00 0.  1.
         13    1    5    5    0    0 -0.13954690268E+03  0.21616139183E+03 -0.71867858686E+02  0.26714055192E+03  0.00000000000E+00 0. -1.
        -13    1    5    5    0    0 -0.23297799507E+02  0.14549149951E+02 -0.42011466703E+02  0.50193909598E+02  0.00000000000E+00 0.  1.
          4    1    6    6  503    0  0.63129975045E+02 -0.29899501561E+03 -0.14888365344E+04  0.15198742182E+04  0.00000000000E+00 0. -1.
         -4    1    6    6    0  503  0.14898105918E+01  0.23626127229E+00  0.95966794384E+00  0.17878248098E+01  0.00000000000E+00 0.  1.
<mgrwt>
<rscale>  0 0.13113354E+04</rscale>
<asrwt>0</asrwt>
<pdfrwt beam="1">  1        1 0.27100658E+00 0.13113354E+04</pdfrwt>
<pdfrwt beam="2">  1       -2 0.37545771E-01 0.13113354E+04</pdfrwt>
<totfact> 0.24957229E+01</totfact>
</mgrwt>
</event>
<event>
12    5  0.5029243E-008  0.1388334E+04  0.7818608E-02  0.8962306E-01
         -2   -1    0    0    0  501 -0.00000000000E+00  0.00000000000E+00  0.10145063321E+04  0.10145063321E+04  0.00000000000E+00 0.  1.
          1   -1    0    0  501    0  0.00000000000E+00 -0.00000000000E+00 -0.47497793125E+03  0.47497793125E+03  0.00000000000E+00 0. -1.
        -24    2    1    2    0    0  0.26672730895E+03  0.28196245257E+03  0.23464443221E+03  0.46038711283E+03  0.79069602836E+02 0.  0.
        254    2    1    2    0    0 -0.26672730895E+03 -0.28196245257E+03  0.30488396866E+03  0.10290971505E+04  0.90301740233E+03 0.  0.
         23    2    4    4    0    0 -0.19001893041E+03 -0.56679041445E+03  0.15095521455E+02  0.60573414675E+03  0.96578537673E+02 0.  0.
         23    2    4    4    0    0 -0.76708378534E+02  0.28482796188E+03  0.28978844720E+03  0.42336300379E+03  0.90817099936E+02 0.  0.
          3    1    3    3  502    0  0.97680123036E+02  0.60180143688E+02  0.45464107959E+02  0.12341005325E+03  0.00000000000E+00 0. -1.
         -4    1    3    3    0  502  0.16904718591E+03  0.22178230888E+03  0.18918032425E+03  0.33697705958E+03  0.00000000000E+00 0.  1.
         13    1    5    5    0    0 -0.17619257956E+03 -0.41353606046E+03 -0.11101301606E+02  0.44964334454E+03  0.00000000000E+00 0. -1.
        -13    1    5    5    0    0 -0.13826350854E+02 -0.15325435399E+03  0.26196823060E+02  0.15609080220E+03  0.00000000000E+00 0.  1.
          4    1    6    6  503    0 -0.25098351893E+02  0.12381885332E+02  0.10759906938E+02  0.29983561320E+02  0.00000000000E+00 0.  1.
         -4    1    6    6    0  503 -0.51610026640E+02  0.27244607655E+03  0.27902854026E+03  0.39337944247E+03  0.00000000000E+00 0. -1.
<mgrwt>
<rscale>  0 0.13883344E+04</rscale>
<asrwt>0</asrwt>
<pdfrwt beam="1">  1        1 0.73073528E-01 0.13883344E+04</pdfrwt>
<pdfrwt beam="2">  1       -2 0.15607790E+00 0.13883344E+04</pdfrwt>
<totfact> 0.10926475E+01</totfact>
</mgrwt>
</event>
<event>
12    5  0.5029243E-008  0.1650877E+04  0.7818608E-02  0.8789888E-01
          3   -1    0    0  501    0  0.00000000000E+00  0.00000000000E+00  0.20190576273E+04  0.20190576273E+04  0.00000000000E+00 0. -1.
         -4   -1    0    0    0  501 -0.00000000000E+00 -0.00000000000E+00 -0.33745860745E+03  0.33745860745E+03  0.00000000000E+00 0.  1.
        -24    2    1    2    0    0 -0.61103024439E+03  0.28079044115E+02  0.63886525064E+03  0.88801224220E+03  0.79186751148E+02 0.  0.
        254    2    1    2    0    0  0.61103024439E+03 -0.28079044115E+02  0.10427337692E+04  0.14685039925E+04  0.83370490604E+03 0.  0.
         23    2    4    4    0    0  0.37158100627E+03  0.34151486850E+03  0.28694471380E+03  0.58832979247E+03  0.95340580576E+02 0.  0.
         23    2    4    4    0    0  0.23944923812E+03 -0.36959391261E+03  0.75578905539E+03  0.88017420005E+03  0.97744198353E+02 0.  0.
          3    1    3    3  502    0 -0.36719295004E+03 -0.15782625254E+02  0.41164162194E+03  0.55184108105E+03  0.00000000000E+00 0. -1.
         -4    1    3    3    0  502 -0.24383729434E+03  0.43861669369E+02  0.22722362870E+03  0.33617116115E+03  0.00000000000E+00 0.  1.
         13    1    5    5    0    0  0.86575933097E+02  0.60693057933E+02  0.10424744520E+03  0.14848087184E+03  0.00000000000E+00 0.  1.
        -13    1    5    5    0    0  0.28500507317E+03  0.28082181056E+03  0.18269726860E+03  0.43984892063E+03  0.00000000000E+00 0. -1.
          4    1    6    6  503    0  0.21733934533E+03 -0.28806497825E+03  0.66190580969E+03  0.75388137238E+03  0.00000000000E+00 0. -1.
         -4    1    6    6    0  503  0.22109892789E+02 -0.81528934365E+02  0.93883245704E+02  0.12629282767E+03  0.00000000000E+00 0.  1.
<mgrwt>
<rscale>  0 0.16508766E+04</rscale>
<asrwt>0</asrwt>
<pdfrwt beam="1">  1        3 0.31062424E+00 0.16508766E+04</pdfrwt>
<pdfrwt beam="2">  1       -4 0.51916710E-01 0.16508766E+04</pdfrwt>
<totfact> 0.26514420E-01</totfact>
</mgrwt>
</event>
<event>
12    5  0.5029243E-008  0.2955387E+04  0.7818608E-02  0.8256586E-01
          1   -1    0    0  501    0  0.00000000000E+00  0.00000000000E+00  0.25031547958E+04  0.25031547958E+04  0.00000000000E+00 0. -1.
         -2   -1    0    0    0  501 -0.00000000000E+00 -0.00000000000E+00 -0.87233044277E+03  0.87233044277E+03  0.00000000000E+00 0.  1.
        -24    2    1    2    0    0  0.72288689245E+01  0.13032159266E+04  0.37731731188E+03  0.13590950291E+04  0.79667663310E+02 0.  0.
        254    2    1    2    0    0 -0.72288689245E+01 -0.13032159266E+04  0.12535070412E+04  0.20163902095E+04  0.89225868829E+03 0.  0.
         23    2    4    4    0    0  0.93606042117E+02 -0.82707692657E+03  0.21333051679E+03  0.86428741212E+03  0.93083230381E+02 0.  0.
         23    2    4    4    0    0 -0.10083491104E+03 -0.47613899998E+03  0.10401765244E+04  0.11521027974E+04  0.92182575330E+02 0.  0.
          3    1    3    3  502    0  0.30103333258E+02  0.20368650822E+03  0.60457108110E+02  0.21459139364E+03  0.00000000000E+00 0. -1.
         -4    1    3    3    0  502 -0.22874464334E+02  0.10995294183E+04  0.31686020377E+03  0.11445036355E+04  0.00000000000E+00 0.  1.
         13    1    5    5    0    0  0.24272918423E+02 -0.89592302595E+02 -0.21450736165E+01  0.92846952529E+02  0.00000000000E+00 0.  1.
        -13    1    5    5    0    0  0.69333123694E+02 -0.73748462397E+03  0.21547559041E+03  0.77144045960E+03  0.00000000000E+00 0. -1.
          2    1    6    6  503    0 -0.10887842421E+03 -0.33229328421E+03  0.69309921310E+03  0.77631170105E+03  0.00000000000E+00 0. -1.
         -2    1    6    6    0  503  0.80435131635E+01 -0.14384571578E+03  0.34707731129E+03  0.37579109631E+03  0.00000000000E+00 0.  1.
<mgrwt>
<rscale>  0 0.29553870E+04</rscale>
<asrwt>0</asrwt>
<pdfrwt beam="1">  1        1 0.38510074E+00 0.29553870E+04</pdfrwt>
<pdfrwt beam="2">  1       -2 0.13420468E+00 0.29553870E+04</pdfrwt>
<totfact> 0.40559919E-01</totfact>
</mgrwt>
</event>
<event>
12    5  0.5029243E-008  0.1081556E+04  0.7818608E-02  0.9223357E-01
         -4   -1    0    0    0  501 -0.00000000000E+00  0.00000000000E+00  0.69043039400E+03  0.69043039400E+03  0.00000000000E+00 0.  1.
          1   -1    0    0  501    0  0.00000000000E+00 -0.00000000000E+00 -0.42356310650E+03  0.42356310650E+03  0.00000000000E+00 0. -1.
        -24    2    1    2    0    0  0.80624624671E+01  0.15221761862E+03  0.37756283215E+02  0.17604885741E+03  0.79576733745E+02 0.  0.
        254    2    1    2    0    0 -0.80624624671E+01 -0.15221761862E+03  0.22911100428E+03  0.93794464309E+03  0.89666777264E+03 0.  0.
         23    2    4    4    0    0  0.30846274419E+03 -0.33036117544E+03 -0.60594084684E+02  0.46522573955E+03  0.92062885288E+02 0.  0.
         23    2    4    4    0    0 -0.31652520666E+03  0.17814355682E+03  0.28970508897E+03  0.47271890354E+03  0.87239841274E+02 0.  0.
          3    1    3    3  502    0 -0.23046256362E+02  0.23981320232E+02 -0.11511253039E+02  0.35195775299E+02  0.00000000000E+00 0. -1.
         -4    1    3    3    0  502  0.31108718829E+02  0.12823629839E+03  0.49267536254E+02  0.14085308211E+03  0.00000000000E+00 0.  1.
         13    1    5    5    0    0  0.22718932307E+03 -0.21242791114E+03 -0.78770914942E+02  0.32085115395E+03  0.00000000000E+00 0. -1.
        -13    1    5    5    0    0  0.81273421116E+02 -0.11793326430E+03  0.18176830258E+02  0.14437458560E+03  0.00000000000E+00 0.  1.
          1    1    6    6  503    0 -0.23817611483E+03  0.10897769780E+03  0.24634952463E+03  0.35957209093E+03  0.00000000000E+00 0. -1.
         -1    1    6    6    0  503 -0.78349091826E+02  0.69165859020E+02  0.43355564338E+02  0.11314681261E+03  0.00000000000E+00 0.  1.
<mgrwt>
<rscale>  0 0.10815560E+04</rscale>
<asrwt>0</asrwt>
<pdfrwt beam="1">  1        1 0.65163555E-01 0.10815560E+04</pdfrwt>
<pdfrwt beam="2">  1       -4 0.10622006E+00 0.10815560E+04</pdfrwt>
<totfact> 0.18935840E+01</totfact>
</mgrwt>
</event>
<event>
12    5  0.5029243E-008  0.2247149E+04  0.7818608E-02  0.8499056E-01
         -2   -1    0    0    0  501 -0.00000000000E+00  0.00000000000E+00  0.75863915483E+03  0.75863915483E+03  0.00000000000E+00 0.  1.
          1   -1    0    0  501    0  0.00000000000E+00 -0.00000000000E+00 -0.16640587898E+04  0.16640587898E+04  0.00000000000E+00 0. -1.
        -24    2    1    2    0    0 -0.59412316217E+03 -0.70009123247E+03 -0.21970103349E+03  0.94745454819E+03  0.79319046674E+02 0.  0.
        254    2    1    2    0    0  0.59412316217E+03  0.70009123247E+03 -0.68571860149E+03  0.14752433965E+04  0.92899031897E+03 0.  0.
         23    2    4    4    0    0  0.11888972380E+03  0.73024887775E+03 -0.64908332456E+03  0.98876419984E+03  0.94590119932E+02 0.  0.
         23    2    4    4    0    0  0.47523343837E+03 -0.30157645287E+02 -0.36635276929E+02  0.48647919661E+03  0.92539508873E+02 0.  0.
          1    1    3    3  502    0 -0.97160454368E+02 -0.10054118595E+03 -0.60814283383E+01  0.13994880398E+03  0.00000000000E+00 0. -1.
         -2    1    3    3    0  502 -0.49696270781E+03 -0.59955004651E+03 -0.21361960515E+03  0.80750574421E+03  0.00000000000E+00 0.  1.
         13    1    5    5    0    0 -0.10661155832E+02  0.19053954814E+03 -0.16806840913E+03  0.25429504477E+03  0.00000000000E+00 0. -1.
        -13    1    5    5    0    0  0.12955087963E+03  0.53970932961E+03 -0.48101491543E+03  0.73446915507E+03  0.00000000000E+00 0.  1.
          2    1    6    6  503    0  0.44095053926E+03 -0.16648255176E+02 -0.56081401367E+02  0.44481419273E+03  0.00000000000E+00 0. -1.
         -2    1    6    6    0  503  0.34282899111E+02 -0.13509390112E+02  0.19446124438E+02  0.41665003879E+02  0.00000000000E+00 0.  1.
<mgrwt>
<rscale>  0 0.22471494E+04</rscale>
<asrwt>0</asrwt>
<pdfrwt beam="1">  1        1 0.25600904E+00 0.22471494E+04</pdfrwt>
<pdfrwt beam="2">  1       -2 0.11671372E+00 0.22471494E+04</pdfrwt>
<totfact> 0.22869459E+00</totfact>
</mgrwt>
</event>
<event>
12    5  0.5029243E-008  0.1258920E+04  0.7818608E-02  0.9062792E-01
          1   -1    0    0  501    0  0.00000000000E+00  0.00000000000E+00  0.94241118915E+03  0.94241118915E+03  0.00000000000E+00 0. -1.
         -2   -1    0    0    0  501 -0.00000000000E+00 -0.00000000000E+00 -0.42043201338E+03  0.42043201338E+03  0.00000000000E+00 0.  1.
        -24    2    1    2    0    0 -0.91718116554E+02  0.24490186500E+03 -0.30680102243E+02  0.27602599077E+03  0.82824769997E+02 0.  0.
        254    2    1    2    0    0  0.91718116554E+02 -0.24490186500E+03  0.55265927802E+03  0.10868172118E+04  0.89852670400E+03 0.  0.
         23    2    4    4    0    0  0.25835865078E+03 -0.51159652683E+03  0.46410266550E+03  0.74453842199E+03  0.10230336744E+03 0.  0.
         23    2    4    4    0    0 -0.16664053422E+03  0.26669466183E+03  0.88556612519E+02  0.34227878977E+03  0.10206559661E+03 0.  0.
          1    1    3    3  502    0 -0.24696422416E+02  0.84928099609E+02  0.28240810768E+02  0.92845240999E+02  0.00000000000E+00 0. -1.
         -2    1    3    3    0  502 -0.67021694138E+02  0.15997376539E+03 -0.58920913011E+02  0.18318074977E+03  0.00000000000E+00 0.  1.
         13    1    5    5    0    0  0.21681979581E+03 -0.32633783322E+03  0.29753995994E+03  0.49197279702E+03  0.00000000000E+00 0.  1.
        -13    1    5    5    0    0  0.41538854968E+02 -0.18525869361E+03  0.16656270556E+03  0.25256562497E+03  0.00000000000E+00 0. -1.
          4    1    6    6  503    0 -0.14638291691E+03  0.26660892731E+03  0.64656032378E+02  0.31094803586E+03  0.00000000000E+00 0. -1.
         -4    1    6    6    0  503 -0.20257617312E+02  0.85734526752E-01  0.23900580141E+02  0.31330753912E+02  0.00000000000E+00 0.  1.
<mgrwt>
<rscale>  0 0.12589199E+04</rscale>
<asrwt>0</asrwt>
<pdfrwt beam="1">  1        1 0.14498634E+00 0.12589199E+04</pdfrwt>
<pdfrwt beam="2">  1       -2 0.64681848E-01 0.12589199E+04</pdfrwt>
<totfact> 0.32039237E+01</totfact>
</mgrwt>
</event>
<event>
12    5  0.5029243E-008  0.2393938E+04  0.7818608E-02  0.8441777E-01
          1   -1    0    0  501    0  0.00000000000E+00  0.00000000000E+00  0.36393665686E+03  0.36393665686E+03  0.00000000000E+00 0. -1.
         -2   -1    0    0    0  501 -0.00000000000E+00 -0.00000000000E+00 -0.39367691998E+04  0.39367691998E+04  0.00000000000E+00 0.  1.
        -24    2    1    2    0    0 -0.68585890042E+03  0.21229574009E+03 -0.22395890446E+03  0.75619232835E+03  0.78723147979E+02 0.  0.
        254    2    1    2    0    0  0.68585890042E+03 -0.21229574009E+03 -0.33488736384E+04  0.35445135283E+04  0.91277028509E+03 0.  0.
         23    2    4    4    0    0  0.39159245938E+03  0.51784281845E+02 -0.29404134003E+04  0.29682481522E+04  0.91868723048E+02 0.  0.
         23    2    4    4    0    0  0.29426644104E+03 -0.26408002194E+03 -0.40846023810E+03  0.57626537604E+03  0.94398205507E+02 0.  0.
          3    1    3    3  502    0 -0.55786687107E+03  0.18547254359E+03 -0.21170247707E+03  0.62484674046E+03  0.00000000000E+00 0. -1.
         -4    1    3    3    0  502 -0.12799202935E+03  0.26823196505E+02 -0.12256427394E+02  0.13134558790E+03  0.00000000000E+00 0.  1.
         13    1    5    5    0    0  0.27547418732E+03  0.78277002889E+02 -0.20528166203E+04  0.20726961653E+04  0.00000000000E+00 0. -1.
        -13    1    5    5    0    0  0.11611827206E+03 -0.26492721044E+02 -0.88759678004E+03  0.89555198694E+03  0.00000000000E+00 0.  1.
          2    1    6    6  503    0  0.90996595467E+02 -0.11656066795E+03 -0.10012329194E+03  0.17858175519E+03  0.00000000000E+00 0.  1.
         -2    1    6    6    0  503  0.20326984557E+03 -0.14751935399E+03 -0.30833694617E+03  0.39768362085E+03  0.00000000000E+00 0. -1.
<mgrwt>
<rscale>  0 0.23939379E+04</rscale>
<asrwt>0</asrwt>
<pdfrwt beam="1">  1        1 0.55990252E-01 0.23939379E+04</pdfrwt>
<pdfrwt beam="2">  1       -2 0.60565683E+00 0.23939379E+04</pdfrwt>
<totfact> 0.25288323E-02</totfact>
</mgrwt>
</event>
<event>
12    5  0.5029243E-008  0.1534220E+04  0.7818608E-02  0.8862011E-01
          3   -1    0    0  501    0  0.00000000000E+00  0.00000000000E+00  0.91382062819E+03  0.91382062819E+03  0.00000000000E+00 0. -1.
         -4   -1    0    0    0  501 -0.00000000000E+00 -0.00000000000E+00 -0.64395319325E+03  0.64395319325E+03  0.00000000000E+00 0.  1.
        -24    2    1    2    0    0 -0.39393306358E+03 -0.31830840146E+03  0.18708926942E+03  0.54603085325E+03  0.81509514405E+02 0.  0.
        254    2    1    2    0    0  0.39393306358E+03  0.31830840146E+03  0.82778165520E+02  0.10117429682E+04  0.87193354792E+03 0.  0.
         23    2    4    4    0    0  0.49116397727E+03  0.53064177339E+03 -0.45299927393E+02  0.73023106772E+03  0.91447168322E+02 0.  0.
         23    2    4    4    0    0 -0.97230913692E+02 -0.21233337193E+03  0.12807809291E+03  0.28151190048E+03  0.91135288534E+02 0.  0.
          1    1    3    3  502    0 -0.38003301199E+03 -0.28812170471E+03  0.18840270579E+03  0.51277167090E+03  0.00000000000E+00 0. -1.
         -4    1    3    3    0  502 -0.13900051588E+02 -0.30186696758E+02 -0.13134363678E+01  0.33259182347E+02  0.00000000000E+00 0.  1.
         13    1    5    5    0    0  0.16736464374E+02  0.29386174202E+02 -0.20637402942E+02  0.39617658616E+02  0.00000000000E+00 0. -1.
        -13    1    5    5    0    0  0.47442751290E+03  0.50125559919E+03 -0.24662524451E+02  0.69061340910E+03  0.00000000000E+00 0.  1.
          2    1    6    6  503    0  0.77978149070E+01  0.41768423685E+01 -0.13432404702E+00  0.88470318438E+01  0.00000000000E+00 0. -1.
         -2    1    6    6    0  503 -0.10502872860E+03 -0.21651021430E+03  0.12821241696E+03  0.27266486864E+03  0.00000000000E+00 0.  1.
<mgrwt>
<rscale>  0 0.15342199E+04</rscale>
<asrwt>0</asrwt>
<pdfrwt beam="1">  1        3 0.14058779E+00 0.15342199E+04</pdfrwt>
<pdfrwt beam="2">  1       -4 0.99069722E-01 0.15342199E+04</pdfrwt>
<totfact> 0.71212015E-01</totfact>
</mgrwt>
</event>
<event>
12    5  0.5029243E-008  0.1272376E+04  0.7818608E-02  0.9051763E-01
          1   -1    0    0  501    0  0.00000000000E+00  0.00000000000E+00  0.10609387274E+04  0.10609387274E+04  0.00000000000E+00 0. -1.
         -2   -1    0    0    0  501 -0.00000000000E+00 -0.00000000000E+00 -0.38148782538E+03  0.38148782538E+03  0.00000000000E+00 0.  1.
        -24    2    1    2    0    0  0.33793916991E+02  0.77742913445E+02  0.50609829675E+03  0.52002058355E+03  0.84261093761E+02 0.  0.
        254    2    1    2    0    0 -0.33793916991E+02 -0.77742913445E+02  0.17335260525E+03  0.92240596921E+03  0.90199537519E+03 0.  0.
         23    2    4    4    0    0 -0.37452112558E+03 -0.59601704065E+02  0.35296627896E+03  0.52630752821E+03  0.92714527097E+02 0.  0.
         23    2    4    4    0    0  0.34072720859E+03 -0.18141209380E+02 -0.17961367371E+03  0.39609844100E+03  0.90602257285E+02 0.  0.
          1    1    3    3  502    0 -0.19485301553E+02 -0.58863832191E+01  0.88697685066E+02  0.91003328621E+02  0.00000000000E+00 0. -1.
         -2    1    3    3    0  502  0.53279218544E+02  0.83629296664E+02  0.41740061168E+03  0.42901725492E+03  0.00000000000E+00 0.  1.
         13    1    5    5    0    0 -0.36745693523E+02 -0.21357816943E+02  0.10510536243E+02  0.43782116317E+02  0.00000000000E+00 0. -1.
        -13    1    5    5    0    0 -0.33777543205E+03 -0.38243887122E+02  0.34245574272E+03  0.48252541189E+03  0.00000000000E+00 0.  1.
          2    1    6    6  503    0  0.30964590815E+02 -0.76230484477E+01 -0.51818418904E+02  0.60844599512E+02  0.00000000000E+00 0. -1.
         -2    1    6    6    0  503  0.30976261777E+03 -0.10518160932E+02 -0.12779525481E+03  0.33525384148E+03  0.00000000000E+00 0.  1.
<mgrwt>
<rscale>  0 0.12723761E+04</rscale>
<asrwt>0</asrwt>
<pdfrwt beam="1">  1        1 0.16322134E+00 0.12723761E+04</pdfrwt>
<pdfrwt beam="2">  1       -2 0.58690435E-01 0.12723761E+04</pdfrwt>
<totfact> 0.31798238E+01</totfact>
</mgrwt>
</event>
<event>
12    5  0.5029243E-008  0.1688390E+04  0.7818608E-02  0.8768014E-01
         -2   -1    0    0    0  501 -0.00000000000E+00  0.00000000000E+00  0.11911085493E+04  0.11911085493E+04  0.00000000000E+00 0.  1.
          1   -1    0    0  501    0  0.00000000000E+00 -0.00000000000E+00 -0.59832120373E+03  0.59832120373E+03  0.00000000000E+00 0. -1.
        -24    2    1    2    0    0 -0.37949466064E+03  0.87297836850E+02  0.69683176738E+03  0.80223386516E+03  0.79796946190E+02 0.  0.
        254    2    1    2    0    0  0.37949466064E+03 -0.87297836850E+02 -0.10404442178E+03  0.98719588789E+03  0.90116223268E+03 0.  0.
         23    2    4    4    0    0  0.66214978687E+03 -0.79650293295E+01 -0.12425587468E+03  0.68004935681E+03  0.92313722497E+02 0.  0.
         23    2    4    4    0    0 -0.28265512623E+03 -0.79332807521E+02  0.20211452905E+02  0.30714653108E+03  0.87993601997E+02 0.  0.
          3    1    3    3  502    0 -0.11878787685E+03  0.16870852666E+01  0.26761122732E+03  0.29279544896E+03  0.00000000000E+00 0. -1.
         -4    1    3    3    0  502 -0.26070678379E+03  0.85610751584E+02  0.42922054005E+03  0.50943841620E+03  0.00000000000E+00 0.  1.
         13    1    5    5    0    0  0.79828959276E+02 -0.71693362680E+01 -0.46220991192E+02  0.92522657486E+02  0.00000000000E+00 0.  1.
        -13    1    5    5    0    0  0.58232082760E+03 -0.79569306150E+00 -0.78034883491E+02  0.58752669933E+03  0.00000000000E+00 0. -1.
          2    1    6    6  503    0 -0.53422392261E+02 -0.15347929681E+02  0.39774691647E+02  0.68348643264E+02  0.00000000000E+00 0.  1.
         -2    1    6    6    0  503 -0.22923273397E+03 -0.63984877840E+02 -0.19563238742E+02  0.23879788782E+03  0.00000000000E+00 0. -1.
<mgrwt>
<rscale>  0 0.16883904E+04</rscale>
<asrwt>0</asrwt>
<pdfrwt beam="1">  1        1 0.92049416E-01 0.16883904E+04</pdfrwt>
<pdfrwt beam="2">  1       -2 0.18324747E+00 0.16883904E+04</pdfrwt>
<totfact> 0.49336360E+00</totfact>
</mgrwt>
</event>
<event>
12    5  0.5029243E-008  0.2122144E+04  0.7818608E-02  0.8551551E-01
          1   -1    0    0  501    0  0.00000000000E+00  0.00000000000E+00  0.24718521857E+04  0.24718521857E+04  0.00000000000E+00 0. -1.
         -2   -1    0    0    0  501 -0.00000000000E+00 -0.00000000000E+00 -0.45547785442E+03  0.45547785442E+03  0.00000000000E+00 0.  1.
        -24    2    1    2    0    0  0.87236283721E+02 -0.40951080011E+03  0.17949756714E+04  0.18448903617E+04  0.79834334055E+02 0.  0.
        254    2    1    2    0    0 -0.87236283721E+02  0.40951080011E+03  0.22139865989E+03  0.10824396785E+04  0.97331856368E+03 0.  0.
         23    2    4    4    0    0 -0.23314441583E+03 -0.16904077773E+03 -0.18464994845E+03  0.35523377837E+03  0.95730510593E+02 0.  0.
         23    2    4    4    0    0  0.14590813211E+03  0.57855157784E+03  0.40604860834E+03  0.72720590015E+03  0.89116988454E+02 0.  0.
          1    1    3    3  502    0  0.73009260966E+02 -0.35668501840E+03  0.14193525039E+04  0.14653040929E+04  0.00000000000E+00 0. -1.
         -2    1    3    3    0  502  0.14227022754E+02 -0.52825781708E+02  0.37562316758E+03  0.37958626873E+03  0.00000000000E+00 0.  1.
         13    1    5    5    0    0 -0.20185188414E+03 -0.14866397795E+03 -0.11415006150E+03  0.27545489288E+03  0.00000000000E+00 0.  1.
        -13    1    5    5    0    0 -0.31292531691E+02 -0.20376799786E+02 -0.70499886954E+02  0.79778885488E+02  0.00000000000E+00 0. -1.
          1    1    6    6  503    0  0.23492841706E+02  0.19623086657E+03  0.94544607507E+02  0.21908251737E+03  0.00000000000E+00 0. -1.
         -1    1    6    6    0  503  0.12241529041E+03  0.38232071127E+03  0.31150400083E+03  0.50812338278E+03  0.00000000000E+00 0.  1.
<mgrwt>
<rscale>  0 0.21221441E+04</rscale>
<asrwt>0</asrwt>
<pdfrwt beam="1">  1        1 0.38028494E+00 0.21221441E+04</pdfrwt>
<pdfrwt beam="2">  1       -2 0.70073518E-01 0.21221441E+04</pdfrwt>
<totfact> 0.21199343E+00</totfact>
</mgrwt>
</event>
<event>
12    5  0.5029243E-008  0.1865046E+04  0.7818608E-02  0.8672453E-01
         -2   -1    0    0    0  501 -0.00000000000E+00  0.00000000000E+00  0.12786786283E+04  0.12786786283E+04  0.00000000000E+00 0.  1.
          1   -1    0    0  501    0  0.00000000000E+00 -0.00000000000E+00 -0.68007643788E+03  0.68007643788E+03  0.00000000000E+00 0. -1.
        -24    2    1    2    0    0 -0.40660683891E+03  0.57891023173E+03  0.26824980429E+03  0.76050374033E+03  0.77083096119E+02 0.  0.
        254    2    1    2    0    0  0.40660683891E+03 -0.57891023173E+03  0.33035238608E+03  0.11982513258E+04  0.90895949467E+03 0.  0.
         23    2    4    4    0    0 -0.21086566795E+03 -0.17178065089E+03  0.35009123072E+03  0.45250829160E+03  0.90702603046E+02 0.  0.
         23    2    4    4    0    0  0.61747250686E+03 -0.40712958084E+03 -0.19738844635E+02  0.74574303421E+03  0.93360905991E+02 0.  0.
          3    1    3    3  502    0 -0.33949155388E+02  0.78555926738E+02  0.13594287450E+02  0.86650928607E+02  0.00000000000E+00 0. -1.
         -4    1    3    3    0  502 -0.37265768353E+03  0.50035430499E+03  0.25465551684E+03  0.67385281173E+03  0.00000000000E+00 0.  1.
         13    1    5    5    0    0 -0.82314918325E+02 -0.12245927980E+03  0.15821560407E+03  0.21634277977E+03  0.00000000000E+00 0. -1.
        -13    1    5    5    0    0 -0.12855074962E+03 -0.49321371094E+02  0.19187562665E+03  0.23616551183E+03  0.00000000000E+00 0.  1.
          3    1    6    6  503    0  0.40159747306E+03 -0.22031830675E+03 -0.38280430066E+02  0.45965865377E+03  0.00000000000E+00 0. -1.
         -3    1    6    6    0  503  0.21587503380E+03 -0.18681127408E+03  0.18541585431E+02  0.28608438044E+03  0.00000000000E+00 0.  1.
<mgrwt>
<rscale>  0 0.18650461E+04</rscale>
<asrwt>0</asrwt>
<pdfrwt beam="1">  1        1 0.10462714E+00 0.18650461E+04</pdfrwt>
<pdfrwt beam="2">  1       -2 0.19671979E+00 0.18650461E+04</pdfrwt>
<totfact> 0.32676601E+00</totfact>
</mgrwt>
</event>
<event>
12    5  0.5029243E-008  0.2197453E+04  0.7818608E-02  0.8519489E-01
         -2   -1    0    0    0  501 -0.00000000000E+00  0.00000000000E+00  0.13959272619E+04  0.13959272619E+04  0.00000000000E+00 0.  1.
          1   -1    0    0  501    0  0.00000000000E+00 -0.00000000000E+00 -0.86480152067E+03  0.86480152067E+03  0.00000000000E+00 0. -1.
        -24    2    1    2    0    0 -0.77246754253E+03  0.44646171246E+03  0.15322874464E+02  0.89586583133E+03  0.79414307924E+02 0.  0.
        254    2    1    2    0    0  0.77246754253E+03 -0.44646171246E+03  0.51580286677E+03  0.13648629512E+04  0.89485424140E+03 0.  0.
         23    2    4    4    0    0  0.65614775884E+03 -0.70265878201E+03  0.42098358379E+03  0.10536088745E+04  0.92764418276E+02 0.  0.
         23    2    4    4    0    0  0.11631978370E+03  0.25619706955E+03  0.94819282978E+02  0.31125407672E+03  0.93387222507E+02 0.  0.
          3    1    3    3  502    0 -0.39507533719E+02  0.42946500237E+02 -0.76745882529E+01  0.58856999651E+02  0.00000000000E+00 0. -1.
         -4    1    3    3    0  502 -0.73296000882E+03  0.40351521223E+03  0.22997462716E+02  0.83700883168E+03  0.00000000000E+00 0.  1.
         13    1    5    5    0    0  0.22449787674E+02 -0.64079636567E+01  0.18236466414E+02  0.29624713873E+02  0.00000000000E+00 0. -1.
        -13    1    5    5    0    0  0.63369797116E+03 -0.69625081835E+03  0.40274711738E+03  0.10239841607E+04  0.00000000000E+00 0.  1.
          2    1    6    6  503    0  0.55442726158E+02  0.34958408911E+02  0.34154358046E+02  0.73908770866E+02  0.00000000000E+00 0. -1.
         -2    1    6    6    0  503  0.60877057539E+02  0.22123866063E+03  0.60664924932E+02  0.23734530585E+03  0.00000000000E+00 0.  1.
<mgrwt>
<rscale>  0 0.21974531E+04</rscale>
<asrwt>0</asrwt>
<pdfrwt beam="1">  1        1 0.13304639E+00 0.21974531E+04</pdfrwt>
<pdfrwt beam="2">  1       -2 0.21475804E+00 0.21974531E+04</pdfrwt>
<totfact> 0.16598173E+00</totfact>
</mgrwt>
</event>
<event>
12    5  0.5029243E-008  0.1168302E+04  0.7818608E-02  0.9141064E-01
         -2   -1    0    0    0  501 -0.00000000000E+00  0.00000000000E+00  0.26050154251E+03  0.26050154251E+03  0.00000000000E+00 0.  1.
          1   -1    0    0  501    0  0.00000000000E+00 -0.00000000000E+00 -0.13099047650E+04  0.13099047650E+04  0.00000000000E+00 0. -1.
        -24    2    1    2    0    0 -0.15760124643E+02 -0.10719770986E+03  0.52827655201E+02  0.14448997900E+03  0.79667197440E+02 0.  0.
        254    2    1    2    0    0  0.15760124643E+02  0.10719770986E+03 -0.11022308777E+04  0.14259163285E+04  0.89810062781E+03 0.  0.
         23    2    4    4    0    0  0.19983667529E+03 -0.20733915978E+03 -0.46752953544E+02  0.30541642818E+03  0.90383250485E+02 0.  0.
         23    2    4    4    0    0 -0.18407655064E+03  0.31453686964E+03 -0.10554779242E+04  0.11204999003E+04  0.93106172874E+02 0.  0.
          1    1    3    3  502    0  0.16823188521E+02  0.41689274814E+01  0.13506323753E+02  0.21973174775E+02  0.00000000000E+00 0. -1.
         -2    1    3    3    0  502 -0.32583313164E+02 -0.11136663734E+03  0.39321331449E+02  0.12251680422E+03  0.00000000000E+00 0.  1.
         13    1    5    5    0    0  0.65010313725E+02 -0.46143829133E+02 -0.52037219500E+02  0.95202237741E+02  0.00000000000E+00 0. -1.
        -13    1    5    5    0    0  0.13482636156E+03 -0.16119533065E+03  0.52842659558E+01  0.21021419044E+03  0.00000000000E+00 0.  1.
          1    1    6    6  503    0 -0.55765299274E+02  0.18231208259E+03 -0.49107923860E+03  0.52678865083E+03  0.00000000000E+00 0. -1.
         -1    1    6    6    0  503 -0.12831125137E+03  0.13222478706E+03 -0.56439868556E+03  0.59371124951E+03  0.00000000000E+00 0.  1.
<mgrwt>
<rscale>  0 0.11683017E+04</rscale>
<asrwt>0</asrwt>
<pdfrwt beam="1">  1        1 0.20152381E+00 0.11683017E+04</pdfrwt>
<pdfrwt beam="2">  1       -2 0.40077161E-01 0.11683017E+04</pdfrwt>
<totfact> 0.45611065E+01</totfact>
</mgrwt>
</event>
<event>
12    5  0.5029243E-008  0.1328213E+04  0.7818608E-02  0.9007486E-01
         -2   -1    0    0    0  501 -0.00000000000E+00  0.00000000000E+00  0.35552317657E+03  0.35552317657E+03  0.00000000000E+00 0.  1.
          1   -1    0    0  501    0  0.00000000000E+00 -0.00000000000E+00 -0.12405305879E+04  0.12405305879E+04  0.00000000000E+00 0. -1.
        -24    2    1    2    0    0  0.81057420378E+02 -0.83967436795E+02  0.16080461864E+03  0.21393025403E+03  0.79291817818E+02 0.  0.
        254    2    1    2    0    0 -0.81057420378E+02  0.83967436795E+02 -0.10458120299E+04  0.13821235104E+04  0.89605901605E+03 0.  0.
         23    2    4    4    0    0  0.39740898880E+03 -0.65496019657E+01 -0.43121908009E+03  0.59269039662E+03  0.85762518320E+02 0.  0.
         23    2    4    4    0    0 -0.47846640918E+03  0.90517038760E+02 -0.61459294985E+03  0.78943311380E+03  0.91415032373E+02 0.  0.
          1    1    3    3  502    0  0.13493289137E+01 -0.27239487830E+02  0.19199443269E+01  0.27340383538E+02  0.00000000000E+00 0. -1.
         -2    1    3    3    0  502  0.79708091464E+02 -0.56727948964E+02  0.15888467431E+03  0.18658987049E+03  0.00000000000E+00 0.  1.
         13    1    5    5    0    0  0.29590655724E+03  0.11082732687E+02 -0.36588984134E+03  0.47070042870E+03  0.00000000000E+00 0.  1.
        -13    1    5    5    0    0  0.10150243156E+03 -0.17632334653E+02 -0.65329238749E+02  0.12198996792E+03  0.00000000000E+00 0. -1.
          3    1    6    6  503    0 -0.24546998975E+02  0.22348085835E+02 -0.68019428785E+02  0.75687745319E+02  0.00000000000E+00 0. -1.
         -3    1    6    6    0  503 -0.45391941020E+03  0.68168952925E+02 -0.54657352106E+03  0.71374536848E+03  0.00000000000E+00 0.  1.
<mgrwt>
<rscale>  0 0.13282129E+04</rscale>
<asrwt>0</asrwt>
<pdfrwt beam="1">  1        1 0.19085086E+00 0.13282129E+04</pdfrwt>
<pdfrwt beam="2">  1       -2 0.54695873E-01 0.13282129E+04</pdfrwt>
<totfact> 0.26999109E+01</totfact>
</mgrwt>
</event>
<event>
12    5  0.5029243E-008  0.1816429E+04  0.7818608E-02  0.8697611E-01
         -2   -1    0    0    0  501 -0.00000000000E+00  0.00000000000E+00  0.46742905202E+03  0.46742905202E+03  0.00000000000E+00 0.  1.
          1   -1    0    0  501    0  0.00000000000E+00 -0.00000000000E+00 -0.17646614327E+04  0.17646614327E+04  0.00000000000E+00 0. -1.
        -24    2    1    2    0    0 -0.60500690331E+03  0.98727599214E+02 -0.87113562041E+03  0.10682541615E+04  0.80679566656E+02 0.  0.
        254    2    1    2    0    0  0.60500690331E+03 -0.98727599214E+02 -0.42609676030E+03  0.11638363233E+04  0.89284715733E+03 0.  0.
         23    2    4    4    0    0 -0.12389852593E+03  0.15114988854E+03  0.87213138543E+02  0.23360262327E+03  0.93631835021E+02 0.  0.
         23    2    4    4    0    0  0.72890542924E+03 -0.24987748775E+03 -0.51330989884E+03  0.93023370001E+03  0.90032220523E+02 0.  0.
          3    1    3    3  502    0 -0.58924840120E+03  0.87721937140E+02 -0.85952851048E+03  0.10458002089E+04  0.00000000000E+00 0. -1.
         -4    1    3    3    0  502 -0.15758502104E+02  0.11005662073E+02 -0.11607109933E+02  0.22453952597E+02  0.00000000000E+00 0.  1.
         13    1    5    5    0    0 -0.79746399307E+02  0.35817617932E+02  0.10082763046E+02  0.88000295837E+02  0.00000000000E+00 0.  1.
        -13    1    5    5    0    0 -0.44152126624E+02  0.11533227060E+03  0.77130375497E+02  0.14560232743E+03  0.00000000000E+00 0. -1.
          1    1    6    6  503    0  0.66048802926E+03 -0.21857720284E+03 -0.42952595664E+03  0.81762642926E+03  0.00000000000E+00 0. -1.
         -1    1    6    6    0  503  0.68417399978E+02 -0.31300284912E+02 -0.83783942205E+02  0.11260727075E+03  0.00000000000E+00 0.  1.
<mgrwt>
<rscale>  0 0.18164295E+04</rscale>
<asrwt>0</asrwt>
<pdfrwt beam="1">  1        1 0.27148637E+00 0.18164295E+04</pdfrwt>
<pdfrwt beam="2">  1       -2 0.71912162E-01 0.18164295E+04</pdfrwt>
<totfact> 0.62412668E+00</totfact>
</mgrwt>
</event>
<event>
12    5  0.5029243E-008  0.2320659E+04  0.7818608E-02  0.8469820E-01
         -2   -1    0    0    0  501 -0.00000000000E+00  0.00000000000E+00  0.25543082982E+04  0.25543082982E+04  0.00000000000E+00 0.  1.
          1   -1    0    0  501    0  0.00000000000E+00 -0.00000000000E+00 -0.52709565363E+03  0.52709565363E+03  0.00000000000E+00 0. -1.
        -24    2    1    2    0    0 -0.59062534845E+03  0.31098104008E+02  0.19085982761E+04  0.19996905774E+04  0.78801213282E+02 0.  0.
        254    2    1    2    0    0  0.59062534845E+03 -0.31098104008E+02  0.11861436845E+03  0.10817133745E+04  0.89790259039E+03 0.  0.
         23    2    4    4    0    0  0.44477062265E+03 -0.11784859653E+03  0.48084951524E+03  0.67168438793E+03  0.90743937531E+02 0.  0.
         23    2    4    4    0    0  0.14585472580E+03  0.86750492525E+02 -0.36223514679E+03  0.41002898655E+03  0.90056755734E+02 0.  0.
          1    1    3    3  502    0 -0.16116537754E+03 -0.25241776684E+02  0.55538837108E+03  0.57885029925E+03  0.00000000000E+00 0. -1.
         -2    1    3    3    0  502 -0.42945997091E+03  0.56339880692E+02  0.13532099051E+04  0.14208402781E+04  0.00000000000E+00 0.  1.
         13    1    5    5    0    0  0.34695923367E+03 -0.12919672571E+03  0.37018955885E+03  0.52355784135E+03  0.00000000000E+00 0. -1.
        -13    1    5    5    0    0  0.97811388986E+02  0.11348129181E+02  0.11065995640E+03  0.14812654658E+03  0.00000000000E+00 0.  1.
          2    1    6    6  503    0  0.15434693720E+03  0.65122286444E+02 -0.30010253399E+03  0.34369378831E+03  0.00000000000E+00 0. -1.
         -2    1    6    6    0  503 -0.84922114035E+01  0.21628206081E+02 -0.62132612796E+02  0.66335198241E+02  0.00000000000E+00 0.  1.
<mgrwt>
<rscale>  0 0.23206592E+04</rscale>
<asrwt>0</asrwt>
<pdfrwt beam="1">  1        1 0.81091640E-01 0.23206592E+04</pdfrwt>
<pdfrwt beam="2">  1       -2 0.39297050E+00 0.23206592E+04</pdfrwt>
<totfact> 0.26881883E-01</totfact>
</mgrwt>
</event>
<event>
12    5  0.5029243E-008  0.2010778E+04  0.7818608E-02  0.8601598E-01
          1   -1    0    0  501    0  0.00000000000E+00  0.00000000000E+00  0.18470994883E+04  0.18470994883E+04  0.00000000000E+00 0. -1.
         -2   -1    0    0    0  501 -0.00000000000E+00 -0.00000000000E+00 -0.54724042673E+03  0.54724042673E+03  0.00000000000E+00 0.  1.
        -24    2    1    2    0    0 -0.28150039712E+03  0.46615358448E+03  0.12238376211E+04  0.13422247212E+04  0.85129558204E+02 0.  0.
        254    2    1    2    0    0  0.28150039712E+03 -0.46615358448E+03  0.76021440545E+02  0.10521151938E+04  0.89700918823E+03 0.  0.
         23    2    4    4    0    0  0.56747782094E+03 -0.47762789602E+03  0.27933650144E+02  0.74765768294E+03  0.89734261735E+02 0.  0.
         23    2    4    4    0    0 -0.28597742382E+03  0.11474311539E+02  0.48087790401E+02  0.30445751089E+03  0.92017354848E+02 0.  0.
          3    1    3    3  502    0 -0.23558081107E+03  0.42989470968E+03  0.11283633387E+04  0.12302485944E+04  0.00000000000E+00 0. -1.
         -4    1    3    3    0  502 -0.45919586057E+02  0.36258874792E+02  0.95474282391E+02  0.11197612684E+03  0.00000000000E+00 0.  1.
         13    1    5    5    0    0  0.15869287391E+03 -0.18861404417E+03  0.10957718058E+02  0.24673621030E+03  0.00000000000E+00 0. -1.
        -13    1    5    5    0    0  0.40878494703E+03 -0.28901385185E+03  0.16975932086E+02  0.50092147264E+03  0.00000000000E+00 0.  1.
          1    1    6    6  503    0  0.45317250336E+01  0.88855019997E+01 -0.57177380013E-01  0.99745649939E+01  0.00000000000E+00 0. -1.
         -1    1    6    6    0  503 -0.29050914886E+03  0.25888095395E+01  0.48144967781E+02  0.29448294590E+03  0.00000000000E+00 0.  1.
<mgrwt>
<rscale>  0 0.20107785E+04</rscale>
<asrwt>0</asrwt>
<pdfrwt beam="1">  1        1 0.28416915E+00 0.20107785E+04</pdfrwt>
<pdfrwt beam="2">  1       -2 0.84190836E-01 0.20107785E+04</pdfrwt>
<totfact> 0.37926195E+00</totfact>
</mgrwt>
</event>
<event>
12    5  0.5029243E-008  0.1290021E+04  0.7818608E-02  0.9037516E-01
          3   -1    0    0  501    0  0.00000000000E+00  0.00000000000E+00  0.55249279430E+03  0.55249279430E+03  0.00000000000E+00 0. -1.
         -4   -1    0    0    0  501 -0.00000000000E+00 -0.00000000000E+00 -0.75302101584E+03  0.75302101584E+03  0.00000000000E+00 0.  1.
        -24    2    1    2    0    0  0.65440481142E+02 -0.20310373933E+03  0.14439281982E+03  0.27060169029E+03  0.82718818116E+02 0.  0.
        254    2    1    2    0    0 -0.65440481142E+02  0.20310373933E+03 -0.34492104136E+03  0.10349121199E+04  0.95212340878E+03 0.  0.
         23    2    4    4    0    0  0.21369522295E+03  0.50237965033E+03 -0.15843387691E+03  0.57611921974E+03  0.93600751159E+02 0.  0.
         23    2    4    4    0    0 -0.27913570409E+03 -0.29927591101E+03 -0.18648716445E+03  0.45879290012E+03  0.90722932525E+02 0.  0.
          1    1    3    3  502    0  0.35354541975E+02 -0.54669590919E+02  0.58956513293E+01  0.65371756241E+02  0.00000000000E+00 0. -1.
         -2    1    3    3    0  502  0.30085939167E+02 -0.14843414841E+03  0.13849716849E+03  0.20522993405E+03  0.00000000000E+00 0.  1.
         13    1    5    5    0    0  0.13913774533E+02  0.79629116881E+01  0.74236234710E+01  0.17666671157E+02  0.00000000000E+00 0.  1.
        -13    1    5    5    0    0  0.19978144842E+03  0.49441673865E+03 -0.16585750038E+03  0.55845254858E+03  0.00000000000E+00 0. -1.
          3    1    6    6  503    0 -0.24528263663E+03 -0.28632263550E+03 -0.14561394402E+03  0.40416289305E+03  0.00000000000E+00 0. -1.
         -3    1    6    6    0  503 -0.33853067467E+02 -0.12953275509E+02 -0.40873220435E+02  0.54630007067E+02  0.00000000000E+00 0.  1.
<mgrwt>
<rscale>  0 0.12900212E+04</rscale>
<asrwt>0</asrwt>
<pdfrwt beam="1">  1        3 0.84998892E-01 0.12900212E+04</pdfrwt>
<pdfrwt beam="2">  1       -4 0.11584939E+00 0.12900212E+04</pdfrwt>
<totfact> 0.16464427E+00</totfact>
</mgrwt>
</event>
<event>
12    5  0.5029243E-008  0.2287556E+04  0.7818608E-02  0.8482844E-01
          1   -1    0    0  501    0  0.00000000000E+00  0.00000000000E+00  0.45634413361E+04  0.45634413361E+04  0.00000000000E+00 0. -1.
         -2   -1    0    0    0  501 -0.00000000000E+00 -0.00000000000E+00 -0.28667589234E+03  0.28667589234E+03  0.00000000000E+00 0.  1.
        -24    2    1    2    0    0  0.35697939178E+03 -0.25971485596E+02 -0.90906393323E+02  0.37779684630E+03  0.79735064447E+02 0.  0.
        254    2    1    2    0    0 -0.35697939178E+03  0.25971485596E+02  0.43676718371E+04  0.44723203822E+04  0.89273933481E+03 0.  0.
         23    2    4    4    0    0  0.20387746795E+03  0.22569057305E+03  0.21818972756E+04  0.22050400346E+04  0.94992505256E+02 0.  0.
         23    2    4    4    0    0 -0.56085685974E+03 -0.19971908746E+03  0.21857745615E+04  0.22672803476E+04  0.92204175155E+02 0.  0.
          1    1    3    3  502    0  0.56036805518E+02  0.27039088839E+01  0.13971337354E+02  0.57815507983E+02  0.00000000000E+00 0. -1.
         -2    1    3    3    0  502  0.30094258627E+03 -0.28675394479E+02 -0.10487773068E+03  0.31998133831E+03  0.00000000000E+00 0.  1.
         13    1    5    5    0    0  0.68376669362E+02  0.65658083417E+02  0.10179919197E+04  0.10223961568E+04  0.00000000000E+00 0. -1.
        -13    1    5    5    0    0  0.13550079859E+03  0.16003248964E+03  0.11639053559E+04  0.11826438777E+04  0.00000000000E+00 0.  1.
          1    1    6    6  503    0 -0.12018632071E+03 -0.68374838713E+02  0.39878128349E+03  0.42207390623E+03  0.00000000000E+00 0. -1.
         -1    1    6    6    0  503 -0.44067053903E+03 -0.13134424874E+03  0.17869932780E+04  0.18452064414E+04  0.00000000000E+00 0.  1.
<mgrwt>
<rscale>  0 0.22875564E+04</rscale>
<asrwt>0</asrwt>
<pdfrwt beam="1">  1        1 0.70206785E+00 0.22875564E+04</pdfrwt>
<pdfrwt beam="2">  1       -2 0.44103987E-01 0.22875564E+04</pdfrwt>
<totfact> 0.10824465E-01</totfact>
</mgrwt>
</event>
<event>
12    5  0.5029243E-008  0.1681473E+04  0.7818608E-02  0.8772002E-01
         -2   -1    0    0    0  501 -0.00000000000E+00  0.00000000000E+00  0.28588610800E+03  0.28588610800E+03  0.00000000000E+00 0.  1.
          1   -1    0    0  501    0  0.00000000000E+00 -0.00000000000E+00 -0.24724458591E+04  0.24724458591E+04  0.00000000000E+00 0. -1.
        -24    2    1    2    0    0 -0.34786566368E+03 -0.27938270616E+03 -0.13474327570E+03  0.47265971691E+03  0.78652661587E+02 0.  0.
        254    2    1    2    0    0  0.34786566368E+03  0.27938270616E+03 -0.20518164754E+04  0.22856722502E+04  0.90292943803E+03 0.  0.
         23    2    4    4    0    0 -0.99137473016E+02  0.47315888575E+03 -0.12464090837E+04  0.13399768878E+04  0.91076265150E+02 0.  0.
         23    2    4    4    0    0  0.44700313670E+03 -0.19377617959E+03 -0.80540739165E+03  0.94569536238E+03  0.91091382166E+02 0.  0.
          3    1    3    3  502    0 -0.11066242446E+03 -0.82424270308E+02 -0.80072275080E+02  0.15953526807E+03  0.00000000000E+00 0. -1.
         -4    1    3    3    0  502 -0.23720323923E+03 -0.19695843585E+03 -0.54671000618E+02  0.31312444884E+03  0.00000000000E+00 0.  1.
         13    1    5    5    0    0 -0.55393352323E+02  0.39886640592E+03 -0.96483557972E+03  0.10455001335E+04  0.00000000000E+00 0. -1.
        -13    1    5    5    0    0 -0.43744120694E+02  0.74292479829E+02 -0.28157350399E+03  0.29447675427E+03  0.00000000000E+00 0.  1.
          2    1    6    6  503    0  0.39866390175E+03 -0.14028125917E+03 -0.70728061949E+03  0.82392816006E+03  0.00000000000E+00 0. -1.
         -2    1    6    6    0  503  0.48339234948E+02 -0.53494920418E+02 -0.98126772159E+02  0.12176720232E+03  0.00000000000E+00 0.  1.
<mgrwt>
<rscale>  0 0.16814731E+04</rscale>
<asrwt>0</asrwt>
<pdfrwt beam="1">  1        1 0.38037628E+00 0.16814731E+04</pdfrwt>
<pdfrwt beam="2">  1       -2 0.43982478E-01 0.16814731E+04</pdfrwt>
<totfact> 0.58174158E+00</totfact>
</mgrwt>
</event>
<event>
12    5  0.5029243E-008  0.2260535E+04  0.7818608E-02  0.8493646E-01
          1   -1    0    0  501    0  0.00000000000E+00  0.00000000000E+00  0.66937028314E+03  0.66937028314E+03  0.00000000000E+00 0. -1.
         -2   -1    0    0    0  501 -0.00000000000E+00 -0.00000000000E+00 -0.19085177217E+04  0.19085177217E+04  0.00000000000E+00 0.  1.
        -24    2    1    2    0    0  0.69817049140E+03 -0.61966421639E+03 -0.31390804575E+03  0.98815003880E+03  0.80476467636E+02 0.  0.
        254    2    1    2    0    0 -0.69817049140E+03  0.61966421639E+03 -0.92523939276E+03  0.15897379660E+04  0.89430033573E+03 0.  0.
         23    2    4    4    0    0 -0.48416121739E+03 -0.31651469885E+02 -0.71095732017E+03  0.86576554962E+03  0.93143844844E+02 0.  0.
         23    2    4    4    0    0 -0.21400927401E+03  0.65131568628E+03 -0.21428207259E+03  0.72397241638E+03  0.90593379977E+02 0.  0.
          1    1    3    3  502    0  0.38223280931E+03 -0.29617223318E+03 -0.13682168544E+03  0.50253366636E+03  0.00000000000E+00 0. -1.
         -2    1    3    3    0  502  0.31593768209E+03 -0.32349198321E+03 -0.17708636031E+03  0.48561637243E+03  0.00000000000E+00 0.  1.
         13    1    5    5    0    0 -0.51742468907E+02  0.33579314688E+01 -0.34974139936E+02  0.62543978580E+02  0.00000000000E+00 0. -1.
        -13    1    5    5    0    0 -0.43241874848E+03 -0.35009401354E+02 -0.67598318023E+03  0.80322157104E+03  0.00000000000E+00 0.  1.
          3    1    6    6  503    0 -0.13370365621E+03  0.52574450883E+03 -0.16844349618E+03  0.56802919613E+03  0.00000000000E+00 0. -1.
         -3    1    6    6    0  503 -0.80305617801E+02  0.12557117744E+03 -0.45838576415E+02  0.15594322025E+03  0.00000000000E+00 0.  1.
<mgrwt>
<rscale>  0 0.22605354E+04</rscale>
<asrwt>0</asrwt>
<pdfrwt beam="1">  1        1 0.10298004E+00 0.22605354E+04</pdfrwt>
<pdfrwt beam="2">  1       -2 0.29361811E+00 0.22605354E+04</pdfrwt>
<totfact> 0.80585295E-01</totfact>
</mgrwt>
</event>
<event>
12    5  0.5029243E-008  0.1251527E+04  0.7818608E-02  0.9068913E-01
         -2   -1    0    0    0  501 -0.00000000000E+00  0.00000000000E+00  0.55810411083E+03  0.55810411083E+03  0.00000000000E+00 0.  1.
          1   -1    0    0  501    0  0.00000000000E+00 -0.00000000000E+00 -0.70162535180E+03  0.70162535180E+03  0.00000000000E+00 0. -1.
        -24    2    1    2    0    0 -0.10535787344E+03 -0.20347003490E+03 -0.23018732262E+03  0.33452938041E+03  0.80145906112E+02 0.  0.
        254    2    1    2    0    0  0.10535787344E+03  0.20347003490E+03  0.86666081647E+02  0.92520008222E+03  0.89217926776E+03 0.  0.
         23    2    4    4    0    0  0.39349278695E+03  0.50916656860E+02  0.31688750199E+03  0.51585923161E+03  0.90906427675E+02 0.  0.
         23    2    4    4    0    0 -0.28813491352E+03  0.15255337804E+03 -0.23022142034E+03  0.40934085061E+03  0.90905269656E+02 0.  0.
          1    1    3    3  502    0 -0.74897011410E+02 -0.18540809451E+03 -0.22080662337E+03  0.29789476120E+03  0.00000000000E+00 0. -1.
         -2    1    3    3    0  502 -0.30460862026E+02 -0.18061940397E+02 -0.93806992438E+01  0.36634619209E+02  0.00000000000E+00 0.  1.
         13    1    5    5    0    0  0.19952436991E+03  0.50808592599E+02  0.11474659953E+03  0.23570801721E+03  0.00000000000E+00 0. -1.
        -13    1    5    5    0    0  0.19396841704E+03  0.10806426066E+00  0.20214090246E+03  0.28015121441E+03  0.00000000000E+00 0.  1.
          3    1    6    6  503    0 -0.10835917953E+03  0.10489576711E+02 -0.84306947693E+02  0.13769315320E+03  0.00000000000E+00 0. -1.
         -3    1    6    6    0  503 -0.17977573399E+03  0.14206380133E+03 -0.14591447265E+03  0.27164769741E+03  0.00000000000E+00 0.  1.
<mgrwt>
<rscale>  0 0.12515271E+04</rscale>
<asrwt>0</asrwt>
<pdfrwt beam="1">  1        1 0.10794236E+00 0.12515271E+04</pdfrwt>
<pdfrwt beam="2">  1       -2 0.85862170E-01 0.12515271E+04</pdfrwt>
<totfact> 0.27608290E+01</totfact>
</mgrwt>
</event>
<event>
12    5  0.5029243E-008  0.1281920E+04  0.7818608E-02  0.9044027E-01
         -2   -1    0    0    0  501 -0.00000000000E+00  0.00000000000E+00  0.51836112841E+03  0.51836112841E+03  0.00000000000E+00 0.  1.
          1   -1    0    0  501    0  0.00000000000E+00 -0.00000000000E+00 -0.79255565014E+03  0.79255565014E+03  0.00000000000E+00 0. -1.
        -24    2    1    2    0    0  0.19621634989E+03 -0.27024069199E+03 -0.85485389080E+02  0.35357225611E+03  0.78579265533E+02 0.  0.
        254    2    1    2    0    0 -0.19621634989E+03  0.27024069199E+03 -0.18870913264E+03  0.95734452244E+03  0.87713540023E+03 0.  0.
         23    2    4    4    0    0 -0.14541855429E+03  0.13555665335E+03  0.33895653801E+03  0.40395647921E+03  0.93633008298E+02 0.  0.
         23    2    4    4    0    0 -0.50797795606E+02  0.13468403864E+03 -0.52766567065E+03  0.55338804323E+03  0.84184678524E+02 0.  0.
          3    1    3    3  502    0  0.17187626031E+03 -0.22037664778E+03 -0.41029782006E+02  0.28247258054E+03  0.00000000000E+00 0. -1.
         -4    1    3    3    0  502  0.24340089582E+02 -0.49864044214E+02 -0.44455607075E+02  0.71099675574E+02  0.00000000000E+00 0.  1.
         13    1    5    5    0    0 -0.32677491926E+02  0.89240409620E+02  0.11697453545E+03  0.15071400443E+03  0.00000000000E+00 0. -1.
        -13    1    5    5    0    0 -0.11274106236E+03  0.46316243731E+02  0.22198200255E+03  0.25324247478E+03  0.00000000000E+00 0.  1.
          3    1    6    6  503    0  0.65634955340E+01  0.25001041279E+02 -0.22368165456E+03  0.22517018925E+03  0.00000000000E+00 0. -1.
         -3    1    6    6    0  503 -0.57361291140E+02  0.10968299736E+03 -0.30398401609E+03  0.32821785398E+03  0.00000000000E+00 0.  1.
<mgrwt>
<rscale>  0 0.12819205E+04</rscale>
<asrwt>0</asrwt>
<pdfrwt beam="1">  1        1 0.12193164E+00 0.12819205E+04</pdfrwt>
<pdfrwt beam="2">  1       -2 0.79747866E-01 0.12819205E+04</pdfrwt>
<totfact> 0.26936142E+01</totfact>
</mgrwt>
</event>
<event>
12    5  0.5029243E-008  0.1393504E+04  0.7818608E-02  0.8958534E-01
          1   -1    0    0  501    0  0.00000000000E+00  0.00000000000E+00  0.14705958938E+04  0.14705958938E+04  0.00000000000E+00 0. -1.
         -2   -1    0    0    0  501 -0.00000000000E+00 -0.00000000000E+00 -0.33011316865E+03  0.33011316865E+03  0.00000000000E+00 0.  1.
        -24    2    1    2    0    0  0.36861714159E+03  0.12590541764E+03  0.49871088298E+03  0.63690458882E+03  0.72139719995E+02 0.  0.
        254    2    1    2    0    0 -0.36861714159E+03 -0.12590541764E+03  0.64177184214E+03  0.11638044736E+04  0.88929128194E+03 0.  0.
         23    2    4    4    0    0 -0.20320879513E+03 -0.31470093399E+03  0.77477496301E+03  0.86548614441E+03  0.91975706477E+02 0.  0.
         23    2    4    4    0    0 -0.16540834645E+03  0.18879551635E+03 -0.13300312087E+03  0.29831832919E+03  0.91106132059E+02 0.  0.
          3    1    3    3  502    0  0.19380897446E+03  0.10178164989E+03  0.29582293032E+03  0.36801172392E+03  0.00000000000E+00 0. -1.
         -4    1    3    3    0  502  0.17480816712E+03  0.24123767745E+02  0.20288795265E+03  0.26889286490E+03  0.00000000000E+00 0.  1.
         13    1    5    5    0    0 -0.18399033561E+02 -0.10191314944E+03  0.19254976642E+03  0.21863263026E+03  0.00000000000E+00 0.  1.
        -13    1    5    5    0    0 -0.18480976157E+03 -0.21278778455E+03  0.58222519659E+03  0.64685351415E+03  0.00000000000E+00 0. -1.
          1    1    6    6  503    0 -0.16560690814E+03  0.19743757239E+03 -0.13222538032E+03  0.28963907577E+03  0.00000000000E+00 0. -1.
         -1    1    6    6    0  503  0.19856168164E+00 -0.86420560475E+01 -0.77774055637E+00  0.86792534150E+01  0.00000000000E+00 0.  1.
<mgrwt>
<rscale>  0 0.13935036E+04</rscale>
<asrwt>0</asrwt>
<pdfrwt beam="1">  1        1 0.22624552E+00 0.13935036E+04</pdfrwt>
<pdfrwt beam="2">  1       -2 0.50786642E-01 0.13935036E+04</pdfrwt>
<totfact> 0.21511865E+01</totfact>
</mgrwt>
</event>
<event>
12    5  0.5029243E-008  0.1571391E+04  0.7818608E-02  0.8838319E-01
          1   -1    0    0  501    0  0.00000000000E+00  0.00000000000E+00  0.15016456089E+04  0.15016456089E+04  0.00000000000E+00 0. -1.
         -2   -1    0    0    0  501 -0.00000000000E+00 -0.00000000000E+00 -0.41109371961E+03  0.41109371961E+03  0.00000000000E+00 0.  1.
        -24    2    1    2    0    0 -0.28693810987E+03 -0.17414339807E+02 -0.16786427017E+03  0.34235599604E+03  0.79952965523E+02 0.  0.
        254    2    1    2    0    0  0.28693810987E+03  0.17414339807E+02  0.12584161594E+04  0.15703833324E+04  0.89434660081E+03 0.  0.
         23    2    4    4    0    0  0.40437530496E+03  0.45167950382E+02  0.13884053752E+03  0.44028349395E+03  0.94938554742E+02 0.  0.
         23    2    4    4    0    0 -0.11743719509E+03 -0.27753610575E+02  0.11195756219E+04  0.11300998385E+04  0.95468916926E+02 0.  0.
          3    1    3    3  502    0 -0.66636351080E+02 -0.36349432124E+02 -0.57521949106E+02  0.95238958047E+02  0.00000000000E+00 0. -1.
         -4    1    3    3    0  502 -0.22030175879E+03  0.18935092317E+02 -0.11034232107E+03  0.24711703799E+03  0.00000000000E+00 0.  1.
         13    1    5    5    0    0  0.22957520969E+03 -0.17736086598E+02  0.56563451032E+02  0.23710497605E+03  0.00000000000E+00 0.  1.
        -13    1    5    5    0    0  0.17480009527E+03  0.62904036979E+02  0.82277086485E+02  0.20317851790E+03  0.00000000000E+00 0. -1.
          1    1    6    6  503    0 -0.10467045663E+03 -0.50109864641E+02  0.10402082475E+04  0.10466614071E+04  0.00000000000E+00 0. -1.
         -1    1    6    6    0  503 -0.12766738464E+02  0.22356254066E+02  0.79367374465E+02  0.83438431412E+02  0.00000000000E+00 0.  1.
<mgrwt>
<rscale>  0 0.15713906E+04</rscale>
<asrwt>0</asrwt>
<pdfrwt beam="1">  1        1 0.23102240E+00 0.15713906E+04</pdfrwt>
<pdfrwt beam="2">  1       -2 0.63245188E-01 0.15713906E+04</pdfrwt>
<totfact> 0.12748082E+01</totfact>
</mgrwt>
</event>
<event>
12    5  0.5029243E-008  0.2115631E+04  0.7818608E-02  0.8554389E-01
         -4   -1    0    0    0  501 -0.00000000000E+00  0.00000000000E+00  0.85019854461E+03  0.85019854461E+03  0.00000000000E+00 0.  1.
          3   -1    0    0  501    0  0.00000000000E+00 -0.00000000000E+00 -0.13161315911E+04  0.13161315911E+04  0.00000000000E+00 0. -1.
        -24    2    1    2    0    0 -0.51964065436E+03  0.69283932794E+03 -0.12684926765E+03  0.87892310608E+03  0.79764313393E+02 0.  0.
        254    2    1    2    0    0  0.51964065436E+03 -0.69283932794E+03 -0.33908377883E+03  0.12874070296E+04  0.89016083202E+03 0.  0.
         23    2    4    4    0    0  0.59872075248E+02 -0.45129717217E+03  0.22416307011E+03  0.51541100551E+03  0.90253086399E+02 0.  0.
         23    2    4    4    0    0  0.45976857912E+03 -0.24154215577E+03 -0.56324684894E+03  0.77199602411E+03  0.94874069412E+02 0.  0.
          1    1    3    3  502    0 -0.41611407508E+03  0.56330773409E+03 -0.70872955151E+02  0.70391015232E+03  0.00000000000E+00 0. -1.
         -2    1    3    3    0  502 -0.10352657929E+03  0.12953159385E+03 -0.55976312498E+02  0.17501295376E+03  0.00000000000E+00 0.  1.
         13    1    5    5    0    0  0.77957005402E+01 -0.98778140783E+02  0.98240885463E+01  0.99571114081E+02  0.00000000000E+00 0.  1.
        -13    1    5    5    0    0  0.52076374708E+02 -0.35251903138E+03  0.21433898156E+03  0.41583989143E+03  0.00000000000E+00 0. -1.
          3    1    6    6  503    0  0.36690637956E+03 -0.22120609651E+03 -0.41914123384E+03  0.59935949346E+03  0.00000000000E+00 0. -1.
         -3    1    6    6    0  503  0.92862199555E+02 -0.20336059264E+02 -0.14410561510E+03  0.17263653065E+03  0.00000000000E+00 0.  1.
<mgrwt>
<rscale>  0 0.21156306E+04</rscale>
<asrwt>0</asrwt>
<pdfrwt beam="1">  1        3 0.20248178E+00 0.21156306E+04</pdfrwt>
<pdfrwt beam="2">  1       -4 0.13079978E+00 0.21156306E+04</pdfrwt>
<totfact> 0.12743042E-01</totfact>
</mgrwt>
</event>
<event>
12    5  0.5029243E-008  0.2146965E+04  0.7818608E-02  0.8540832E-01
          1   -1    0    0  501    0  0.00000000000E+00  0.00000000000E+00  0.59516951687E+03  0.59516951687E+03  0.00000000000E+00 0. -1.
         -2   -1    0    0    0  501 -0.00000000000E+00 -0.00000000000E+00 -0.19361963083E+04  0.19361963083E+04  0.00000000000E+00 0.  1.
        -24    2    1    2    0    0  0.40769516388E+03  0.26858578985E+03  0.30390368283E+03  0.58204380946E+03  0.89799078684E+02 0.  0.
        254    2    1    2    0    0 -0.40769516388E+03 -0.26858578985E+03 -0.16449304743E+04  0.19493220157E+04  0.92504398960E+03 0.  0.
         23    2    4    4    0    0 -0.52956937997E+03 -0.29366427917E+03 -0.49203563111E+03  0.78618113118E+03  0.96432731436E+02 0.  0.
         23    2    4    4    0    0  0.12187421609E+03  0.25078489324E+02 -0.11528948432E+04  0.11631408846E+04  0.90818185106E+02 0.  0.
          3    1    3    3  502    0  0.33986636814E+03  0.18174584551E+03  0.22227836351E+03  0.44491389216E+03  0.00000000000E+00 0. -1.
         -4    1    3    3    0  502  0.67828795741E+02  0.86839944340E+02  0.81625319320E+02  0.13712991730E+03  0.00000000000E+00 0.  1.
         13    1    5    5    0    0 -0.36550444895E+03 -0.15826758403E+03 -0.35159741589E+03  0.53128417369E+03  0.00000000000E+00 0. -1.
        -13    1    5    5    0    0 -0.16406493101E+03 -0.13539669514E+03 -0.14043821522E+03  0.25489695749E+03  0.00000000000E+00 0.  1.
          3    1    6    6  503    0  0.39497680208E+02 -0.10513243004E+02 -0.12898012733E+03  0.13530139788E+03  0.00000000000E+00 0. -1.
         -3    1    6    6    0  503  0.82376535880E+02  0.35591732327E+02 -0.10239147158E+04  0.10278394867E+04  0.00000000000E+00 0.  1.
<mgrwt>
<rscale>  0 0.21469653E+04</rscale>
<asrwt>0</asrwt>
<pdfrwt beam="1">  1        1 0.91564542E-01 0.21469653E+04</pdfrwt>
<pdfrwt beam="2">  1       -2 0.29787635E+00 0.21469653E+04</pdfrwt>
<totfact> 0.91098274E-01</totfact>
</mgrwt>
</event>
<event>
12    5  0.5029243E-008  0.2058608E+04  0.7818608E-02  0.8579699E-01
         -2   -1    0    0    0  501 -0.00000000000E+00  0.00000000000E+00  0.85646738309E+03  0.85646738309E+03  0.00000000000E+00 0.  1.
          1   -1    0    0  501    0  0.00000000000E+00 -0.00000000000E+00 -0.12370194021E+04  0.12370194021E+04  0.00000000000E+00 0. -1.
        -24    2    1    2    0    0  0.57232574242E+03  0.60412211206E+03 -0.15367612825E+03  0.85000080853E+03  0.79779323065E+02 0.  0.
        254    2    1    2    0    0 -0.57232574242E+03 -0.60412211206E+03 -0.22687589073E+03  0.12434859766E+04  0.89569214720E+03 0.  0.
         23    2    4    4    0    0 -0.45044054923E+03 -0.29863288304E+03  0.29308357233E+03  0.62140851348E+03  0.90400625220E+02 0.  0.
         23    2    4    4    0    0 -0.12188519319E+03 -0.30548922903E+03 -0.51995946305E+03  0.62207746315E+03  0.91885023615E+02 0.  0.
          3    1    3    3  502    0  0.40051991545E+03  0.40619377486E+03 -0.69193438039E+02  0.57462798163E+03  0.00000000000E+00 0. -1.
         -4    1    3    3    0  502  0.17180582697E+03  0.19792833720E+03 -0.84482690209E+02  0.27537282690E+03  0.00000000000E+00 0.  1.
         13    1    5    5    0    0 -0.26026743356E+03 -0.18852145322E+03  0.12532667664E+03  0.34494383770E+03  0.00000000000E+00 0.  1.
        -13    1    5    5    0    0 -0.19017311567E+03 -0.11011142982E+03  0.16775689569E+03  0.27646467578E+03  0.00000000000E+00 0. -1.
          3    1    6    6  503    0 -0.12930858317E+03 -0.28481128394E+03 -0.50924040377E+03  0.59763196532E+03  0.00000000000E+00 0.  1.
         -3    1    6    6    0  503  0.74233899835E+01 -0.20677945091E+02 -0.10719059281E+02  0.24445497825E+02  0.00000000000E+00 0. -1.
<mgrwt>
<rscale>  0 0.20586080E+04</rscale>
<asrwt>0</asrwt>
<pdfrwt beam="1">  1        1 0.19031068E+00 0.20586080E+04</pdfrwt>
<pdfrwt beam="2">  1       -2 0.13176421E+00 0.20586080E+04</pdfrwt>
<totfact> 0.34126789E+00</totfact>
</mgrwt>
</event>
<event>
12    5  0.5029243E-008  0.1776673E+04  0.7818608E-02  0.8718804E-01
          1   -1    0    0  501    0  0.00000000000E+00  0.00000000000E+00  0.64251459489E+03  0.64251459489E+03  0.00000000000E+00 0. -1.
         -2   -1    0    0    0  501 -0.00000000000E+00 -0.00000000000E+00 -0.12282089282E+04  0.12282089282E+04  0.00000000000E+00 0.  1.
        -24    2    1    2    0    0 -0.16088339659E+03  0.63110467184E+03 -0.33612171136E+03  0.73724559784E+03  0.79854195773E+02 0.  0.
        254    2    1    2    0    0  0.16088339659E+03 -0.63110467184E+03 -0.24957262199E+03  0.11334779253E+04  0.89348147118E+03 0.  0.
         23    2    4    4    0    0  0.13005995354E+02  0.21426678558E+03 -0.11879815974E+03  0.26074903561E+03  0.88304277917E+02 0.  0.
         23    2    4    4    0    0  0.14787740123E+03 -0.84537145742E+03 -0.13077446226E+03  0.87272888967E+03  0.89627719285E+02 0.  0.
          3    1    3    3  502    0 -0.43962286457E+02  0.22376609687E+03 -0.77880706472E+02  0.24097583526E+03  0.00000000000E+00 0. -1.
         -4    1    3    3    0  502 -0.11692111013E+03  0.40733857497E+03 -0.25824100488E+03  0.49626976258E+03  0.00000000000E+00 0.  1.
         13    1    5    5    0    0 -0.16714803129E+02  0.64857230597E+02  0.94608483098E+00  0.66983132808E+02  0.00000000000E+00 0.  1.
        -13    1    5    5    0    0  0.29720798482E+02  0.14940955498E+03 -0.11974424457E+03  0.19376590281E+03  0.00000000000E+00 0. -1.
          4    1    6    6  503    0  0.89068740618E+02 -0.67445727515E+03 -0.80108767337E+02  0.68501333649E+03  0.00000000000E+00 0. -1.
         -4    1    6    6    0  503  0.58808660616E+02 -0.17091418227E+03 -0.50665694921E+02  0.18771555318E+03  0.00000000000E+00 0.  1.
<mgrwt>
<rscale>  0 0.17766735E+04</rscale>
<asrwt>0</asrwt>
<pdfrwt beam="1">  1        1 0.98848401E-01 0.17766735E+04</pdfrwt>
<pdfrwt beam="2">  1       -2 0.18895522E+00 0.17766735E+04</pdfrwt>
<totfact> 0.40371793E+00</totfact>
</mgrwt>
</event>
<event>
12    5  0.5029243E-008  0.2081248E+04  0.7818608E-02  0.8569549E-01
          1   -1    0    0  501    0  0.00000000000E+00  0.00000000000E+00  0.17742717457E+04  0.17742717457E+04  0.00000000000E+00 0. -1.
         -2   -1    0    0    0  501 -0.00000000000E+00 -0.00000000000E+00 -0.61033398636E+03  0.61033398636E+03  0.00000000000E+00 0.  1.
        -24    2    1    2    0    0 -0.17314789110E+03 -0.52365725647E+02 -0.47886349619E+03  0.51813990768E+03  0.80226894069E+02 0.  0.
        254    2    1    2    0    0  0.17314789110E+03  0.52365725647E+02  0.16428012555E+04  0.18664658244E+04  0.86728100811E+03 0.  0.
         23    2    4    4    0    0  0.43653567975E+03  0.18619677868E+03  0.55715957417E+03  0.73758372424E+03  0.91489447966E+02 0.  0.
         23    2    4    4    0    0 -0.26338778865E+03 -0.13383105304E+03  0.10856416814E+04  0.11288821002E+04  0.92049213845E+02 0.  0.
          1    1    3    3  502    0 -0.12125555754E+03 -0.22852424565E+02 -0.21766658202E+03  0.25020768268E+03  0.00000000000E+00 0. -1.
         -2    1    3    3    0  502 -0.51892333563E+02 -0.29513301081E+02 -0.26119691416E+03  0.26793222500E+03  0.00000000000E+00 0.  1.
         13    1    5    5    0    0  0.14871095690E+02 -0.10265890654E+02  0.23253837129E+02  0.29449599983E+02  0.00000000000E+00 0. -1.
        -13    1    5    5    0    0  0.42166458406E+03  0.19646266934E+03  0.53390573704E+03  0.70813412426E+03  0.00000000000E+00 0.  1.
          2    1    6    6  503    0 -0.23628321229E+02 -0.46262122354E+02  0.13757771330E+03  0.14705818143E+03  0.00000000000E+00 0. -1.
         -2    1    6    6    0  503 -0.23975946742E+03 -0.87568930684E+02  0.94806396807E+03  0.98182391873E+03  0.00000000000E+00 0.  1.
<mgrwt>
<rscale>  0 0.20812480E+04</rscale>
<asrwt>0</asrwt>
<pdfrwt beam="1">  1        1 0.27296488E+00 0.20812480E+04</pdfrwt>
<pdfrwt beam="2">  1       -2 0.93897537E-01 0.20812480E+04</pdfrwt>
<totfact> 0.32859933E+00</totfact>
</mgrwt>
</event>
<event>
12    5  0.5029243E-008  0.2012264E+04  0.7818608E-02  0.8600908E-01
         -2   -1    0    0    0  501 -0.00000000000E+00  0.00000000000E+00  0.14272894353E+04  0.14272894353E+04  0.00000000000E+00 0.  1.
          1   -1    0    0  501    0  0.00000000000E+00 -0.00000000000E+00 -0.70924787686E+03  0.70924787686E+03  0.00000000000E+00 0. -1.
        -24    2    1    2    0    0 -0.10572735804E+03  0.43262437534E+03 -0.42037956578E+03  0.61771580818E+03  0.80695204141E+02 0.  0.
        254    2    1    2    0    0  0.10572735804E+03 -0.43262437534E+03  0.11384211242E+04  0.15188215039E+04  0.90137338573E+03 0.  0.
         23    2    4    4    0    0 -0.14728036439E+03 -0.52063416020E+03  0.11064587527E+04  0.12349857393E+04  0.90484089040E+02 0.  0.
         23    2    4    4    0    0  0.25300772243E+03  0.88009784863E+02  0.31962371441E+02  0.28383576460E+03  0.88218582162E+02 0.  0.
          3    1    3    3  502    0 -0.49062004951E+02  0.26419334084E+03 -0.30173953919E+03  0.40404449159E+03  0.00000000000E+00 0. -1.
         -4    1    3    3    0  502 -0.56665353087E+02  0.16843103450E+03 -0.11864002659E+03  0.21367131659E+03  0.00000000000E+00 0.  1.
         13    1    5    5    0    0 -0.59144970107E+02 -0.12979189574E+03  0.22003439861E+03  0.26221975567E+03  0.00000000000E+00 0.  1.
        -13    1    5    5    0    0 -0.88135394286E+02 -0.39084226446E+03  0.88642435412E+03  0.97276598367E+03  0.00000000000E+00 0. -1.
          1    1    6    6  503    0  0.77237566940E+02  0.70511511483E+01 -0.26037092851E+02  0.81812533780E+02  0.00000000000E+00 0. -1.
         -1    1    6    6    0  503  0.17577015549E+03  0.80958633714E+02  0.57999464292E+02  0.20202323082E+03  0.00000000000E+00 0.  1.
<mgrwt>
<rscale>  0 0.20122644E+04</rscale>
<asrwt>0</asrwt>
<pdfrwt beam="1">  1        1 0.10911506E+00 0.20122644E+04</pdfrwt>
<pdfrwt beam="2">  1       -2 0.21958299E+00 0.20122644E+04</pdfrwt>
<totfact> 0.21544187E+00</totfact>
</mgrwt>
</event>
<event>
12    5  0.5029243E-008  0.2265722E+04  0.7818608E-02  0.8491560E-01
         -4   -1    0    0    0  501 -0.00000000000E+00  0.00000000000E+00  0.90484843882E+03  0.90484843882E+03  0.00000000000E+00 0.  1.
          3   -1    0    0  501    0  0.00000000000E+00 -0.00000000000E+00 -0.14183309842E+04  0.14183309842E+04  0.00000000000E+00 0. -1.
        -24    2    1    2    0    0  0.11548529258E+02 -0.42074084837E+03  0.63805345774E+03  0.76706706850E+03  0.64214037635E+02 0.  0.
        254    2    1    2    0    0 -0.11548529258E+02  0.42074084837E+03 -0.11515360031E+04  0.15561123545E+04  0.95827671545E+03 0.  0.
         23    2    4    4    0    0 -0.41216525104E+03  0.14802875863E+03 -0.89003168308E+03  0.99718124471E+03  0.10208491748E+03 0.  0.
         23    2    4    4    0    0  0.40061672178E+03  0.27271208974E+03 -0.26150432005E+03  0.55893110981E+03  0.95675673219E+02 0.  0.
          3    1    3    3  502    0 -0.33628875132E+01 -0.84918575538E+02  0.87321941112E+02  0.12185070736E+03  0.00000000000E+00 0. -1.
         -4    1    3    3    0  502  0.14911416771E+02 -0.33582227283E+03  0.55073151663E+03  0.64521636114E+03  0.00000000000E+00 0.  1.
         13    1    5    5    0    0 -0.12250092303E+03  0.93600024569E+02 -0.33406103174E+03  0.36791875961E+03  0.00000000000E+00 0. -1.
        -13    1    5    5    0    0 -0.28966432801E+03  0.54428734062E+02 -0.55597065133E+03  0.62926248510E+03  0.00000000000E+00 0.  1.
          2    1    6    6  503    0  0.11658443228E+01  0.19348282979E+02 -0.22390883763E+01  0.19512272138E+02  0.00000000000E+00 0. -1.
         -2    1    6    6    0  503  0.39945087746E+03  0.25336380676E+03 -0.25926523168E+03  0.53941883767E+03  0.00000000000E+00 0.  1.
<mgrwt>
<rscale>  0 0.22657225E+04</rscale>
<asrwt>0</asrwt>
<pdfrwt beam="1">  1        3 0.21820477E+00 0.22657225E+04</pdfrwt>
<pdfrwt beam="2">  1       -4 0.13920745E+00 0.22657225E+04</pdfrwt>
<totfact> 0.85741702E-02</totfact>
</mgrwt>
</event>
<event>
12    5  0.5029243E-008  0.1260494E+04  0.7818608E-02  0.9061494E-01
         -2   -1    0    0    0  501 -0.00000000000E+00  0.00000000000E+00  0.30636113896E+04  0.30636113896E+04  0.00000000000E+00 0.  1.
          1   -1    0    0  501    0  0.00000000000E+00 -0.00000000000E+00 -0.12965468783E+03  0.12965468783E+03  0.00000000000E+00 0. -1.
        -24    2    1    2    0    0  0.17376851480E+03  0.22771144935E+03  0.10534035309E+04  0.10948075600E+04  0.83045732273E+02 0.  0.
        254    2    1    2    0    0 -0.17376851480E+03 -0.22771144935E+03  0.18805531708E+04  0.20984585174E+04  0.88600221214E+03 0.  0.
         23    2    4    4    0    0 -0.26410869486E+03 -0.51335472489E+03  0.14708745695E+04  0.15828389176E+04  0.92846990035E+02 0.  0.
         23    2    4    4    0    0  0.90340180068E+02  0.28564327554E+03  0.40967860136E+03  0.51561959981E+03  0.90959256285E+02 0.  0.
          3    1    3    3  502    0  0.48617466354E+02  0.37648340722E+02  0.35435902365E+03  0.35965451928E+03  0.00000000000E+00 0. -1.
         -4    1    3    3    0  502  0.12515104844E+03  0.19006310862E+03  0.69904450725E+03  0.73515304073E+03  0.00000000000E+00 0.  1.
         13    1    5    5    0    0 -0.20126610014E+03 -0.31998537611E+03  0.87274624591E+03  0.95109657435E+03  0.00000000000E+00 0. -1.
        -13    1    5    5    0    0 -0.62842594724E+02 -0.19336934877E+03  0.59812832358E+03  0.63174234322E+03  0.00000000000E+00 0.  1.
          2    1    6    6  503    0  0.89860138587E+02  0.16648284091E+03  0.20637613713E+03  0.27996873183E+03  0.00000000000E+00 0. -1.
         -2    1    6    6    0  503  0.48004148048E+00  0.11916043463E+03  0.20330246423E+03  0.23565086798E+03  0.00000000000E+00 0.  1.
<mgrwt>
<rscale>  0 0.12604945E+04</rscale>
<asrwt>0</asrwt>
<pdfrwt beam="1">  1        1 0.19946877E-01 0.12604945E+04</pdfrwt>
<pdfrwt beam="2">  1       -2 0.47132477E+00 0.12604945E+04</pdfrwt>
<totfact> 0.57651337E-01</totfact>
</mgrwt>
</event>
<event>
12    5  0.5029243E-008  0.1033425E+04  0.7818608E-02  0.9272626E-01
          1   -1    0    0  501    0  0.00000000000E+00  0.00000000000E+00  0.13077501071E+03  0.13077501071E+03  0.00000000000E+00 0. -1.
         -2   -1    0    0    0  501 -0.00000000000E+00 -0.00000000000E+00 -0.20416120386E+04  0.20416120386E+04  0.00000000000E+00 0.  1.
        -24    2    1    2    0    0 -0.93845046037E+02  0.35423220066E+02 -0.23984676775E+03  0.27207835173E+03  0.80240016811E+02 0.  0.
        254    2    1    2    0    0  0.93845046037E+02 -0.35423220066E+02 -0.16709902601E+04  0.19003086976E+04  0.89939034873E+03 0.  0.
         23    2    4    4    0    0 -0.34029259298E+03  0.11350383246E+03 -0.39481441636E+03  0.54096443601E+03  0.89899548590E+02 0.  0.
         23    2    4    4    0    0  0.43413763902E+03 -0.14892705252E+03 -0.12761758438E+04  0.13593442615E+04  0.92397405866E+02 0.  0.
          1    1    3    3  502    0 -0.26260606501E+02  0.31000619246E+02 -0.27166326352E+02  0.48873992418E+02  0.00000000000E+00 0. -1.
         -2    1    3    3    0  502 -0.67584439536E+02  0.44226008197E+01 -0.21268044139E+03  0.22320435932E+03  0.00000000000E+00 0.  1.
         13    1    5    5    0    0 -0.19056627824E+03  0.63588613948E+02 -0.28501203054E+03  0.34869883248E+03  0.00000000000E+00 0.  1.
        -13    1    5    5    0    0 -0.14972631474E+03  0.49915218508E+02 -0.10980238583E+03  0.19226560353E+03  0.00000000000E+00 0. -1.
          1    1    6    6  503    0  0.40581253857E+03 -0.15248351842E+03 -0.12377648689E+04  0.13114865270E+04  0.00000000000E+00 0. -1.
         -1    1    6    6    0  503  0.28325100446E+02  0.35564658986E+01 -0.38410974873E+02  0.47857734544E+02  0.00000000000E+00 0.  1.
<mgrwt>
<rscale>  0 0.10334251E+04</rscale>
<asrwt>0</asrwt>
<pdfrwt beam="1">  1        1 0.20119233E-01 0.10334251E+04</pdfrwt>
<pdfrwt beam="2">  1       -2 0.31409416E+00 0.10334251E+04</pdfrwt>
<totfact> 0.59959680E+00</totfact>
</mgrwt>
</event>
<event>
12    5  0.5029243E-008  0.1382848E+04  0.7818608E-02  0.8966328E-01
          1   -1    0    0  501    0  0.00000000000E+00  0.00000000000E+00  0.11312687913E+04  0.11312687913E+04  0.00000000000E+00 0. -1.
         -2   -1    0    0    0  501 -0.00000000000E+00 -0.00000000000E+00 -0.42259389001E+03  0.42259389001E+03  0.00000000000E+00 0.  1.
        -24    2    1    2    0    0 -0.37038920891E+03  0.88575467367E+02  0.12743521379E+03  0.41403570118E+03  0.10075737515E+03 0.  0.
        254    2    1    2    0    0  0.37038920891E+03 -0.88575467367E+02  0.58123968745E+03  0.11398269801E+04  0.90351103522E+03 0.  0.
         23    2    4    4    0    0  0.17151663616E+03 -0.39142999878E+03  0.62904071794E+03  0.76584347428E+03  0.90490893730E+02 0.  0.
         23    2    4    4    0    0  0.19887257275E+03  0.30285453142E+03 -0.47801030485E+02  0.37398350581E+03  0.79420127856E+02 0.  0.
          1    1    3    3  502    0 -0.28811932515E+03  0.50895137745E+02  0.13695575520E+03  0.32304789034E+03  0.00000000000E+00 0. -1.
         -2    1    3    3    0  502 -0.82269883759E+02  0.37680329622E+02 -0.95205414036E+01  0.90987810847E+02  0.00000000000E+00 0.  1.
         13    1    5    5    0    0  0.93081572294E+01 -0.41595440150E+02  0.11925127104E+03  0.12663999399E+03  0.00000000000E+00 0. -1.
        -13    1    5    5    0    0  0.16220847893E+03 -0.34983455863E+03  0.50978944689E+03  0.63920348029E+03  0.00000000000E+00 0.  1.
          1    1    6    6  503    0  0.63834945060E+02  0.12469621889E+03  0.17287864896E+02  0.14114856531E+03  0.00000000000E+00 0.  1.
         -1    1    6    6    0  503  0.13503762769E+03  0.17815831252E+03 -0.65088895381E+02  0.23283494049E+03  0.00000000000E+00 0. -1.
<mgrwt>
<rscale>  0 0.13828482E+04</rscale>
<asrwt>0</asrwt>
<pdfrwt beam="1">  1        1 0.17404135E+00 0.13828482E+04</pdfrwt>
<pdfrwt beam="2">  1       -2 0.65014445E-01 0.13828482E+04</pdfrwt>
<totfact> 0.22442527E+01</totfact>
</mgrwt>
</event>
<event>
12    5  0.5029243E-008  0.2088835E+04  0.7818608E-02  0.8566178E-01
          1   -1    0    0  501    0  0.00000000000E+00  0.00000000000E+00  0.75409779108E+03  0.75409779108E+03  0.00000000000E+00 0. -1.
         -2   -1    0    0    0  501 -0.00000000000E+00 -0.00000000000E+00 -0.14465071703E+04  0.14465071703E+04  0.00000000000E+00 0.  1.
        -24    2    1    2    0    0  0.47141316241E+03  0.70552932312E+03 -0.35984217832E+03  0.92516049277E+03  0.80209404780E+02 0.  0.
        254    2    1    2    0    0 -0.47141316241E+03 -0.70552932312E+03 -0.33256720088E+03  0.12754444686E+04  0.89227554819E+03 0.  0.
         23    2    4    4    0    0 -0.35910495227E+03 -0.33147950100E+03  0.25784026250E+03  0.56156403273E+03  0.10018750202E+03 0.  0.
         23    2    4    4    0    0 -0.11230821013E+03 -0.37404982212E+03 -0.59040746339E+03  0.71388043586E+03  0.92292472035E+02 0.  0.
          1    1    3    3  502    0  0.27720494214E+02  0.84058278397E+02 -0.31360453839E+02  0.93902598641E+02  0.00000000000E+00 0. -1.
         -2    1    3    3    0  502  0.44369266819E+03  0.62147104472E+03 -0.32848172448E+03  0.83125789413E+03  0.00000000000E+00 0.  1.
         13    1    5    5    0    0 -0.42981313792E+02 -0.82134593654E+02  0.23213940391E+02  0.95563444049E+02  0.00000000000E+00 0. -1.
        -13    1    5    5    0    0 -0.31612363848E+03 -0.24934490734E+03  0.23462632211E+03  0.46600058868E+03  0.00000000000E+00 0.  1.
          2    1    6    6  503    0 -0.76965510299E+02 -0.11028163580E+03 -0.21836403303E+03  0.25645385528E+03  0.00000000000E+00 0. -1.
         -2    1    6    6    0  503 -0.35342699833E+02 -0.26376818632E+03 -0.37204343036E+03  0.45742658058E+03  0.00000000000E+00 0.  1.
<mgrwt>
<rscale>  0 0.20888349E+04</rscale>
<asrwt>0</asrwt>
<pdfrwt beam="1">  1        1 0.11601505E+00 0.20888349E+04</pdfrwt>
<pdfrwt beam="2">  1       -2 0.22253956E+00 0.20888349E+04</pdfrwt>
<totfact> 0.18648412E+00</totfact>
</mgrwt>
</event>
<event>
12    5  0.5029243E-008  0.1799887E+04  0.7818608E-02  0.8706360E-01
          1   -1    0    0  501    0  0.00000000000E+00  0.00000000000E+00  0.29615869537E+04  0.29615869537E+04  0.00000000000E+00 0. -1.
         -2   -1    0    0    0  501 -0.00000000000E+00 -0.00000000000E+00 -0.27346762168E+03  0.27346762168E+03  0.00000000000E+00 0.  1.
        -24    2    1    2    0    0  0.14792154977E+03  0.19815887840E+03 -0.11301885655E+03  0.28329012259E+03  0.79575785539E+02 0.  0.
        254    2    1    2    0    0 -0.14792154977E+03 -0.19815887840E+03  0.28011381886E+04  0.29517644528E+04  0.89743551705E+03 0.  0.
         23    2    4    4    0    0  0.15380770569E+03 -0.21343436911E+03  0.25010429661E+04  0.25164542300E+04  0.90082924128E+02 0.  0.
         23    2    4    4    0    0 -0.30172925546E+03  0.15275490716E+02  0.30009522247E+03  0.43531022276E+03  0.90354652765E+02 0.  0.
          3    1    3    3  502    0  0.61808253426E+02  0.42116654215E+02 -0.51679334848E+01  0.74971863325E+02  0.00000000000E+00 0. -1.
         -4    1    3    3    0  502  0.86113296344E+02  0.15604222418E+03 -0.10785092307E+03  0.20831825926E+03  0.00000000000E+00 0.  1.
         13    1    5    5    0    0  0.10072377756E+03 -0.17492233449E+03  0.15393189077E+04  0.15524966351E+04  0.00000000000E+00 0. -1.
        -13    1    5    5    0    0  0.53083928130E+02 -0.38512034626E+02  0.96172405846E+03  0.96395759494E+03  0.00000000000E+00 0.  1.
          3    1    6    6  503    0 -0.14794695655E+03  0.52560358966E+02  0.15477529765E+03  0.22046833344E+03  0.00000000000E+00 0. -1.
         -3    1    6    6    0  503 -0.15378229892E+03 -0.37284868250E+02  0.14531992481E+03  0.21484188932E+03  0.00000000000E+00 0.  1.
<mgrwt>
<rscale>  0 0.17998868E+04</rscale>
<asrwt>0</asrwt>
<pdfrwt beam="1">  1        1 0.45562874E+00 0.17998868E+04</pdfrwt>
<pdfrwt beam="2">  1       -2 0.42071944E-01 0.17998868E+04</pdfrwt>
<totfact> 0.28376262E+00</totfact>
</mgrwt>
</event>
<event>
12    5  0.5029243E-008  0.2332965E+04  0.7818608E-02  0.8465036E-01
         -2   -1    0    0    0  501 -0.00000000000E+00  0.00000000000E+00  0.81471803910E+03  0.81471803910E+03  0.00000000000E+00 0.  1.
          1   -1    0    0  501    0  0.00000000000E+00 -0.00000000000E+00 -0.16701250628E+04  0.16701250628E+04  0.00000000000E+00 0. -1.
        -24    2    1    2    0    0 -0.15775640980E+03 -0.98245997532E+02 -0.14131621006E+04  0.14275147195E+04  0.78941693399E+02 0.  0.
        254    2    1    2    0    0  0.15775640980E+03  0.98245997532E+02  0.55775507688E+03  0.10573283824E+04  0.87881353062E+03 0.  0.
         23    2    4    4    0    0  0.19795415417E+03  0.45216646793E+03  0.44857555771E+03  0.67334191376E+03  0.92352260287E+02 0.  0.
         23    2    4    4    0    0 -0.40197744366E+02 -0.35392047039E+03  0.10917951918E+03  0.38398646865E+03  0.93004745498E+02 0.  0.
          1    1    3    3  502    0 -0.13963563550E+03 -0.11178596953E+03 -0.12816333584E+04  0.12940549753E+04  0.00000000000E+00 0. -1.
         -2    1    3    3    0  502 -0.18120774298E+02  0.13539971994E+02 -0.13152874223E+03  0.13345974425E+03  0.00000000000E+00 0.  1.
         13    1    5    5    0    0  0.17121069640E+03  0.37231814129E+03  0.32132933143E+03  0.52075564340E+03  0.00000000000E+00 0. -1.
        -13    1    5    5    0    0  0.26743457768E+02  0.79848326638E+02  0.12724622627E+03  0.15258627036E+03  0.00000000000E+00 0.  1.
          3    1    6    6  503    0 -0.66563866467E+02 -0.29981998361E+03  0.10070541206E+03  0.32320945362E+03  0.00000000000E+00 0. -1.
         -3    1    6    6    0  503  0.26366122102E+02 -0.54100486787E+02  0.84741071148E+01  0.60777015036E+02  0.00000000000E+00 0.  1.
<mgrwt>
<rscale>  0 0.23329647E+04</rscale>
<asrwt>0</asrwt>
<pdfrwt beam="1">  1        1 0.25694232E+00 0.23329647E+04</pdfrwt>
<pdfrwt beam="2">  1       -2 0.12534124E+00 0.23329647E+04</pdfrwt>
<totfact> 0.18830593E+00</totfact>
</mgrwt>
</event>
<event>
12    5  0.5029243E-008  0.1449799E+04  0.7818608E-02  0.8918540E-01
          3   -1    0    0  501    0  0.00000000000E+00  0.00000000000E+00  0.49083786780E+03  0.49083786780E+03  0.00000000000E+00 0. -1.
         -4   -1    0    0    0  501 -0.00000000000E+00 -0.00000000000E+00 -0.10705759064E+04  0.10705759064E+04  0.00000000000E+00 0.  1.
        -24    2    1    2    0    0  0.18672391804E+02  0.10768338026E+03  0.28176401573E+03  0.31272476006E+03  0.80383122584E+02 0.  0.
        254    2    1    2    0    0 -0.18672391804E+02 -0.10768338026E+03 -0.86150205428E+03  0.12486890141E+04  0.89727035824E+03 0.  0.
         23    2    4    4    0    0  0.15418304294E+03  0.32203800901E+03 -0.60722860931E+03  0.71036544307E+03  0.91714713966E+02 0.  0.
         23    2    4    4    0    0 -0.17285543474E+03 -0.42972138927E+03 -0.25427344497E+03  0.53832357102E+03  0.10294565838E+03 0.  0.
          3    1    3    3  502    0  0.29053254243E+01  0.11620731124E+03  0.25783243123E+03  0.28282528652E+03  0.00000000000E+00 0. -1.
         -4    1    3    3    0  502  0.15767066380E+02 -0.85239309767E+01  0.23931584499E+02  0.29899473543E+02  0.00000000000E+00 0.  1.
         13    1    5    5    0    0  0.16149522040E+03  0.32075206391E+03 -0.58028138014E+03  0.68241415054E+03  0.00000000000E+00 0.  1.
        -13    1    5    5    0    0 -0.73121774602E+01  0.12859450981E+01 -0.26947229170E+02  0.27951292527E+02  0.00000000000E+00 0. -1.
          3    1    6    6  503    0 -0.12252741896E+02 -0.26043611561E+01 -0.24290214579E+02  0.27329963507E+02  0.00000000000E+00 0. -1.
         -3    1    6    6    0  503 -0.16060269285E+03 -0.42711702812E+03 -0.22998323039E+03  0.51099360751E+03  0.00000000000E+00 0.  1.
<mgrwt>
<rscale>  0 0.14497989E+04</rscale>
<asrwt>0</asrwt>
<pdfrwt beam="1">  1        3 0.75513520E-01 0.14497989E+04</pdfrwt>
<pdfrwt beam="2">  1       -4 0.16470398E+00 0.14497989E+04</pdfrwt>
<totfact> 0.84733292E-01</totfact>
</mgrwt>
</event>
<event>
12    5  0.5029243E-008  0.1577449E+04  0.7818608E-02  0.8834523E-01
          1   -1    0    0  501    0  0.00000000000E+00  0.00000000000E+00  0.65365889180E+03  0.65365889180E+03  0.00000000000E+00 0. -1.
         -2   -1    0    0    0  501 -0.00000000000E+00 -0.00000000000E+00 -0.95169924918E+03  0.95169924918E+03  0.00000000000E+00 0.  1.
        -24    2    1    2    0    0 -0.50968839381E+03  0.17581740625E+03 -0.10607639533E+02  0.54490154282E+03  0.78173846215E+02 0.  0.
        254    2    1    2    0    0  0.50968839381E+03 -0.17581740625E+03 -0.28743271785E+03  0.10604565982E+04  0.86675060437E+03 0.  0.
         23    2    4    4    0    0  0.65160737083E+03  0.53448668233E+02 -0.53739043844E+01  0.65936853702E+03  0.85376008990E+02 0.  0.
         23    2    4    4    0    0 -0.14191897702E+03 -0.22926607448E+03 -0.28205881347E+03  0.40108806114E+03  0.92792939322E+02 0.  0.
          3    1    3    3  502    0 -0.30772703383E+03  0.11441780480E+03  0.30935351539E+02  0.32976409353E+03  0.00000000000E+00 0. -1.
         -4    1    3    3    0  502 -0.20196135998E+03  0.61399601441E+02 -0.41542991071E+02  0.21513744930E+03  0.00000000000E+00 0.  1.
         13    1    5    5    0    0  0.20540195063E+03 -0.19481866084E+02  0.14261784645E+02  0.20681610897E+03  0.00000000000E+00 0. -1.
        -13    1    5    5    0    0  0.44620542020E+03  0.72930534316E+02 -0.19635689030E+02  0.45255242805E+03  0.00000000000E+00 0.  1.
          4    1    6    6  503    0  0.10047701618E+02 -0.39044072009E+02 -0.27262658245E+02  0.48668762070E+02  0.00000000000E+00 0. -1.
         -4    1    6    6    0  503 -0.15196667864E+03 -0.19022200247E+03 -0.25479615522E+03  0.35241929907E+03  0.00000000000E+00 0.  1.
<mgrwt>
<rscale>  0 0.15774494E+04</rscale>
<asrwt>0</asrwt>
<pdfrwt beam="1">  1        1 0.10056291E+00 0.15774494E+04</pdfrwt>
<pdfrwt beam="2">  1       -2 0.14641527E+00 0.15774494E+04</pdfrwt>
<totfact> 0.81137325E+00</totfact>
</mgrwt>
</event>
<event>
12    5  0.5029243E-008  0.1747349E+04  0.7818608E-02  0.8734811E-01
         -2   -1    0    0    0  501 -0.00000000000E+00  0.00000000000E+00  0.73376338092E+03  0.73376338092E+03  0.00000000000E+00 0.  1.
          1   -1    0    0  501    0  0.00000000000E+00 -0.00000000000E+00 -0.10402632873E+04  0.10402632873E+04  0.00000000000E+00 0. -1.
        -24    2    1    2    0    0  0.24736111604E+03 -0.12045910369E+03 -0.70361552216E+03  0.75983075591E+03  0.81055889455E+02 0.  0.
        254    2    1    2    0    0 -0.24736111604E+03  0.12045910369E+03  0.39711561576E+03  0.10141959123E+04  0.89173685519E+03 0.  0.
         23    2    4    4    0    0  0.48187305056E+02  0.20716425020E+01  0.61128945643E+03  0.61998824815E+03  0.91565933766E+02 0.  0.
         23    2    4    4    0    0 -0.29554842109E+03  0.11838746119E+03 -0.21417384067E+03  0.39420766418E+03  0.90359218074E+02 0.  0.
          1    1    3    3  502    0  0.20770061159E+03 -0.10846746073E+03 -0.65663114140E+03  0.69718662491E+03  0.00000000000E+00 0. -1.
         -2    1    3    3    0  502  0.39660504447E+02 -0.11991642959E+02 -0.46984380755E+02  0.62644131001E+02  0.00000000000E+00 0.  1.
         13    1    5    5    0    0 -0.19680599235E+02  0.23110396955E+02  0.13096748063E+03  0.13443919598E+03  0.00000000000E+00 0. -1.
        -13    1    5    5    0    0  0.67867904291E+02 -0.21038754453E+02  0.48032197580E+03  0.48554905217E+03  0.00000000000E+00 0.  1.
          2    1    6    6  503    0 -0.10381031875E+03  0.10494689385E+02 -0.10711042673E+03  0.14953047950E+03  0.00000000000E+00 0. -1.
         -2    1    6    6    0  503 -0.19173810235E+03  0.10789277181E+03 -0.10706341393E+03  0.24467718468E+03  0.00000000000E+00 0.  1.
<mgrwt>
<rscale>  0 0.17473490E+04</rscale>
<asrwt>0</asrwt>
<pdfrwt beam="1">  1        1 0.16004050E+00 0.17473490E+04</pdfrwt>
<pdfrwt beam="2">  1       -2 0.11288667E+00 0.17473490E+04</pdfrwt>
<totfact> 0.72185017E+00</totfact>
</mgrwt>
</event>
<event>
12    5  0.5029243E-008  0.3024690E+04  0.7818608E-02  0.8236715E-01
         -2   -1    0    0    0  501 -0.00000000000E+00  0.00000000000E+00  0.24463862868E+04  0.24463862868E+04  0.00000000000E+00 0.  1.
          1   -1    0    0  501    0  0.00000000000E+00 -0.00000000000E+00 -0.93492479426E+03  0.93492479426E+03  0.00000000000E+00 0. -1.
        -24    2    1    2    0    0  0.10763827724E+04 -0.76245854560E+03  0.11347446206E+04  0.17422977306E+04  0.89516040125E+02 0.  0.
        254    2    1    2    0    0 -0.10763827724E+04  0.76245854560E+03  0.37671687199E+03  0.16390133505E+04  0.89694272672E+03 0.  0.
         23    2    4    4    0    0 -0.35998909032E+03  0.76514381055E+03  0.66990551009E+02  0.85324946226E+03  0.92248116226E+02 0.  0.
         23    2    4    4    0    0 -0.71639368211E+03 -0.26852649522E+01  0.30972632098E+03  0.78576388827E+03  0.90925110830E+02 0.  0.
          1    1    3    3  502    0  0.87393638923E+02 -0.60399741708E+02  0.61331314637E+02  0.12266746544E+03  0.00000000000E+00 0. -1.
         -2    1    3    3    0  502  0.98898913351E+03 -0.70205880389E+03  0.10734133059E+04  0.16196302651E+04  0.00000000000E+00 0.  1.
         13    1    5    5    0    0 -0.15229205708E+03  0.42630973473E+03  0.50200132873E+02  0.45546999234E+03  0.00000000000E+00 0.  1.
        -13    1    5    5    0    0 -0.20769703324E+03  0.33883407582E+03  0.16790418137E+02  0.39777946992E+03  0.00000000000E+00 0. -1.
          2    1    6    6  503    0 -0.24747627776E+02 -0.24313782633E+01  0.31795584203E+02  0.40364784845E+02  0.00000000000E+00 0. -1.
         -2    1    6    6    0  503 -0.69164605434E+03 -0.25388668892E+00  0.27793073677E+03  0.74539910342E+03  0.00000000000E+00 0.  1.
<mgrwt>
<rscale>  0 0.30246899E+04</rscale>
<asrwt>0</asrwt>
<pdfrwt beam="1">  1        1 0.14383458E+00 0.30246899E+04</pdfrwt>
<pdfrwt beam="2">  1       -2 0.37636712E+00 0.30246899E+04</pdfrwt>
<totfact> 0.13413371E-01</totfact>
</mgrwt>
</event>
<event>
12    5  0.5029243E-008  0.1909288E+04  0.7818608E-02  0.8650247E-01
         -2   -1    0    0    0  501 -0.00000000000E+00  0.00000000000E+00  0.50934993829E+03  0.50934993829E+03  0.00000000000E+00 0.  1.
          1   -1    0    0  501    0  0.00000000000E+00 -0.00000000000E+00 -0.17892316536E+04  0.17892316536E+04  0.00000000000E+00 0. -1.
        -24    2    1    2    0    0 -0.37781689791E+03 -0.22957664359E+03  0.21467981938E+03  0.49816519358E+03  0.81425374489E+02 0.  0.
        254    2    1    2    0    0  0.37781689791E+03  0.22957664359E+03 -0.14945615347E+04  0.18004163983E+04  0.90129572432E+03 0.  0.
         23    2    4    4    0    0 -0.41923672416E+02 -0.19866704951E+03 -0.42790117538E+02  0.22701174787E+03  0.92071432300E+02 0.  0.
         23    2    4    4    0    0  0.41974057033E+03  0.42824369309E+03 -0.14517714171E+04  0.15734046504E+04  0.91581326062E+02 0.  0.
          3    1    3    3  502    0 -0.13724945159E+03 -0.88465292682E+02  0.12351946301E+03  0.20474515309E+03  0.00000000000E+00 0. -1.
         -4    1    3    3    0  502 -0.24056744632E+03 -0.14111135091E+03  0.91160356367E+02  0.29342004048E+03  0.00000000000E+00 0.  1.
         13    1    5    5    0    0  0.21684716134E+02 -0.84683313772E+02 -0.40793566726E+02  0.96465567076E+02  0.00000000000E+00 0. -1.
        -13    1    5    5    0    0 -0.63608388549E+02 -0.11398373573E+03 -0.19965508120E+01  0.13054618080E+03  0.00000000000E+00 0.  1.
          3    1    6    6  503    0  0.19783215100E+03  0.26574370559E+03 -0.81599647884E+03  0.88068582963E+03  0.00000000000E+00 0. -1.
         -3    1    6    6    0  503  0.22190841933E+03  0.16249998751E+03 -0.63577493829E+03  0.69271882078E+03  0.00000000000E+00 0.  1.
<mgrwt>
<rscale>  0 0.19092879E+04</rscale>
<asrwt>0</asrwt>
<pdfrwt beam="1">  1        1 0.27526641E+00 0.19092879E+04</pdfrwt>
<pdfrwt beam="2">  1       -2 0.78361529E-01 0.19092879E+04</pdfrwt>
<totfact> 0.49244172E+00</totfact>
</mgrwt>
</event>
<event>
12    5  0.5029243E-008  0.1771656E+04  0.7818608E-02  0.8721519E-01
         -2   -1    0    0    0  501 -0.00000000000E+00  0.00000000000E+00  0.93888204792E+03  0.93888204792E+03  0.00000000000E+00 0.  1.
          1   -1    0    0  501    0  0.00000000000E+00 -0.00000000000E+00 -0.83577218534E+03  0.83577218534E+03  0.00000000000E+00 0. -1.
        -24    2    1    2    0    0  0.39263042011E+03 -0.39216974311E+03 -0.36552614198E+03  0.66921025809E+03  0.79229128881E+02 0.  0.
        254    2    1    2    0    0 -0.39263042011E+03  0.39216974311E+03  0.46863600456E+03  0.11054439752E+04  0.83332522058E+03 0.  0.
         23    2    4    4    0    0 -0.58211806669E+03  0.18154204821E+03  0.51622890512E+03  0.80367927947E+03  0.87115687023E+02 0.  0.
         23    2    4    4    0    0  0.18948764658E+03  0.21062769490E+03 -0.47592900563E+02  0.30176469570E+03  0.92343128175E+02 0.  0.
          1    1    3    3  502    0  0.28791200573E+03 -0.29155363848E+03 -0.30970760418E+03  0.51362987378E+03  0.00000000000E+00 0. -1.
         -2    1    3    3    0  502  0.10471841437E+03 -0.10061610463E+03 -0.55818537797E+02  0.15558038431E+03  0.00000000000E+00 0.  1.
         13    1    5    5    0    0 -0.56033298095E+02 -0.23908059128E+01  0.70246047521E+02  0.89888562346E+02  0.00000000000E+00 0.  1.
        -13    1    5    5    0    0 -0.52608476859E+03  0.18393285413E+03  0.44598285760E+03  0.71379071712E+03  0.00000000000E+00 0. -1.
          3    1    6    6  503    0  0.18720353600E+03  0.20543953430E+03 -0.63307778272E+02  0.28505866227E+03  0.00000000000E+00 0. -1.
         -3    1    6    6    0  503  0.22841105818E+01  0.51881605927E+01  0.15714877708E+02  0.16706033427E+02  0.00000000000E+00 0.  1.
<mgrwt>
<rscale>  0 0.17716563E+04</rscale>
<asrwt>0</asrwt>
<pdfrwt beam="1">  1        1 0.12858034E+00 0.17716563E+04</pdfrwt>
<pdfrwt beam="2">  1       -2 0.14444339E+00 0.17716563E+04</pdfrwt>
<totfact> 0.56471054E+00</totfact>
</mgrwt>
</event>
<event>
12    5  0.5029243E-008  0.1477260E+04  0.7818608E-02  0.8899717E-01
         -2   -1    0    0    0  501 -0.00000000000E+00  0.00000000000E+00  0.40193574482E+03  0.40193574482E+03  0.00000000000E+00 0.  1.
          1   -1    0    0  501    0  0.00000000000E+00 -0.00000000000E+00 -0.13573678022E+04  0.13573678022E+04  0.00000000000E+00 0. -1.
        -24    2    1    2    0    0  0.45827172052E+03 -0.65440506608E+02 -0.31263368219E+03  0.56423331393E+03  0.79523478142E+02 0.  0.
        254    2    1    2    0    0 -0.45827172052E+03  0.65440506608E+02 -0.64279837518E+03  0.11950702331E+04  0.89482270932E+03 0.  0.
         23    2    4    4    0    0  0.14713608069E+02 -0.31401318450E+03 -0.44108908959E+03  0.54946069361E+03  0.92340124356E+02 0.  0.
         23    2    4    4    0    0 -0.47298532859E+03  0.37945369111E+03 -0.20170928559E+03  0.64560953946E+03  0.91786800745E+02 0.  0.
          1    1    3    3  502    0  0.45709404581E+03 -0.61882487378E+02 -0.31605735586E+03  0.55915709881E+03  0.00000000000E+00 0. -1.
         -2    1    3    3    0  502  0.11776747097E+01 -0.35580192295E+01  0.34236736671E+01  0.50762151194E+01  0.00000000000E+00 0.  1.
         13    1    5    5    0    0  0.52747854960E+02 -0.19835244600E+03 -0.26005157339E+03  0.33128967666E+03  0.00000000000E+00 0. -1.
        -13    1    5    5    0    0 -0.38034246891E+02 -0.11566073850E+03 -0.18103751620E+03  0.21817101695E+03  0.00000000000E+00 0.  1.
          4    1    6    6  503    0 -0.45186519119E+03  0.34986693071E+03 -0.20906634317E+03  0.60852095778E+03  0.00000000000E+00 0. -1.
         -4    1    6    6    0  503 -0.21120137404E+02  0.29586760399E+02  0.73570575802E+01  0.37088581681E+02  0.00000000000E+00 0.  1.
<mgrwt>
<rscale>  0 0.14772605E+04</rscale>
<asrwt>0</asrwt>
<pdfrwt beam="1">  1        1 0.20882582E+00 0.14772605E+04</pdfrwt>
<pdfrwt beam="2">  1       -2 0.61836268E-01 0.14772605E+04</pdfrwt>
<totfact> 0.17005836E+01</totfact>
</mgrwt>
</event>
<event>
12    5  0.5029243E-008  0.1806042E+04  0.7818608E-02  0.8703093E-01
          1   -1    0    0  501    0  0.00000000000E+00  0.00000000000E+00  0.57616062504E+03  0.57616062504E+03  0.00000000000E+00 0. -1.
         -2   -1    0    0    0  501 -0.00000000000E+00 -0.00000000000E+00 -0.14153119109E+04  0.14153119109E+04  0.00000000000E+00 0.  1.
        -24    2    1    2    0    0 -0.11604909443E+03 -0.11825324008E+03 -0.10259285230E+04  0.10423399036E+04  0.80572446574E+02 0.  0.
        254    2    1    2    0    0  0.11604909443E+03  0.11825324008E+03  0.18677723715E+03  0.94913263237E+03  0.91570508157E+03 0.  0.
         23    2    4    4    0    0  0.15371346378E+03 -0.94309465614E+01  0.53559564120E+03  0.56465808060E+03  0.90880610766E+02 0.  0.
         23    2    4    4    0    0 -0.37664369346E+02  0.12768418664E+03 -0.34881840405E+03  0.38447455177E+03  0.91785324088E+02 0.  0.
          3    1    3    3  502    0 -0.22306294346E+01  0.66520768621E+01 -0.15558614666E+03  0.15574426110E+03  0.00000000000E+00 0. -1.
         -4    1    3    3    0  502 -0.11381846500E+03 -0.12490531694E+03 -0.87034237635E+03  0.88659564247E+03  0.00000000000E+00 0.  1.
         13    1    5    5    0    0  0.13158562923E+03 -0.38744546202E+02  0.35966968162E+03  0.38493921281E+03  0.00000000000E+00 0.  1.
        -13    1    5    5    0    0  0.22127834545E+02  0.29313599641E+02  0.17592595958E+03  0.17971886779E+03  0.00000000000E+00 0. -1.
          2    1    6    6  503    0  0.13035644964E+02  0.41012695219E+02 -0.20245962310E+03  0.20698277270E+03  0.00000000000E+00 0. -1.
         -2    1    6    6    0  503 -0.50700014310E+02  0.86671491417E+02 -0.14635878095E+03  0.17749177907E+03  0.00000000000E+00 0.  1.
<mgrwt>
<rscale>  0 0.18060421E+04</rscale>
<asrwt>0</asrwt>
<pdfrwt beam="1">  1        1 0.88640098E-01 0.18060421E+04</pdfrwt>
<pdfrwt beam="2">  1       -2 0.21774029E+00 0.18060421E+04</pdfrwt>
<totfact> 0.30599976E+00</totfact>
</mgrwt>
</event>
<event>
12    5  0.5029243E-008  0.3287770E+04  0.7818608E-02  0.8166014E-01
         -2   -1    0    0    0  501 -0.00000000000E+00  0.00000000000E+00  0.20986341183E+04  0.20986341183E+04  0.00000000000E+00 0.  1.
          1   -1    0    0  501    0  0.00000000000E+00 -0.00000000000E+00 -0.12876747038E+04  0.12876747038E+04  0.00000000000E+00 0. -1.
        -24    2    1    2    0    0  0.81085321787E+03  0.32835268570E+03  0.16611820362E+04  0.18790773791E+04  0.78151213604E+02 0.  0.
        254    2    1    2    0    0 -0.81085321787E+03 -0.32835268570E+03 -0.85022262163E+03  0.15072314430E+04  0.88519471834E+03 0.  0.
         23    2    4    4    0    0  0.82201767395E+02  0.13462369359E+03 -0.31540639241E+03  0.36441840506E+03  0.91863551682E+02 0.  0.
         23    2    4    4    0    0 -0.89305498527E+03 -0.46297637930E+03 -0.53481622922E+03  0.11428130380E+04  0.89993923243E+02 0.  0.
          3    1    3    3  502    0  0.22405344133E+03  0.12121928749E+03  0.43765349606E+03  0.50639376265E+03  0.00000000000E+00 0. -1.
         -4    1    3    3    0  502  0.58679977654E+03  0.20713339821E+03  0.12235285401E+04  0.13726836165E+04  0.00000000000E+00 0.  1.
         13    1    5    5    0    0  0.71431566596E+02  0.14450610000E+03 -0.30887562762E+03  0.34840871829E+03  0.00000000000E+00 0. -1.
        -13    1    5    5    0    0  0.10770200799E+02 -0.98824064040E+01 -0.65307647986E+01  0.16009686769E+02  0.00000000000E+00 0.  1.
          4    1    6    6  503    0 -0.59652889564E+03 -0.33514501149E+03 -0.32302047043E+03  0.75664465001E+03  0.00000000000E+00 0. -1.
         -4    1    6    6    0  503 -0.29652608962E+03 -0.12783136781E+03 -0.21179575879E+03  0.38616838797E+03  0.00000000000E+00 0.  1.
<mgrwt>
<rscale>  0 0.32877701E+04</rscale>
<asrwt>0</asrwt>
<pdfrwt beam="1">  1        1 0.19810380E+00 0.32877701E+04</pdfrwt>
<pdfrwt beam="2">  1       -2 0.32286679E+00 0.32877701E+04</pdfrwt>
<totfact> 0.15468153E-01</totfact>
</mgrwt>
</event>
<event>
12    5  0.5029243E-008  0.1435979E+04  0.7818608E-02  0.8928179E-01
          1   -1    0    0  501    0  0.00000000000E+00  0.00000000000E+00  0.13089073583E+04  0.13089073583E+04  0.00000000000E+00 0. -1.
         -2   -1    0    0    0  501 -0.00000000000E+00 -0.00000000000E+00 -0.39384687754E+03  0.39384687754E+03  0.00000000000E+00 0.  1.
        -24    2    1    2    0    0  0.23077105348E+03  0.30354227850E+03  0.29464318305E+03  0.48855754716E+03  0.80502655911E+02 0.  0.
        254    2    1    2    0    0 -0.23077105348E+03 -0.30354227850E+03  0.62041729767E+03  0.12141966886E+04  0.97157747067E+03 0.  0.
         23    2    4    4    0    0 -0.39268889669E+03 -0.57180254897E+03  0.52242576190E+03  0.87325342491E+03  0.92087691029E+02 0.  0.
         23    2    4    4    0    0  0.16191784321E+03  0.26826027047E+03  0.97991535772E+02  0.34094326374E+03  0.91972861990E+02 0.  0.
          1    1    3    3  502    0  0.11066094477E+03  0.18033160330E+03  0.20472956629E+03  0.29441387052E+03  0.00000000000E+00 0. -1.
         -2    1    3    3    0  502  0.12011010871E+03  0.12321067520E+03  0.89913616765E+02  0.19414367664E+03  0.00000000000E+00 0.  1.
         13    1    5    5    0    0 -0.26345493393E+03 -0.32733819543E+03  0.35436239790E+03  0.54966490286E+03  0.00000000000E+00 0.  1.
        -13    1    5    5    0    0 -0.12923396276E+03 -0.24446435354E+03  0.16806336400E+03  0.32358852205E+03  0.00000000000E+00 0. -1.
          3    1    6    6  503    0  0.11401753658E+03  0.21154722132E+03  0.11243173749E+03  0.26531701998E+03  0.00000000000E+00 0. -1.
         -3    1    6    6    0  503  0.47900306631E+02  0.56713049146E+02 -0.14440201718E+02  0.75626243755E+02  0.00000000000E+00 0.  1.
<mgrwt>
<rscale>  0 0.14359792E+04</rscale>
<asrwt>0</asrwt>
<pdfrwt beam="1">  1        1 0.20137036E+00 0.14359792E+04</pdfrwt>
<pdfrwt beam="2">  1       -2 0.60591828E-01 0.14359792E+04</pdfrwt>
<totfact> 0.19285188E+01</totfact>
</mgrwt>
</event>
<event>
12    5  0.5029243E-008  0.2520332E+04  0.7818608E-02  0.8395778E-01
          1   -1    0    0  501    0  0.00000000000E+00  0.00000000000E+00  0.21783377261E+04  0.21783377261E+04  0.00000000000E+00 0. -1.
         -2   -1    0    0    0  501 -0.00000000000E+00 -0.00000000000E+00 -0.72900485517E+03  0.72900485517E+03  0.00000000000E+00 0.  1.
        -24    2    1    2    0    0 -0.13959252295E+03  0.80317246331E+03  0.14802693838E+04  0.16917503168E+04  0.79054459711E+02 0.  0.
        254    2    1    2    0    0  0.13959252295E+03 -0.80317246331E+03 -0.30936512870E+02  0.12155922644E+04  0.90118555649E+03 0.  0.
         23    2    4    4    0    0 -0.75859277381E+02 -0.43979526481E+03 -0.43064379355E+03  0.62688712321E+03  0.91426929327E+02 0.  0.
         23    2    4    4    0    0  0.21545180033E+03 -0.36337719851E+03  0.39970728068E+03  0.58870514122E+03  0.91352977001E+02 0.  0.
          1    1    3    3  502    0 -0.97998249537E+02  0.64795069061E+03  0.12432969840E+04  0.14054291675E+04  0.00000000000E+00 0. -1.
         -2    1    3    3    0  502 -0.41594273413E+02  0.15522177271E+03  0.23697239984E+03  0.28632114939E+03  0.00000000000E+00 0.  1.
         13    1    5    5    0    0 -0.71641433592E+02 -0.41741880749E+03 -0.43079613834E+03  0.60411610528E+03  0.00000000000E+00 0.  1.
        -13    1    5    5    0    0 -0.42178437890E+01 -0.22376457322E+02  0.15234478787E+00  0.22771017928E+02  0.00000000000E+00 0. -1.
          3    1    6    6  503    0  0.94838807227E+02 -0.18415923148E+03  0.13594806805E+03  0.24777186907E+03  0.00000000000E+00 0. -1.
         -3    1    6    6    0  503  0.12061299311E+03 -0.17921796703E+03  0.26375921263E+03  0.34093327215E+03  0.00000000000E+00 0.  1.
<mgrwt>
<rscale>  0 0.25203323E+04</rscale>
<asrwt>0</asrwt>
<pdfrwt beam="1">  1        1 0.33512888E+00 0.25203323E+04</pdfrwt>
<pdfrwt beam="2">  1       -2 0.11215459E+00 0.25203323E+04</pdfrwt>
<totfact> 0.11010675E+00</totfact>
</mgrwt>
</event>
<event>
12    5  0.5029243E-008  0.1755742E+04  0.7818608E-02  0.8730196E-01
         -2   -1    0    0    0  501 -0.00000000000E+00  0.00000000000E+00  0.14741142155E+04  0.14741142155E+04  0.00000000000E+00 0.  1.
          1   -1    0    0  501    0  0.00000000000E+00 -0.00000000000E+00 -0.52279385900E+03  0.52279385900E+03  0.00000000000E+00 0. -1.
        -24    2    1    2    0    0  0.11213124027E+03 -0.29902380553E+03  0.98914546608E+03  0.10424367563E+04  0.79227434643E+02 0.  0.
        254    2    1    2    0    0 -0.11213124027E+03  0.29902380553E+03 -0.37825109605E+02  0.95447131822E+03  0.89866351159E+03 0.  0.
         23    2    4    4    0    0  0.38401819135E+03  0.81100824880E+02  0.72862313053E+01  0.40314080262E+03  0.91772013644E+02 0.  0.
         23    2    4    4    0    0 -0.49614943162E+03  0.21792298065E+03 -0.45111340910E+02  0.55133051559E+03  0.90970436705E+02 0.  0.
          3    1    3    3  502    0  0.31093877003E+02 -0.17503903640E+03  0.46719813911E+03  0.49987958014E+03  0.00000000000E+00 0. -1.
         -4    1    3    3    0  502  0.81037363266E+02 -0.12398476913E+03  0.52194732697E+03  0.54255717611E+03  0.00000000000E+00 0.  1.
         13    1    5    5    0    0  0.10622073424E+03  0.58137658070E+02 -0.21244126191E+02  0.12293959722E+03  0.00000000000E+00 0.  1.
        -13    1    5    5    0    0  0.27779745711E+03  0.22963166810E+02  0.28530357496E+02  0.28020120540E+03  0.00000000000E+00 0. -1.
          4    1    6    6  503    0 -0.92851278396E+02  0.38367977496E+02 -0.44467417227E+02  0.10986725077E+03  0.00000000000E+00 0. -1.
         -4    1    6    6    0  503 -0.40329815322E+03  0.17955500315E+03 -0.64392368309E+00  0.44146326482E+03  0.00000000000E+00 0.  1.
<mgrwt>
<rscale>  0 0.17557424E+04</rscale>
<asrwt>0</asrwt>
<pdfrwt beam="1">  1        1 0.80429825E-01 0.17557424E+04</pdfrwt>
<pdfrwt beam="2">  1       -2 0.22678680E+00 0.17557424E+04</pdfrwt>
<totfact> 0.30905655E+00</totfact>
</mgrwt>
</event>
<event>
12    5  0.5029243E-008  0.1613316E+04  0.7818608E-02  0.8812409E-01
          1   -1    0    0  501    0  0.00000000000E+00  0.00000000000E+00  0.11286093417E+04  0.11286093417E+04  0.00000000000E+00 0. -1.
         -2   -1    0    0    0  501 -0.00000000000E+00 -0.00000000000E+00 -0.57654779155E+03  0.57654779155E+03  0.00000000000E+00 0.  1.
        -24    2    1    2    0    0  0.43482754956E+03 -0.12641408826E+03 -0.14349285247E+03  0.48167555119E+03  0.79784825183E+02 0.  0.
        254    2    1    2    0    0 -0.43482754956E+03  0.12641408826E+03  0.69555440259E+03  0.12234815820E+04  0.89891920384E+03 0.  0.
         23    2    4    4    0    0  0.84728135522E+01  0.41162081414E+03  0.12408880965E+03  0.43992160619E+03  0.92895122119E+02 0.  0.
         23    2    4    4    0    0 -0.44330036312E+03 -0.28520672588E+03  0.57146559295E+03  0.78355997584E+03  0.97648468453E+02 0.  0.
          1    1    3    3  502    0  0.14965688532E+03 -0.72042486847E+02 -0.80669752243E+02  0.18464807652E+03  0.00000000000E+00 0. -1.
         -2    1    3    3    0  502  0.28517066424E+03 -0.54371601412E+02 -0.62823100231E+02  0.29702747467E+03  0.00000000000E+00 0.  1.
         13    1    5    5    0    0  0.47006606571E+02  0.30195962684E+03  0.83418082310E+02  0.31677723050E+03  0.00000000000E+00 0.  1.
        -13    1    5    5    0    0 -0.38533793018E+02  0.10966118730E+03  0.40670727339E+02  0.12314437570E+03  0.00000000000E+00 0. -1.
          2    1    6    6  503    0 -0.42080764418E+03 -0.24234574026E+03  0.49788344255E+03  0.69548433022E+03  0.00000000000E+00 0.  1.
         -2    1    6    6    0  503 -0.22492718936E+02 -0.42860985625E+02  0.73582150400E+02  0.88075645620E+02  0.00000000000E+00 0. -1.
<mgrwt>
<rscale>  0 0.16133161E+04</rscale>
<asrwt>0</asrwt>
<pdfrwt beam="1">  1        1 0.17363221E+00 0.16133161E+04</pdfrwt>
<pdfrwt beam="2">  1       -2 0.88699660E-01 0.16133161E+04</pdfrwt>
<totfact> 0.11085036E+01</totfact>
</mgrwt>
</event>
<event>
12    5  0.5029243E-008  0.2037418E+04  0.7818608E-02  0.8589324E-01
         -2   -1    0    0    0  501 -0.00000000000E+00  0.00000000000E+00  0.10557071809E+04  0.10557071809E+04  0.00000000000E+00 0.  1.
          1   -1    0    0  501    0  0.00000000000E+00 -0.00000000000E+00 -0.98300721336E+03  0.98300721336E+03  0.00000000000E+00 0. -1.
        -24    2    1    2    0    0 -0.69260703740E+03  0.39929577079E+03  0.21553073859E+03  0.83182481141E+03  0.79607768302E+02 0.  0.
        254    2    1    2    0    0  0.69260703740E+03 -0.39929577079E+03 -0.14283077110E+03  0.12068895828E+04  0.89277108772E+03 0.  0.
         23    2    4    4    0    0  0.88407608122E+03 -0.40311809583E+03 -0.54603262706E+02  0.97741187104E+03  0.90872068194E+02 0.  0.
         23    2    4    4    0    0 -0.19146904382E+03  0.38223250436E+01 -0.88227508390E+02  0.22947771176E+03  0.90558942417E+02 0.  0.
          3    1    3    3  502    0 -0.53762383540E+03  0.30213675513E+03  0.19964658692E+03  0.64821660489E+03  0.00000000000E+00 0. -1.
         -4    1    3    3    0  502 -0.15498320200E+03  0.97159015662E+02  0.15884151670E+02  0.18360820652E+03  0.00000000000E+00 0.  1.
         13    1    5    5    0    0  0.49987289095E+03 -0.26962153693E+03 -0.79200994846E+01  0.56800652132E+03  0.00000000000E+00 0. -1.
        -13    1    5    5    0    0  0.38420319027E+03 -0.13349655890E+03 -0.46683163222E+02  0.40940534972E+03  0.00000000000E+00 0.  1.
          1    1    6    6  503    0  0.68008885421E+01 -0.21506513402E+00 -0.17760016255E+02  0.19018846320E+02  0.00000000000E+00 0. -1.
         -1    1    6    6    0  503 -0.19826993236E+03  0.40373901776E+01 -0.70467492135E+02  0.21045886544E+03  0.00000000000E+00 0.  1.
<mgrwt>
<rscale>  0 0.20374178E+04</rscale>
<asrwt>0</asrwt>
<pdfrwt beam="1">  1        1 0.15123188E+00 0.20374178E+04</pdfrwt>
<pdfrwt beam="2">  1       -2 0.16241649E+00 0.20374178E+04</pdfrwt>
<totfact> 0.30576002E+00</totfact>
</mgrwt>
</event>
<event>
12    5  0.5029243E-008  0.2702431E+04  0.7818608E-02  0.8334217E-01
         -2   -1    0    0    0  501 -0.00000000000E+00  0.00000000000E+00  0.10802563386E+04  0.10802563386E+04  0.00000000000E+00 0.  1.
          1   -1    0    0  501    0  0.00000000000E+00 -0.00000000000E+00 -0.16901383996E+04  0.16901383996E+04  0.00000000000E+00 0. -1.
        -24    2    1    2    0    0  0.27025838133E+03 -0.91294806643E+03  0.47962052030E+03  0.10691144202E+04  0.80349458151E+02 0.  0.
        254    2    1    2    0    0 -0.27025838133E+03  0.91294806643E+03 -0.10895025813E+04  0.17012803180E+04  0.89488830646E+03 0.  0.
         23    2    4    4    0    0 -0.77155346749E+02  0.11524715987E+03 -0.81392751380E+03  0.83063569464E+03  0.90789889897E+02 0.  0.
         23    2    4    4    0    0 -0.19310303458E+03  0.79770090656E+03 -0.27557506749E+03  0.87064462334E+03  0.92005021815E+02 0.  0.
          3    1    3    3  502    0  0.36210956375E+02 -0.58676414307E+02  0.23693228522E+02  0.72907640445E+02  0.00000000000E+00 0. -1.
         -4    1    3    3    0  502  0.23404742495E+03 -0.85427165212E+03  0.45592729178E+03  0.99620677980E+03  0.00000000000E+00 0.  1.
         13    1    5    5    0    0  0.93103903393E+01  0.71026287318E+01 -0.11723931361E+02  0.16570493950E+02  0.00000000000E+00 0.  1.
        -13    1    5    5    0    0 -0.86465737089E+02  0.10814453114E+03 -0.80220358243E+03  0.81406520069E+03  0.00000000000E+00 0. -1.
          2    1    6    6  503    0 -0.16822332125E+03  0.67971084410E+03 -0.19956100013E+03  0.72810061817E+03  0.00000000000E+00 0. -1.
         -2    1    6    6    0  503 -0.24879713326E+02  0.11799006245E+03 -0.76014067360E+02  0.14254400517E+03  0.00000000000E+00 0.  1.
<mgrwt>
<rscale>  0 0.27024305E+04</rscale>
<asrwt>0</asrwt>
<pdfrwt beam="1">  1        1 0.26002129E+00 0.27024305E+04</pdfrwt>
<pdfrwt beam="2">  1       -2 0.16619328E+00 0.27024305E+04</pdfrwt>
<totfact> 0.84257801E-01</totfact>
</mgrwt>
</event>
<event>
12    5  0.5029243E-008  0.1797439E+04  0.7818608E-02  0.8707662E-01
         -2   -1    0    0    0  501 -0.00000000000E+00  0.00000000000E+00  0.31687999622E+03  0.31687999622E+03  0.00000000000E+00 0.  1.
          1   -1    0    0  501    0  0.00000000000E+00 -0.00000000000E+00 -0.25489053202E+04  0.25489053202E+04  0.00000000000E+00 0. -1.
        -24    2    1    2    0    0  0.31333850985E+03 -0.21297127501E+02 -0.18173751114E+04  0.18460098024E+04  0.79153683853E+02 0.  0.
        254    2    1    2    0    0 -0.31333850985E+03  0.21297127501E+02 -0.41465021259E+03  0.10197755140E+04  0.87713893471E+03 0.  0.
         23    2    4    4    0    0 -0.57250765255E+03  0.13262195204E+02 -0.46068805282E+03  0.74071590322E+03  0.92117692248E+02 0.  0.
         23    2    4    4    0    0  0.25916914270E+03  0.80349322971E+01  0.46037840231E+02  0.27905961079E+03  0.92312398846E+02 0.  0.
          3    1    3    3  502    0  0.29772546758E+03 -0.17545213304E+02 -0.15675737228E+04  0.15956928479E+04  0.00000000000E+00 0. -1.
         -4    1    3    3    0  502  0.15613042271E+02 -0.37519141963E+01 -0.24980138859E+03  0.25031695446E+03  0.00000000000E+00 0.  1.
         13    1    5    5    0    0 -0.55734334885E+03  0.11321053721E+02 -0.42217445438E+03  0.69927894627E+03  0.00000000000E+00 0. -1.
        -13    1    5    5    0    0 -0.15164303702E+02  0.19411414827E+01 -0.38513598433E+02  0.41436956950E+02  0.00000000000E+00 0.  1.
          3    1    6    6  503    0  0.16879492534E+03  0.45642153865E+01 -0.15655451107E+02  0.16958081269E+03  0.00000000000E+00 0. -1.
         -3    1    6    6    0  503  0.90374217354E+02  0.34707169106E+01  0.61693291338E+02  0.10947879810E+03  0.00000000000E+00 0.  1.
<mgrwt>
<rscale>  0 0.17974394E+04</rscale>
<asrwt>0</asrwt>
<pdfrwt beam="1">  1        1 0.39213928E+00 0.17974394E+04</pdfrwt>
<pdfrwt beam="2">  1       -2 0.48750768E-01 0.17974394E+04</pdfrwt>
<totfact> 0.41426621E+00</totfact>
</mgrwt>
</event>
<event>
12    5  0.5029243E-008  0.1323569E+04  0.7818608E-02  0.9011081E-01
          1   -1    0    0  501    0  0.00000000000E+00  0.00000000000E+00  0.12649287097E+04  0.12649287097E+04  0.00000000000E+00 0. -1.
         -2   -1    0    0    0  501 -0.00000000000E+00 -0.00000000000E+00 -0.34623183360E+03  0.34623183360E+03  0.00000000000E+00 0.  1.
        -24    2    1    2    0    0 -0.32618839489E+01  0.26710062957E+03  0.52859493478E+03  0.59733535302E+03  0.77740161361E+02 0.  0.
        254    2    1    2    0    0  0.32618839489E+01 -0.26710062957E+03  0.39010194127E+03  0.10138251902E+04  0.89683254042E+03 0.  0.
         23    2    4    4    0    0  0.21742683051E+03  0.19716158542E+03  0.38785812339E+03  0.49477543994E+03  0.90673561181E+02 0.  0.
         23    2    4    4    0    0 -0.21416494656E+03 -0.46426221500E+03  0.22438178783E+01  0.51904975029E+03  0.89451550834E+02 0.  0.
          3    1    3    3  502    0 -0.27527375544E+02  0.22125077112E+03  0.46141254705E+03  0.51245604563E+03  0.00000000000E+00 0. -1.
         -4    1    3    3    0  502  0.24265491595E+02  0.45849858449E+02  0.67182387730E+02  0.84879307392E+02  0.00000000000E+00 0.  1.
         13    1    5    5    0    0  0.10161241692E+03  0.13643392249E+03  0.26772780750E+03  0.31720258099E+03  0.00000000000E+00 0. -1.
        -13    1    5    5    0    0  0.11581441359E+03  0.60727662933E+02  0.12013031589E+03  0.17757285895E+03  0.00000000000E+00 0.  1.
          3    1    6    6  503    0 -0.15846652573E+02 -0.28407715830E+02  0.22853780572E+02  0.39754370865E+02  0.00000000000E+00 0. -1.
         -3    1    6    6    0  503 -0.19831829399E+03 -0.43585449917E+03 -0.20609962694E+02  0.47929537942E+03  0.00000000000E+00 0.  1.
<mgrwt>
<rscale>  0 0.13235688E+04</rscale>
<asrwt>0</asrwt>
<pdfrwt beam="1">  1        1 0.19460441E+00 0.13235688E+04</pdfrwt>
<pdfrwt beam="2">  1       -2 0.53266437E-01 0.13235688E+04</pdfrwt>
<totfact> 0.27398461E+01</totfact>
</mgrwt>
</event>
<event>
12    5  0.5029243E-008  0.1813826E+04  0.7818608E-02  0.8698981E-01
         -2   -1    0    0    0  501 -0.00000000000E+00  0.00000000000E+00  0.12103584502E+04  0.12103584502E+04  0.00000000000E+00 0.  1.
          1   -1    0    0  501    0  0.00000000000E+00 -0.00000000000E+00 -0.67954327817E+03  0.67954327817E+03  0.00000000000E+00 0. -1.
        -24    2    1    2    0    0 -0.45852314652E+03 -0.12859311864E+03 -0.30000467861E+03  0.56852069051E+03  0.80207869287E+02 0.  0.
        254    2    1    2    0    0  0.45852314652E+03  0.12859311864E+03  0.83081985062E+03  0.13213810378E+04  0.91049797195E+03 0.  0.
         23    2    4    4    0    0  0.47378495463E+03 -0.28015825603E+03  0.67147755591E+03  0.87333446575E+03  0.94181470189E+02 0.  0.
         23    2    4    4    0    0 -0.15261808113E+02  0.40875137467E+03  0.15934229471E+03  0.44804657209E+03  0.89694786891E+02 0.  0.
          1    1    3    3  502    0 -0.43895972232E+03 -0.10632681262E+03 -0.26930699181E+03  0.52584910834E+03  0.00000000000E+00 0. -1.
         -2    1    3    3    0  502 -0.19563424195E+02 -0.22266306018E+02 -0.30697686804E+02  0.42671582172E+02  0.00000000000E+00 0.  1.
         13    1    5    5    0    0  0.42086376027E+03 -0.27807130807E+03  0.62224568748E+03  0.80102412739E+03  0.00000000000E+00 0. -1.
        -13    1    5    5    0    0  0.52921194362E+02 -0.20869479553E+01  0.49231868431E+02  0.72310338360E+02  0.00000000000E+00 0.  1.
          4    1    6    6  503    0 -0.46455051461E+02  0.25928174444E+03  0.12489181342E+03  0.29151854121E+03  0.00000000000E+00 0. -1.
         -4    1    6    6    0  503  0.31193243348E+02  0.14946963023E+03  0.34450481290E+02  0.15652803088E+03  0.00000000000E+00 0.  1.
<mgrwt>
<rscale>  0 0.18138257E+04</rscale>
<asrwt>0</asrwt>
<pdfrwt beam="1">  1        1 0.10454512E+00 0.18138257E+04</pdfrwt>
<pdfrwt beam="2">  1       -2 0.18620899E+00 0.18138257E+04</pdfrwt>
<totfact> 0.38640367E+00</totfact>
</mgrwt>
</event>
<event>
12    5  0.5029243E-008  0.1541909E+04  0.7818608E-02  0.8857052E-01
         -2   -1    0    0    0  501 -0.00000000000E+00  0.00000000000E+00  0.32456014457E+03  0.32456014457E+03  0.00000000000E+00 0.  1.
          1   -1    0    0  501    0  0.00000000000E+00 -0.00000000000E+00 -0.18313119013E+04  0.18313119013E+04  0.00000000000E+00 0. -1.
        -24    2    1    2    0    0 -0.14035892942E+03  0.47609689812E+03 -0.46451021098E+03  0.68437505768E+03  0.78934137097E+02 0.  0.
        254    2    1    2    0    0  0.14035892942E+03 -0.47609689812E+03 -0.10422415457E+04  0.14714969881E+04  0.91250592384E+03 0.  0.
         23    2    4    4    0    0 -0.17060267454E+03  0.71229932649E+02 -0.74036431571E+03  0.76845879486E+03  0.90612491111E+02 0.  0.
         23    2    4    4    0    0  0.31096160396E+03 -0.54732683077E+03 -0.30187723000E+03  0.70303819329E+03  0.82879794970E+02 0.  0.
          1    1    3    3  502    0 -0.15883019122E+02  0.15690675063E+03 -0.17748460485E+03  0.23742953406E+03  0.00000000000E+00 0. -1.
         -2    1    3    3    0  502 -0.12447591030E+03  0.31919014750E+03 -0.28702560613E+03  0.44694552361E+03  0.00000000000E+00 0.  1.
         13    1    5    5    0    0  0.78444623298E+01 -0.56508352876E+01 -0.18160959932E+02  0.20573963992E+02  0.00000000000E+00 0. -1.
        -13    1    5    5    0    0 -0.17844713687E+03  0.76880767937E+02 -0.72220335578E+03  0.74788483086E+03  0.00000000000E+00 0.  1.
          2    1    6    6  503    0  0.26412908605E+03 -0.41208940037E+03 -0.25824031951E+03  0.55341657964E+03  0.00000000000E+00 0.  1.
         -2    1    6    6    0  503  0.46832517902E+02 -0.13523743041E+03 -0.43636910493E+02  0.14962161366E+03  0.00000000000E+00 0. -1.
<mgrwt>
<rscale>  0 0.15419090E+04</rscale>
<asrwt>0</asrwt>
<pdfrwt beam="1">  1        1 0.28174029E+00 0.15419090E+04</pdfrwt>
<pdfrwt beam="2">  1       -2 0.49932330E-01 0.15419090E+04</pdfrwt>
<totfact> 0.12460079E+01</totfact>
</mgrwt>
</event>
<event>
12    5  0.5029243E-008  0.1490399E+04  0.7818608E-02  0.8890863E-01
          1   -1    0    0  501    0  0.00000000000E+00  0.00000000000E+00  0.11995894352E+04  0.11995894352E+04  0.00000000000E+00 0. -1.
         -2   -1    0    0    0  501 -0.00000000000E+00 -0.00000000000E+00 -0.46292704417E+03  0.46292704417E+03  0.00000000000E+00 0.  1.
        -24    2    1    2    0    0 -0.16451381880E+02  0.15957092006E+03 -0.25670973362E+03  0.31342273591E+03  0.81242830765E+02 0.  0.
        254    2    1    2    0    0  0.16451381880E+02 -0.15957092006E+03  0.99337212464E+03  0.13490937434E+04  0.89862796757E+03 0.  0.
         23    2    4    4    0    0  0.24289555748E+03  0.30936906790E+01 -0.51063194090E+02  0.26442512925E+03  0.91133837945E+02 0.  0.
         23    2    4    4    0    0 -0.22644417561E+03 -0.16266461074E+03  0.10444353187E+04  0.10846686142E+04  0.89017567737E+02 0.  0.
          3    1    3    3  502    0  0.84082172959E+01 -0.69586088108E+01 -0.10496141089E+02  0.15142302746E+02  0.00000000000E+00 0. -1.
         -4    1    3    3    0  502 -0.24859599176E+02  0.16652952888E+03 -0.24621359253E+03  0.29828043316E+03  0.00000000000E+00 0.  1.
         13    1    5    5    0    0  0.14208708825E+03 -0.43201704964E+02 -0.30225878719E+02  0.15155438530E+03  0.00000000000E+00 0. -1.
        -13    1    5    5    0    0  0.10080846923E+03  0.46295395643E+02 -0.20837315371E+02  0.11287074394E+03  0.00000000000E+00 0.  1.
          2    1    6    6  503    0 -0.80573438176E+02 -0.12164970167E+02  0.34583098253E+03  0.35530146906E+03  0.00000000000E+00 0. -1.
         -2    1    6    6    0  503 -0.14587073743E+03 -0.15049964058E+03  0.69860433620E+03  0.72936714514E+03  0.00000000000E+00 0.  1.
<mgrwt>
<rscale>  0 0.14903991E+04</rscale>
<asrwt>0</asrwt>
<pdfrwt beam="1">  1        1 0.18455222E+00 0.14903991E+04</pdfrwt>
<pdfrwt beam="2">  1       -2 0.71219546E-01 0.14903991E+04</pdfrwt>
<totfact> 0.16251059E+01</totfact>
</mgrwt>
</event>
<event>
12    5  0.5029243E-008  0.1288352E+04  0.7818608E-02  0.9038853E-01
          1   -1    0    0  501    0  0.00000000000E+00  0.00000000000E+00  0.71729658113E+03  0.71729658113E+03  0.00000000000E+00 0. -1.
         -2   -1    0    0    0  501 -0.00000000000E+00 -0.00000000000E+00 -0.57850966171E+03  0.57850966171E+03  0.00000000000E+00 0.  1.
        -24    2    1    2    0    0  0.13540267627E+03 -0.28878234924E+03  0.41181857717E+02  0.33125449852E+03  0.79400676358E+02 0.  0.
        254    2    1    2    0    0 -0.13540267627E+03  0.28878234924E+03  0.97605061704E+02  0.96455174432E+03  0.90504375001E+03 0.  0.
         23    2    4    4    0    0 -0.27749777625E+03  0.24343154047E+03 -0.32925285308E+03  0.50301246151E+03  0.91379234249E+02 0.  0.
         23    2    4    4    0    0  0.14209509997E+03  0.45350808773E+02  0.42685791479E+03  0.46153928282E+03  0.92537110802E+02 0.  0.
          3    1    3    3  502    0  0.63710580582E+02 -0.16420719029E+03  0.60491585690E+02  0.18623176786E+03  0.00000000000E+00 0. -1.
         -4    1    3    3    0  502  0.71692095691E+02 -0.12457515896E+03 -0.19309727972E+02  0.14502273066E+03  0.00000000000E+00 0.  1.
         13    1    5    5    0    0 -0.19705536113E+03  0.17395184880E+03 -0.17534995917E+03  0.31597099429E+03  0.00000000000E+00 0.  1.
        -13    1    5    5    0    0 -0.80442415114E+02  0.69479691671E+02 -0.15390289392E+03  0.18704146722E+03  0.00000000000E+00 0. -1.
          2    1    6    6  503    0 -0.94923298709E+01  0.14470754762E+02  0.21092447663E+02  0.27283665776E+02  0.00000000000E+00 0. -1.
         -2    1    6    6    0  503  0.15158742984E+03  0.30880054011E+02  0.40576546712E+03  0.43425561704E+03  0.00000000000E+00 0.  1.
<mgrwt>
<rscale>  0 0.12883524E+04</rscale>
<asrwt>0</asrwt>
<pdfrwt beam="1">  1        1 0.11035332E+00 0.12883524E+04</pdfrwt>
<pdfrwt beam="2">  1       -2 0.89001487E-01 0.12883524E+04</pdfrwt>
<totfact> 0.24513464E+01</totfact>
</mgrwt>
</event>
<event>
12    5  0.5029243E-008  0.3381846E+04  0.7818608E-02  0.8142376E-01
          1   -1    0    0  501    0  0.00000000000E+00  0.00000000000E+00  0.31438270177E+04  0.31438270177E+04  0.00000000000E+00 0. -1.
         -2   -1    0    0    0  501 -0.00000000000E+00 -0.00000000000E+00 -0.90947135688E+03  0.90947135688E+03  0.00000000000E+00 0.  1.
        -24    2    1    2    0    0  0.96073356504E+03  0.12414476684E+04  0.10505566617E+04  0.18905896348E+04  0.80365237345E+02 0.  0.
        254    2    1    2    0    0 -0.96073356504E+03 -0.12414476684E+04  0.11837989991E+04  0.21627087398E+04  0.90095933686E+03 0.  0.
         23    2    4    4    0    0 -0.48878236376E+03 -0.10858271928E+04  0.45869188940E+03  0.12792446108E+04  0.90219916037E+02 0.  0.
         23    2    4    4    0    0 -0.47195120128E+03 -0.15562047557E+03  0.72510710969E+03  0.88346412895E+03  0.88163925824E+02 0.  0.
          1    1    3    3  502    0  0.10915576567E+02  0.52734606410E+01  0.33420863342E+01  0.12574925049E+02  0.00000000000E+00 0. -1.
         -2    1    3    3    0  502  0.94981798847E+03  0.12361742077E+04  0.10472145754E+04  0.18780147097E+04  0.00000000000E+00 0.  1.
         13    1    5    5    0    0 -0.49083414921E+03 -0.10586059261E+04  0.44934829954E+03  0.12503913640E+04  0.00000000000E+00 0. -1.
        -13    1    5    5    0    0  0.20517854473E+01 -0.27221266649E+02  0.93435898548E+01  0.28853246834E+02  0.00000000000E+00 0.  1.
          4    1    6    6  503    0 -0.43016441364E+03 -0.15653031715E+03  0.69395914655E+03  0.83133775328E+03  0.00000000000E+00 0. -1.
         -4    1    6    6    0  503 -0.41786787637E+02  0.90984157817E+00  0.31147963137E+02  0.52126375668E+02  0.00000000000E+00 0.  1.
<mgrwt>
<rscale>  0 0.33818460E+04</rscale>
<asrwt>0</asrwt>
<pdfrwt beam="1">  1        1 0.48366569E+00 0.33818460E+04</pdfrwt>
<pdfrwt beam="2">  1       -2 0.13991867E+00 0.33818460E+04</pdfrwt>
<totfact> 0.12208809E-01</totfact>
</mgrwt>
</event>
<event>
12    5  0.5029243E-008  0.1791909E+04  0.7818608E-02  0.8710614E-01
          1   -1    0    0  501    0  0.00000000000E+00  0.00000000000E+00  0.97545392708E+03  0.97545392708E+03  0.00000000000E+00 0. -1.
         -2   -1    0    0    0  501 -0.00000000000E+00 -0.00000000000E+00 -0.82293393577E+03  0.82293393577E+03  0.00000000000E+00 0.  1.
        -24    2    1    2    0    0 -0.65943799923E+03 -0.11029498305E+03  0.70884028232E+02  0.67699086423E+03  0.79174659368E+02 0.  0.
        254    2    1    2    0    0  0.65943799923E+03  0.11029498305E+03  0.81635963075E+02  0.11213969986E+04  0.89657310909E+03 0.  0.
         23    2    4    4    0    0  0.50983096053E+03 -0.33405494873E+03  0.16091569744E+03  0.63713364062E+03  0.92331453147E+02 0.  0.
         23    2    4    4    0    0  0.14960703870E+03  0.44434993178E+03 -0.79279734363E+02  0.48426335800E+03  0.91632940131E+02 0.  0.
          3    1    3    3  502    0 -0.46334949376E+03 -0.62220111419E+02  0.16061298640E+02  0.46778420340E+03  0.00000000000E+00 0. -1.
         -4    1    3    3    0  502 -0.19608850546E+03 -0.48074871632E+02  0.54822729592E+02  0.20920666083E+03  0.00000000000E+00 0.  1.
         13    1    5    5    0    0  0.45757779385E+03 -0.30993040538E+03  0.17140738992E+03  0.57863182329E+03  0.00000000000E+00 0. -1.
        -13    1    5    5    0    0  0.52253166679E+02 -0.24124543353E+02 -0.10491692480E+02  0.58501817331E+02  0.00000000000E+00 0.  1.
          4    1    6    6  503    0  0.59364779489E+02  0.11517294546E+03  0.14262062368E+02  0.13035486501E+03  0.00000000000E+00 0.  1.
         -4    1    6    6    0  503  0.90242259206E+02  0.32917698633E+03 -0.93541796732E+02  0.35390849299E+03  0.00000000000E+00 0. -1.
<mgrwt>
<rscale>  0 0.17919086E+04</rscale>
<asrwt>0</asrwt>
<pdfrwt beam="1">  1        1 0.15006983E+00 0.17919086E+04</pdfrwt>
<pdfrwt beam="2">  1       -2 0.12660522E+00 0.17919086E+04</pdfrwt>
<totfact> 0.60794207E+00</totfact>
</mgrwt>
</event>
<event>
12    5  0.5029243E-008  0.1714179E+04  0.7818608E-02  0.8753318E-01
         -2   -1    0    0    0  501 -0.00000000000E+00  0.00000000000E+00  0.42337542866E+03  0.42337542866E+03  0.00000000000E+00 0.  1.
          1   -1    0    0  501    0  0.00000000000E+00 -0.00000000000E+00 -0.17351096488E+04  0.17351096488E+04  0.00000000000E+00 0. -1.
        -24    2    1    2    0    0 -0.45256147699E+03  0.15766143192E+03  0.75563926514E+01  0.48587246885E+03  0.79661404322E+02 0.  0.
        254    2    1    2    0    0  0.45256147699E+03 -0.15766143192E+03 -0.13192906128E+04  0.16726126086E+04  0.90963520156E+03 0.  0.
         23    2    4    4    0    0 -0.83876423371E+02 -0.53749813853E+02  0.87348881341E+02  0.16082007859E+03  0.91153572173E+02 0.  0.
         23    2    4    4    0    0  0.53643790037E+03 -0.10391161807E+03 -0.14066394942E+04  0.15117925300E+04  0.91207138176E+02 0.  0.
          1    1    3    3  502    0 -0.16429500419E+03  0.18919972280E+02  0.13191172541E+02  0.16590606012E+03  0.00000000000E+00 0. -1.
         -4    1    3    3    0  502 -0.28826647281E+03  0.13874145964E+03 -0.56347798892E+01  0.31996640872E+03  0.00000000000E+00 0.  1.
         13    1    5    5    0    0  0.18484429122E+02 -0.19671878609E+02  0.14480946755E+02  0.30632576563E+02  0.00000000000E+00 0.  1.
        -13    1    5    5    0    0 -0.10236085249E+03 -0.34077935244E+02  0.72867934586E+02  0.13018750203E+03  0.00000000000E+00 0. -1.
          4    1    6    6  503    0  0.53215507358E+03 -0.10010495507E+03 -0.14051471420E+04  0.15058713474E+04  0.00000000000E+00 0. -1.
         -4    1    6    6    0  503  0.42828267853E+01 -0.38066630044E+01 -0.14923521598E+01  0.59211826074E+01  0.00000000000E+00 0.  1.
<mgrwt>
<rscale>  0 0.17141794E+04</rscale>
<asrwt>0</asrwt>
<pdfrwt beam="1">  1        1 0.26693994E+00 0.17141794E+04</pdfrwt>
<pdfrwt beam="2">  1       -2 0.65134682E-01 0.17141794E+04</pdfrwt>
<totfact> 0.81787825E+00</totfact>
</mgrwt>
</event>
<event>
12    5  0.5029243E-008  0.1268663E+04  0.7818608E-02  0.9054791E-01
         -2   -1    0    0    0  501 -0.00000000000E+00  0.00000000000E+00  0.35396023664E+03  0.35396023664E+03  0.00000000000E+00 0.  1.
          1   -1    0    0  501    0  0.00000000000E+00 -0.00000000000E+00 -0.11367848598E+04  0.11367848598E+04  0.00000000000E+00 0. -1.
        -24    2    1    2    0    0 -0.13923703145E+03 -0.25631026043E+03 -0.85126012359E+02  0.31416432885E+03  0.79817836441E+02 0.  0.
        254    2    1    2    0    0  0.13923703145E+03  0.25631026043E+03 -0.69769861081E+03  0.11765807676E+04  0.90137508876E+03 0.  0.
         23    2    4    4    0    0  0.18810913605E+03 -0.27887805019E+03 -0.89011093696E+02  0.35953294276E+03  0.90459649463E+02 0.  0.
         23    2    4    4    0    0 -0.48872104598E+02  0.53518831062E+03 -0.60868751712E+03  0.81704782485E+03  0.90838560970E+02 0.  0.
          1    1    3    3  502    0 -0.21710171632E+02 -0.34145997004E+01  0.18247568423E+01  0.22052681944E+02  0.00000000000E+00 0. -1.
         -2    1    3    3    0  502 -0.11752685982E+03 -0.25289566073E+03 -0.86950769201E+02  0.29211164691E+03  0.00000000000E+00 0.  1.
         13    1    5    5    0    0  0.12657636880E+03 -0.10967066305E+03 -0.55169124393E+02  0.17633168677E+03  0.00000000000E+00 0.  1.
        -13    1    5    5    0    0  0.61532767252E+02 -0.16920738714E+03 -0.33841969303E+02  0.18320125599E+03  0.00000000000E+00 0. -1.
          3    1    6    6  503    0 -0.85773207705E+01  0.42368946241E+03 -0.50761009268E+03  0.66125209805E+03  0.00000000000E+00 0. -1.
         -3    1    6    6    0  503 -0.40294783828E+02  0.11149884821E+03 -0.10107742443E+03  0.15579572679E+03  0.00000000000E+00 0.  1.
<mgrwt>
<rscale>  0 0.12686633E+04</rscale>
<asrwt>0</asrwt>
<pdfrwt beam="1">  1        1 0.17488998E+00 0.12686633E+04</pdfrwt>
<pdfrwt beam="2">  1       -2 0.54455421E-01 0.12686633E+04</pdfrwt>
<totfact> 0.32613442E+01</totfact>
</mgrwt>
</event>
<event>
12    5  0.5029243E-008  0.1481756E+04  0.7818608E-02  0.8896676E-01
          1   -1    0    0  501    0  0.00000000000E+00  0.00000000000E+00  0.17887971315E+04  0.17887971315E+04  0.00000000000E+00 0. -1.
         -2   -1    0    0    0  501 -0.00000000000E+00 -0.00000000000E+00 -0.30685456835E+03  0.30685456835E+03  0.00000000000E+00 0.  1.
        -24    2    1    2    0    0  0.16234517554E+03  0.42173887337E+03  0.38042640160E+03  0.59622105345E+03  0.80843454979E+02 0.  0.
        254    2    1    2    0    0 -0.16234517554E+03 -0.42173887337E+03  0.11015161615E+04  0.14994306464E+04  0.91144652936E+03 0.  0.
         23    2    4    4    0    0 -0.39050771403E+02 -0.47835003533E+03  0.11589125592E+03  0.50038647567E+03  0.81314960440E+02 0.  0.
         23    2    4    4    0    0 -0.12329440413E+03  0.56611161960E+02  0.98562490562E+03  0.99904417072E+03  0.90699871692E+02 0.  0.
          3    1    3    3  502    0  0.31910946694E+02  0.10854827103E+03  0.14195870902E+03  0.18153046777E+03  0.00000000000E+00 0. -1.
         -4    1    3    3    0  502  0.13043422884E+03  0.31319060233E+03  0.23846769258E+03  0.41469058568E+03  0.00000000000E+00 0.  1.
         13    1    5    5    0    0 -0.58577143302E+02 -0.37421443382E+03  0.71245175089E+02  0.38541354306E+03  0.00000000000E+00 0. -1.
        -13    1    5    5    0    0  0.19526371900E+02 -0.10413560151E+03  0.44646080831E+02  0.11497293261E+03  0.00000000000E+00 0.  1.
          3    1    6    6  503    0 -0.61463205349E+02 -0.13539844181E+02  0.54394297634E+03  0.54757192633E+03  0.00000000000E+00 0. -1.
         -3    1    6    6    0  503 -0.61831198784E+02  0.70151006141E+02  0.44168192928E+03  0.45147224439E+03  0.00000000000E+00 0.  1.
<mgrwt>
<rscale>  0 0.14817565E+04</rscale>
<asrwt>0</asrwt>
<pdfrwt beam="1">  1        1 0.27519955E+00 0.14817565E+04</pdfrwt>
<pdfrwt beam="2">  1       -2 0.47208396E-01 0.14817565E+04</pdfrwt>
<totfact> 0.14997322E+01</totfact>
</mgrwt>
</event>
<event>
12    5  0.5029243E-008  0.1331869E+04  0.7818608E-02  0.9004668E-01
         -2   -1    0    0    0  501 -0.00000000000E+00  0.00000000000E+00  0.24709954279E+03  0.24709954279E+03  0.00000000000E+00 0.  1.
          1   -1    0    0  501    0  0.00000000000E+00 -0.00000000000E+00 -0.17946958403E+04  0.17946958403E+04  0.00000000000E+00 0. -1.
        -24    2    1    2    0    0  0.88078320558E+02  0.34359980084E+03 -0.45420469806E+03  0.58151168500E+03  0.77687311447E+02 0.  0.
        254    2    1    2    0    0 -0.88078320558E+02 -0.34359980084E+03 -0.10933915994E+04  0.14602836981E+04  0.90061349948E+03 0.  0.
         23    2    4    4    0    0 -0.37657814710E+03 -0.47475050726E+03 -0.85777994722E+03  0.10541180848E+04  0.90439780147E+02 0.  0.
         23    2    4    4    0    0  0.28849982654E+03  0.13115070642E+03 -0.23561165220E+03  0.40616561326E+03  0.94999984395E+02 0.  0.
          3    1    3    3  502    0 -0.36692541145E+01 -0.24246617959E+01 -0.21948787403E+01  0.49152724508E+01  0.00000000000E+00 0. -1.
         -4    1    3    3    0  502  0.91747574672E+02  0.34602446264E+03 -0.45200981932E+03  0.57659641255E+03  0.00000000000E+00 0.  1.
         13    1    5    5    0    0 -0.30155768570E+03 -0.37719048780E+03 -0.61515344239E+03  0.78206359049E+03  0.00000000000E+00 0.  1.
        -13    1    5    5    0    0 -0.75020461394E+02 -0.97560019453E+02 -0.24262650483E+03  0.27205449430E+03  0.00000000000E+00 0. -1.
          2    1    6    6  503    0  0.12229662207E+01  0.10849258093E+02  0.55642891121E+01  0.12254116079E+02  0.00000000000E+00 0. -1.
         -2    1    6    6    0  503  0.28727686032E+03  0.12030144832E+03 -0.24117594131E+03  0.39391149718E+03  0.00000000000E+00 0.  1.
<mgrwt>
<rscale>  0 0.13318686E+04</rscale>
<asrwt>0</asrwt>
<pdfrwt beam="1">  1        1 0.27610706E+00 0.13318686E+04</pdfrwt>
<pdfrwt beam="2">  1       -2 0.38015313E-01 0.13318686E+04</pdfrwt>
<totfact> 0.23095416E+01</totfact>
</mgrwt>
</event>
<event>
12    5  0.5029243E-008  0.1178051E+04  0.7818608E-02  0.9132289E-01
         -2   -1    0    0    0  501 -0.00000000000E+00  0.00000000000E+00  0.44034632986E+03  0.44034632986E+03  0.00000000000E+00 0.  1.
          1   -1    0    0  501    0  0.00000000000E+00 -0.00000000000E+00 -0.78790429284E+03  0.78790429284E+03  0.00000000000E+00 0. -1.
        -24    2    1    2    0    0  0.13651542101E+03 -0.12689026750E+03  0.59151062413E+02  0.21097822172E+03  0.79217180583E+02 0.  0.
        254    2    1    2    0    0 -0.13651542101E+03  0.12689026750E+03 -0.40670902539E+03  0.10172724010E+04  0.91361551339E+03 0.  0.
         23    2    4    4    0    0 -0.44532085694E+03  0.29113240673E+03 -0.36928791926E+03  0.65359822165E+03  0.88024565694E+02 0.  0.
         23    2    4    4    0    0  0.30880543593E+03 -0.16424213924E+03 -0.37421106137E+02  0.36367417933E+03  0.92316260560E+02 0.  0.
          3    1    3    3  502    0  0.84732913757E+02 -0.49029288170E+02 -0.42748105571E+01  0.97988834964E+02  0.00000000000E+00 0. -1.
         -4    1    3    3    0  502  0.51782507251E+02 -0.77860979325E+02  0.63425872970E+02  0.11298938676E+03  0.00000000000E+00 0.  1.
         13    1    5    5    0    0 -0.17077803686E+02  0.36940352619E+02 -0.36235641074E+02  0.54490941582E+02  0.00000000000E+00 0. -1.
        -13    1    5    5    0    0 -0.42824305325E+03  0.25419205411E+03 -0.33305227818E+03  0.59910728007E+03  0.00000000000E+00 0.  1.
          1    1    6    6  503    0  0.15520165026E+03 -0.39479245153E+02 -0.42615654270E+02  0.16571740111E+03  0.00000000000E+00 0. -1.
         -1    1    6    6    0  503  0.15360378567E+03 -0.12476289408E+03  0.51945481336E+01  0.19795677822E+03  0.00000000000E+00 0.  1.
<mgrwt>
<rscale>  0 0.11780505E+04</rscale>
<asrwt>0</asrwt>
<pdfrwt beam="1">  1        1 0.12121604E+00 0.11780505E+04</pdfrwt>
<pdfrwt beam="2">  1       -2 0.67745590E-01 0.11780505E+04</pdfrwt>
<totfact> 0.39288254E+01</totfact>
</mgrwt>
</event>
<event>
12    5  0.5029243E-008  0.1897272E+04  0.7818608E-02  0.8656215E-01
          1   -1    0    0  501    0  0.00000000000E+00  0.00000000000E+00  0.14990631372E+04  0.14990631372E+04  0.00000000000E+00 0. -1.
         -2   -1    0    0    0  501 -0.00000000000E+00 -0.00000000000E+00 -0.60031523614E+03  0.60031523614E+03  0.00000000000E+00 0.  1.
        -24    2    1    2    0    0  0.50619952775E+03 -0.22770752853E+03 -0.19522379269E+03  0.59383919602E+03  0.80274410997E+02 0.  0.
        254    2    1    2    0    0 -0.50619952775E+03  0.22770752853E+03  0.10939716937E+04  0.15055391773E+04  0.87280322367E+03 0.  0.
         23    2    4    4    0    0 -0.57355587779E+03  0.24424196449E+03  0.11962501005E+04  0.13523313832E+04  0.95736016553E+02 0.  0.
         23    2    4    4    0    0  0.67356350038E+02 -0.16534435962E+02 -0.10227840679E+03  0.15320779408E+03  0.90562079306E+02 0.  0.
          1    1    3    3  502    0  0.29822176973E+02 -0.80800691917E+01 -0.31956226785E+02  0.44450536419E+02  0.00000000000E+00 0. -1.
         -2    1    3    3    0  502  0.47637735078E+03 -0.21962745934E+03 -0.16326756590E+03  0.54938865961E+03  0.00000000000E+00 0.  1.
         13    1    5    5    0    0 -0.47819499731E+03  0.24026821953E+03  0.10066022724E+04  0.11400207926E+04  0.00000000000E+00 0. -1.
        -13    1    5    5    0    0 -0.95360880478E+02  0.39737449648E+01  0.18964782810E+03  0.21231059059E+03  0.00000000000E+00 0.  1.
          1    1    6    6  503    0  0.17546443603E+02 -0.49387496394E+02 -0.33730099377E+02  0.62327538754E+02  0.00000000000E+00 0. -1.
         -1    1    6    6    0  503  0.49809906435E+02  0.32853060432E+02 -0.68548307417E+02  0.90880255328E+02  0.00000000000E+00 0.  1.
<mgrwt>
<rscale>  0 0.18972722E+04</rscale>
<asrwt>0</asrwt>
<pdfrwt beam="1">  1        1 0.23062510E+00 0.18972722E+04</pdfrwt>
<pdfrwt beam="2">  1       -2 0.92356191E-01 0.18972722E+04</pdfrwt>
<totfact> 0.53561569E+00</totfact>
</mgrwt>
</event>
<event>
12    5  0.5029243E-008  0.1865591E+04  0.7818608E-02  0.8672176E-01
         -2   -1    0    0    0  501 -0.00000000000E+00  0.00000000000E+00  0.50208631857E+03  0.50208631857E+03  0.00000000000E+00 0.  1.
          1   -1    0    0  501    0  0.00000000000E+00 -0.00000000000E+00 -0.17329832685E+04  0.17329832685E+04  0.00000000000E+00 0. -1.
        -24    2    1    2    0    0 -0.22536257718E+03  0.17172411504E+03 -0.11935857772E+04  0.12292293273E+04  0.77976076332E+02 0.  0.
        254    2    1    2    0    0  0.22536257718E+03 -0.17172411504E+03 -0.37311172716E+02  0.10058402598E+04  0.96438842892E+03 0.  0.
         23    2    4    4    0    0  0.43565850604E+03  0.25209205738E+03 -0.95068641150E+02  0.51995581279E+03  0.89259517370E+02 0.  0.
         23    2    4    4    0    0 -0.21029592886E+03 -0.42381617242E+03  0.57757468434E+02  0.48588444706E+03  0.94357008359E+02 0.  0.
          1    1    3    3  502    0 -0.19778551354E+03  0.17106992110E+03 -0.99729905379E+03  0.10310137875E+04  0.00000000000E+00 0. -1.
         -4    1    3    3    0  502 -0.27577063639E+02  0.65419393923E+00 -0.19628672345E+03  0.19821553978E+03  0.00000000000E+00 0.  1.
         13    1    5    5    0    0  0.42979604835E+03  0.24662958900E+03 -0.78713941274E+02  0.50174364161E+03  0.00000000000E+00 0.  1.
        -13    1    5    5    0    0  0.58624576963E+01  0.54624683820E+01 -0.16354699876E+02  0.18212171180E+02  0.00000000000E+00 0. -1.
          1    1    6    6  503    0 -0.24205149086E+02 -0.11033865996E+02 -0.92481745195E+01  0.28163170507E+02  0.00000000000E+00 0. -1.
         -1    1    6    6    0  503 -0.18609077978E+03 -0.41278230643E+03  0.67005642954E+02  0.45772127655E+03  0.00000000000E+00 0.  1.
<mgrwt>
<rscale>  0 0.18655907E+04</rscale>
<asrwt>0</asrwt>
<pdfrwt beam="1">  1        1 0.26661282E+00 0.18655907E+04</pdfrwt>
<pdfrwt beam="2">  1       -2 0.77244047E-01 0.18655907E+04</pdfrwt>
<totfact> 0.55742042E+00</totfact>
</mgrwt>
</event>
<event>
12    5  0.5029243E-008  0.2780474E+04  0.7818608E-02  0.8309356E-01
          1   -1    0    0  501    0  0.00000000000E+00  0.00000000000E+00  0.99796241129E+03  0.99796241129E+03  0.00000000000E+00 0. -1.
         -2   -1    0    0    0  501 -0.00000000000E+00 -0.00000000000E+00 -0.19367049342E+04  0.19367049342E+04  0.00000000000E+00 0.  1.
        -24    2    1    2    0    0  0.43691696726E+03 -0.77435555947E+02 -0.16503806241E+04  0.17108556834E+04  0.79864031791E+02 0.  0.
        254    2    1    2    0    0 -0.43691696726E+03  0.77435555947E+02  0.71163810111E+03  0.12238116621E+04  0.89128754944E+03 0.  0.
         23    2    4    4    0    0  0.94306796799E+02  0.36119399545E+03  0.23670315744E+03  0.45121184919E+03  0.90602835676E+02 0.  0.
         23    2    4    4    0    0 -0.53122376406E+03 -0.28375843951E+03  0.47493494366E+03  0.77259981293E+03  0.92896344021E+02 0.  0.
          1    1    3    3  502    0  0.10662835247E+03  0.94068272658E+01 -0.32454144554E+03  0.34173856063E+03  0.00000000000E+00 0. -1.
         -2    1    3    3    0  502  0.33028861480E+03 -0.86842383213E+02 -0.13258391785E+04  0.13691171228E+04  0.00000000000E+00 0.  1.
         13    1    5    5    0    0  0.29463184231E+02  0.21235047259E+03  0.90407653676E+02  0.23266788837E+03  0.00000000000E+00 0. -1.
        -13    1    5    5    0    0  0.64843612568E+02  0.14884352286E+03  0.14629550377E+03  0.21854396082E+03  0.00000000000E+00 0.  1.
          4    1    6    6  503    0 -0.37864140606E+03 -0.18808037510E+03  0.27939930940E+03  0.50676179412E+03  0.00000000000E+00 0.  1.
         -4    1    6    6    0  503 -0.15258235800E+03 -0.95678064402E+02  0.19553563426E+03  0.26583801881E+03  0.00000000000E+00 0. -1.
<mgrwt>
<rscale>  0 0.27804739E+04</rscale>
<asrwt>0</asrwt>
<pdfrwt beam="1">  1        1 0.15353268E+00 0.27804739E+04</pdfrwt>
<pdfrwt beam="2">  1       -2 0.29795460E+00 0.27804739E+04</pdfrwt>
<totfact> 0.37796091E-01</totfact>
</mgrwt>
</event>
<event>
12    5  0.5029243E-008  0.1242745E+04  0.7818608E-02  0.9076244E-01
         -2   -1    0    0    0  501 -0.00000000000E+00  0.00000000000E+00  0.10243770810E+04  0.10243770810E+04  0.00000000000E+00 0.  1.
          1   -1    0    0  501    0  0.00000000000E+00 -0.00000000000E+00 -0.37691544710E+03  0.37691544710E+03  0.00000000000E+00 0. -1.
        -24    2    1    2    0    0 -0.96436512032E+02 -0.69374890965E+02 -0.11774337726E+03  0.19324549815E+03  0.96785553243E+02 0.  0.
        254    2    1    2    0    0  0.96436512032E+02  0.69374890965E+02  0.76520501118E+03  0.12080470300E+04  0.92721412907E+03 0.  0.
         23    2    4    4    0    0  0.14413689887E+01  0.14265497389E+03 -0.18194366383E+03  0.24828925517E+03  0.90507117441E+02 0.  0.
         23    2    4    4    0    0  0.94995143043E+02 -0.73280082925E+02  0.94714867501E+03  0.95975777481E+03  0.98236072685E+02 0.  0.
          3    1    3    3  502    0 -0.30774018145E+02 -0.77669932940E+02 -0.44975734201E+02  0.94881375109E+02  0.00000000000E+00 0. -1.
         -4    1    3    3    0  502 -0.65662493886E+02  0.82950419750E+01 -0.72767643059E+02  0.98364123038E+02  0.00000000000E+00 0.  1.
         13    1    5    5    0    0  0.41868016932E+01  0.15249151521E+03 -0.14687087404E+03  0.21175987619E+03  0.00000000000E+00 0. -1.
        -13    1    5    5    0    0 -0.27454327045E+01 -0.98365413228E+01 -0.35072789783E+02  0.36529378986E+02  0.00000000000E+00 0.  1.
          1    1    6    6  503    0  0.79108955901E+02 -0.83845183540E+02  0.91604095969E+03  0.92326555310E+03  0.00000000000E+00 0. -1.
         -1    1    6    6    0  503  0.15886187142E+02  0.10565100615E+02  0.31107715315E+02  0.36492221706E+02  0.00000000000E+00 0.  1.
<mgrwt>
<rscale>  0 0.12427446E+04</rscale>
<asrwt>0</asrwt>
<pdfrwt beam="1">  1        1 0.57986992E-01 0.12427446E+04</pdfrwt>
<pdfrwt beam="2">  1       -2 0.15759647E+00 0.12427446E+04</pdfrwt>
<totfact> 0.14673339E+01</totfact>
</mgrwt>
</event>
<event>
12    5  0.5029243E-008  0.1936405E+04  0.7818608E-02  0.8636944E-01
          1   -1    0    0  501    0  0.00000000000E+00  0.00000000000E+00  0.13142736411E+04  0.13142736411E+04  0.00000000000E+00 0. -1.
         -2   -1    0    0    0  501 -0.00000000000E+00 -0.00000000000E+00 -0.71325800738E+03  0.71325800738E+03  0.00000000000E+00 0.  1.
        -24    2    1    2    0    0 -0.47082799910E+03  0.58699348092E+03  0.35607197342E+03  0.83624950832E+03  0.79282018985E+02 0.  0.
        254    2    1    2    0    0  0.47082799910E+03 -0.58699348092E+03  0.24494366027E+03  0.11912821401E+04  0.89045796607E+03 0.  0.
         23    2    4    4    0    0 -0.11034463177E+00 -0.25213553963E+03  0.48861920854E+03  0.55723926411E+03  0.90523610151E+02 0.  0.
         23    2    4    4    0    0  0.47093834373E+03 -0.33485794130E+03 -0.24367554827E+03  0.63404287603E+03  0.93380037388E+02 0.  0.
          1    1    3    3  502    0 -0.19330027529E+03  0.23806552152E+03  0.18848370952E+03  0.35995318824E+03  0.00000000000E+00 0. -1.
         -2    1    3    3    0  502 -0.27752772380E+03  0.34892795940E+03  0.16758826390E+03  0.47629632009E+03  0.00000000000E+00 0.  1.
         13    1    5    5    0    0  0.38631322523E+02 -0.16548106712E+03  0.35213543382E+03  0.39099325622E+03  0.00000000000E+00 0.  1.
        -13    1    5    5    0    0 -0.38741667155E+02 -0.86654472504E+02  0.13648377472E+03  0.16624600789E+03  0.00000000000E+00 0. -1.
          4    1    6    6  503    0  0.45038009022E+03 -0.33214276041E+03 -0.21689037489E+03  0.60016870435E+03  0.00000000000E+00 0.  1.
         -4    1    6    6    0  503  0.20558253513E+02 -0.27151808860E+01 -0.26785173376E+02  0.33874171688E+02  0.00000000000E+00 0. -1.
<mgrwt>
<rscale>  0 0.19364051E+04</rscale>
<asrwt>0</asrwt>
<pdfrwt beam="1">  1        1 0.20219594E+00 0.19364051E+04</pdfrwt>
<pdfrwt beam="2">  1       -2 0.10973200E+00 0.19364051E+04</pdfrwt>
<totfact> 0.47790411E+00</totfact>
</mgrwt>
</event>
<event>
12    5  0.5029243E-008  0.1325322E+04  0.7818608E-02  0.9009722E-01
         -2   -1    0    0    0  501 -0.00000000000E+00  0.00000000000E+00  0.67606731693E+03  0.67606731693E+03  0.00000000000E+00 0.  1.
          1   -1    0    0  501    0  0.00000000000E+00 -0.00000000000E+00 -0.64952064344E+03  0.64952064344E+03  0.00000000000E+00 0. -1.
        -24    2    1    2    0    0  0.25280426205E+03  0.15603613321E+03  0.19076102024E+03  0.36254040048E+03  0.82392386503E+02 0.  0.
        254    2    1    2    0    0 -0.25280426205E+03 -0.15603613321E+03 -0.16421434676E+03  0.96304755990E+03  0.90124191046E+03 0.  0.
         23    2    4    4    0    0  0.10398825875E+03  0.30174577100E+03 -0.17614091035E+03  0.37533711309E+03  0.89377065774E+02 0.  0.
         23    2    4    4    0    0 -0.35679252080E+03 -0.45778190421E+03  0.11926563594E+02  0.58771044681E+03  0.91630517022E+02 0.  0.
          3    1    3    3  502    0  0.56923317587E+02  0.79389581324E+02  0.53573744579E+02  0.11141416345E+03  0.00000000000E+00 0. -1.
         -4    1    3    3    0  502  0.19588094447E+03  0.76646551883E+02  0.13718727567E+03  0.25112623703E+03  0.00000000000E+00 0.  1.
         13    1    5    5    0    0 -0.11451398594E+02  0.58632261649E+02 -0.50945938604E+02  0.78513472067E+02  0.00000000000E+00 0. -1.
        -13    1    5    5    0    0  0.11543965735E+03  0.24311350935E+03 -0.12519497175E+03  0.29682364102E+03  0.00000000000E+00 0.  1.
          1    1    6    6  503    0 -0.49202653416E+01 -0.37353540365E+02 -0.10150994534E+02  0.39019721666E+02  0.00000000000E+00 0. -1.
         -1    1    6    6    0  503 -0.35187225546E+03 -0.42042836385E+03  0.22077558128E+02  0.54869072515E+03  0.00000000000E+00 0.  1.
<mgrwt>
<rscale>  0 0.13253221E+04</rscale>
<asrwt>0</asrwt>
<pdfrwt beam="1">  1        1 0.99926253E-01 0.13253221E+04</pdfrwt>
<pdfrwt beam="2">  1       -2 0.10401036E+00 0.13253221E+04</pdfrwt>
<totfact> 0.19683273E+01</totfact>
</mgrwt>
</event>
<event>
12    5  0.5029243E-008  0.2098843E+04  0.7818608E-02  0.8561753E-01
         -2   -1    0    0    0  501 -0.00000000000E+00  0.00000000000E+00  0.11445723066E+04  0.11445723066E+04  0.00000000000E+00 0.  1.
          1   -1    0    0  501    0  0.00000000000E+00 -0.00000000000E+00 -0.96218097722E+03  0.96218097722E+03  0.00000000000E+00 0. -1.
        -24    2    1    2    0    0  0.25196138400E+03  0.64780196275E+02 -0.74304910852E+03  0.79139442049E+03  0.80635837246E+02 0.  0.
        254    2    1    2    0    0 -0.25196138400E+03 -0.64780196275E+02  0.92544043793E+03  0.13153588634E+04  0.89780171664E+03 0.  0.
         23    2    4    4    0    0 -0.62839171415E+02 -0.38160723881E+03  0.10491282854E+03  0.41099938256E+03  0.91328772535E+02 0.  0.
         23    2    4    4    0    0 -0.18912221259E+03  0.31682704254E+03  0.82052760938E+03  0.90435948080E+03  0.91945236778E+02 0.  0.
          1    1    3    3  502    0  0.14415979321E+03  0.28554648479E+02 -0.52869266494E+03  0.54873795922E+03  0.00000000000E+00 0. -1.
         -2    1    3    3    0  502  0.10780159079E+03  0.36225547796E+02 -0.21435644358E+03  0.24265646127E+03  0.00000000000E+00 0.  1.
         13    1    5    5    0    0 -0.28696151324E+02 -0.24230224526E+03  0.10963126463E+03  0.26749366598E+03  0.00000000000E+00 0. -1.
        -13    1    5    5    0    0 -0.34143020090E+02 -0.13930499356E+03 -0.47184360883E+01  0.14350571657E+03  0.00000000000E+00 0.  1.
          3    1    6    6  503    0 -0.16639744348E+03  0.30702241165E+03  0.79727074873E+03  0.87039733296E+03  0.00000000000E+00 0.  1.
         -3    1    6    6    0  503 -0.22724769109E+02  0.98046308912E+01  0.23256860659E+02  0.33962147837E+02  0.00000000000E+00 0. -1.
<mgrwt>
<rscale>  0 0.20988432E+04</rscale>
<asrwt>0</asrwt>
<pdfrwt beam="1">  1        1 0.14802784E+00 0.20988432E+04</pdfrwt>
<pdfrwt beam="2">  1       -2 0.17608805E+00 0.20988432E+04</pdfrwt>
<totfact> 0.25224041E+00</totfact>
</mgrwt>
</event>
<event>
12    5  0.5029243E-008  0.1075919E+04  0.7818608E-02  0.9228986E-01
         -2   -1    0    0    0  501 -0.00000000000E+00  0.00000000000E+00  0.22235006922E+03  0.22235006922E+03  0.00000000000E+00 0.  1.
          1   -1    0    0  501    0  0.00000000000E+00 -0.00000000000E+00 -0.13015522236E+04  0.13015522236E+04  0.00000000000E+00 0. -1.
        -24    2    1    2    0    0  0.55066391202E+02 -0.41670235275E+02 -0.34380408232E+03  0.35969150574E+03  0.80050086406E+02 0.  0.
        254    2    1    2    0    0 -0.55066391202E+02  0.41670235275E+02 -0.73539807210E+03  0.11642107871E+04  0.89989316948E+03 0.  0.
         23    2    4    4    0    0  0.33334918708E+02 -0.64925731632E+02 -0.91405320061E+03  0.92142075041E+03  0.90533851674E+02 0.  0.
         23    2    4    4    0    0 -0.88401309911E+02  0.10659596691E+03  0.17865512851E+03  0.24279003672E+03  0.88610694813E+02 0.  0.
          3    1    3    3  502    0  0.42102003832E+02 -0.52512315327E+02 -0.33276875946E+03  0.33950724478E+03  0.00000000000E+00 0. -1.
         -4    1    3    3    0  502  0.12964387370E+02  0.10842080052E+02 -0.11035322860E+02  0.20184260957E+02  0.00000000000E+00 0.  1.
         13    1    5    5    0    0  0.29236467302E+02  0.67427802937E+01 -0.52118965397E+03  0.52205257543E+03  0.00000000000E+00 0. -1.
        -13    1    5    5    0    0  0.40984514065E+01 -0.71668511926E+02 -0.39286354664E+03  0.39936817498E+03  0.00000000000E+00 0.  1.
          1    1    6    6  503    0 -0.22513851542E+02  0.14057263215E+02  0.10285441947E+03  0.10622387568E+03  0.00000000000E+00 0. -1.
         -1    1    6    6    0  503 -0.65887458369E+02  0.92538703693E+02  0.75800709042E+02  0.13656616105E+03  0.00000000000E+00 0.  1.
<mgrwt>
<rscale>  0 0.10759186E+04</rscale>
<asrwt>0</asrwt>
<pdfrwt beam="1">  1        1 0.20023880E+00 0.10759186E+04</pdfrwt>
<pdfrwt beam="2">  1       -2 0.34207703E-01 0.10759186E+04</pdfrwt>
<totfact> 0.63191406E+01</totfact>
</mgrwt>
</event>
<event>
12    5  0.5029243E-008  0.1516844E+04  0.7818608E-02  0.8873329E-01
         -4   -1    0    0    0  501 -0.00000000000E+00  0.00000000000E+00  0.12414123572E+04  0.12414123572E+04  0.00000000000E+00 0.  1.
          3   -1    0    0  501    0  0.00000000000E+00 -0.00000000000E+00 -0.46334622581E+03  0.46334622581E+03  0.00000000000E+00 0. -1.
        -24    2    1    2    0    0  0.33640753171E+03  0.22404008370E+03  0.56207270395E+03  0.69687573438E+03  0.79662275588E+02 0.  0.
        254    2    1    2    0    0 -0.33640753171E+03 -0.22404008370E+03  0.21599342743E+03  0.10078828486E+04  0.89766958806E+03 0.  0.
         23    2    4    4    0    0  0.74705730232E+02 -0.41834814547E+03  0.30965709246E+03  0.53356123899E+03  0.90575735650E+02 0.  0.
         23    2    4    4    0    0 -0.41111326194E+03  0.19430806177E+03 -0.93663665036E+02  0.47432160962E+03  0.97151274783E+02 0.  0.
          3    1    3    3  502    0 -0.70866059432E+00 -0.31718107310E+01  0.73672511376E-01  0.32508477033E+01  0.00000000000E+00 0. -1.
         -4    1    3    3    0  502  0.33711619230E+03  0.22721189443E+03  0.56199903143E+03  0.69362488668E+03  0.00000000000E+00 0.  1.
         13    1    5    5    0    0  0.91352795517E+02 -0.39734296285E+03  0.29042271276E+03  0.50057178852E+03  0.00000000000E+00 0. -1.
        -13    1    5    5    0    0 -0.16647065285E+02 -0.21005182617E+02  0.19234379699E+02  0.32989450462E+02  0.00000000000E+00 0.  1.
          3    1    6    6  503    0 -0.27261195561E+03  0.88382272590E+02 -0.27775872701E+02  0.28792395447E+03  0.00000000000E+00 0. -1.
         -3    1    6    6    0  503 -0.13850130633E+03  0.10592578918E+03 -0.65887792335E+02  0.18639765515E+03  0.00000000000E+00 0.  1.
<mgrwt>
<rscale>  0 0.15168437E+04</rscale>
<asrwt>0</asrwt>
<pdfrwt beam="1">  1        3 0.71284035E-01 0.15168437E+04</pdfrwt>
<pdfrwt beam="2">  1       -4 0.19098652E+00 0.15168437E+04</pdfrwt>
<totfact> 0.62606342E-01</totfact>
</mgrwt>
</event>
<event>
12    5  0.5029243E-008  0.1448751E+04  0.7818608E-02  0.8919267E-01
         -2   -1    0    0    0  501 -0.00000000000E+00  0.00000000000E+00  0.68873377126E+03  0.68873377126E+03  0.00000000000E+00 0.  1.
          1   -1    0    0  501    0  0.00000000000E+00 -0.00000000000E+00 -0.76186119417E+03  0.76186119417E+03  0.00000000000E+00 0. -1.
        -24    2    1    2    0    0 -0.21233862722E+03  0.34886173631E+01  0.33414465125E+03  0.40456200922E+03  0.83173963979E+02 0.  0.
        254    2    1    2    0    0  0.21233862722E+03 -0.34886173631E+01 -0.40727207416E+03  0.10460329562E+04  0.93979494575E+03 0.  0.
         23    2    4    4    0    0  0.34839772194E+03  0.37068928104E+03 -0.79680906170E+02  0.52272658386E+03  0.90013993000E+02 0.  0.
         23    2    4    4    0    0 -0.13605909472E+03 -0.37417789840E+03 -0.32759116799E+03  0.52330637236E+03  0.89512061206E+02 0.  0.
          3    1    3    3  502    0 -0.35195141368E+02 -0.31051332186E+02  0.81992626167E+02  0.94475785005E+02  0.00000000000E+00 0. -1.
         -4    1    3    3    0  502 -0.17714348585E+03  0.34539949549E+02  0.25215202508E+03  0.31008622421E+03  0.00000000000E+00 0.  1.
         13    1    5    5    0    0  0.18354424672E+03  0.25765436467E+03 -0.58692701561E+02  0.32174383499E+03  0.00000000000E+00 0. -1.
        -13    1    5    5    0    0  0.16485347522E+03  0.11303491637E+03 -0.20988204609E+02  0.20098274887E+03  0.00000000000E+00 0.  1.
          4    1    6    6  503    0  0.41443900455E+01 -0.44622264775E+02 -0.13114444782E+02  0.46693801992E+02  0.00000000000E+00 0. -1.
         -4    1    6    6    0  503 -0.14020348477E+03 -0.32955563363E+03 -0.31447672321E+03  0.47661257037E+03  0.00000000000E+00 0.  1.
<mgrwt>
<rscale>  0 0.14487505E+04</rscale>
<asrwt>0</asrwt>
<pdfrwt beam="1">  1        1 0.11720941E+00 0.14487505E+04</pdfrwt>
<pdfrwt beam="2">  1       -2 0.10595904E+00 0.14487505E+04</pdfrwt>
<totfact> 0.14621387E+01</totfact>
</mgrwt>
</event>
<event>
12    5  0.5029243E-008  0.2952397E+04  0.7818608E-02  0.8257456E-01
         -2   -1    0    0    0  501 -0.00000000000E+00  0.00000000000E+00  0.78070002428E+03  0.78070002428E+03  0.00000000000E+00 0.  1.
          1   -1    0    0  501    0  0.00000000000E+00 -0.00000000000E+00 -0.27912919439E+04  0.27912919439E+04  0.00000000000E+00 0. -1.
        -24    2    1    2    0    0  0.21150751974E+03  0.76738312343E+03  0.38542418076E+03  0.88783558365E+03  0.78025223158E+02 0.  0.
        254    2    1    2    0    0 -0.21150751974E+03 -0.76738312343E+03 -0.23960161004E+04  0.26841563846E+04  0.91114765779E+03 0.  0.
         23    2    4    4    0    0 -0.21243307533E+03 -0.59665308180E+03 -0.59802254751E+03  0.87576525724E+03  0.90615158513E+02 0.  0.
         23    2    4    4    0    0  0.92555558059E+00 -0.17073004163E+03 -0.17979935529E+04  0.18083911273E+04  0.91367660033E+02 0.  0.
          1    1    3    3  502    0  0.65095598618E+02  0.30945051237E+03  0.11675318685E+03  0.33708806447E+03  0.00000000000E+00 0. -1.
         -2    1    3    3    0  502  0.14641192113E+03  0.45793261106E+03  0.26867099391E+03  0.55074751918E+03  0.00000000000E+00 0.  1.
         13    1    5    5    0    0 -0.15032870769E+03 -0.44382009959E+03 -0.49320337468E+03  0.68031211216E+03  0.00000000000E+00 0.  1.
        -13    1    5    5    0    0 -0.62104367638E+02 -0.15283298221E+03 -0.10481917283E+03  0.19545314508E+03  0.00000000000E+00 0. -1.
          1    1    6    6  503    0 -0.31869340818E+01 -0.14714399830E+03 -0.10781249873E+04  0.10881245338E+04  0.00000000000E+00 0. -1.
         -1    1    6    6    0  503  0.41124896624E+01 -0.23586043335E+02 -0.71986856561E+03  0.72026659353E+03  0.00000000000E+00 0.  1.
<mgrwt>
<rscale>  0 0.29523968E+04</rscale>
<asrwt>0</asrwt>
<pdfrwt beam="1">  1        1 0.42942952E+00 0.29523968E+04</pdfrwt>
<pdfrwt beam="2">  1       -2 0.12010770E+00 0.29523968E+04</pdfrwt>
<totfact> 0.33660635E-01</totfact>
</mgrwt>
</event>
<event>
12    5  0.5029243E-008  0.1198628E+04  0.7818608E-02  0.9114058E-01
          1   -1    0    0  501    0  0.00000000000E+00  0.00000000000E+00  0.21671017681E+03  0.21671017681E+03  0.00000000000E+00 0. -1.
         -2   -1    0    0    0  501 -0.00000000000E+00 -0.00000000000E+00 -0.16574092923E+04  0.16574092923E+04  0.00000000000E+00 0.  1.
        -24    2    1    2    0    0 -0.19906730068E+03  0.10642967105E+03 -0.11418529246E+03  0.26605079128E+03  0.82399499092E+02 0.  0.
        254    2    1    2    0    0  0.19906730068E+03 -0.10642967105E+03 -0.13265138230E+04  0.16080686778E+04  0.88050603907E+03 0.  0.
         23    2    4    4    0    0  0.23845790789E+03 -0.44060122299E+03 -0.10385329842E+04  0.11566741132E+04  0.91392742365E+02 0.  0.
         23    2    4    4    0    0 -0.39390607217E+02  0.33417155195E+03 -0.28798083878E+03  0.45139456458E+03  0.87188550610E+02 0.  0.
          1    1    3    3  502    0 -0.11015184886E+03  0.85164781780E+02 -0.31436303378E+02  0.14274001203E+03  0.00000000000E+00 0. -1.
         -2    1    3    3    0  502 -0.88915451812E+02  0.21264889267E+02 -0.82748989080E+02  0.12331077925E+03  0.00000000000E+00 0.  1.
         13    1    5    5    0    0  0.20779512383E+03 -0.29749045320E+03 -0.74502394532E+03  0.82869781123E+03  0.00000000000E+00 0. -1.
        -13    1    5    5    0    0  0.30662784058E+02 -0.14311076979E+03 -0.29350903892E+03  0.32797630201E+03  0.00000000000E+00 0.  1.
          4    1    6    6  503    0 -0.58325346758E+02  0.20950172271E+03 -0.14834209817E+03  0.26324550516E+03  0.00000000000E+00 0. -1.
         -4    1    6    6    0  503  0.18934739540E+02  0.12466982923E+03 -0.13963874061E+03  0.18814905942E+03  0.00000000000E+00 0.  1.
<mgrwt>
<rscale>  0 0.11986283E+04</rscale>
<asrwt>0</asrwt>
<pdfrwt beam="1">  1        1 0.33340028E-01 0.11986283E+04</pdfrwt>
<pdfrwt beam="2">  1       -2 0.25498604E+00 0.11986283E+04</pdfrwt>
<totfact> 0.69463668E+00</totfact>
</mgrwt>
</event>
<event>
12    5  0.5029243E-008  0.2502586E+04  0.7818608E-02  0.8402065E-01
         -2   -1    0    0    0  501 -0.00000000000E+00  0.00000000000E+00  0.89746477883E+03  0.89746477883E+03  0.00000000000E+00 0.  1.
          1   -1    0    0  501    0  0.00000000000E+00 -0.00000000000E+00 -0.17446183876E+04  0.17446183876E+04  0.00000000000E+00 0. -1.
        -24    2    1    2    0    0 -0.49605183584E+03 -0.59657284277E+03  0.43789129547E+03  0.89447484300E+03  0.79811512549E+02 0.  0.
        254    2    1    2    0    0  0.49605183584E+03  0.59657284277E+03 -0.12850449043E+04  0.17476083235E+04  0.89488986230E+03 0.  0.
         23    2    4    4    0    0  0.94979653852E+02  0.59458976188E+03 -0.11730616216E+04  0.13216527030E+04  0.90189687309E+02 0.  0.
         23    2    4    4    0    0  0.40107218198E+03  0.19830808901E+01 -0.11198328271E+03  0.42595562049E+03  0.89638759750E+02 0.  0.
          3    1    3    3  502    0 -0.84961345561E+02 -0.60013005798E+02  0.57657981659E+02  0.11893037439E+03  0.00000000000E+00 0. -1.
         -4    1    3    3    0  502 -0.41109049028E+03 -0.53655983698E+03  0.38023331382E+03  0.77554446861E+03  0.00000000000E+00 0.  1.
         13    1    5    5    0    0  0.52403501320E+02  0.12283435035E+03 -0.21970517941E+03  0.25710847990E+03  0.00000000000E+00 0. -1.
        -13    1    5    5    0    0  0.42576152532E+02  0.47175541153E+03 -0.95335644215E+03  0.10645442231E+04  0.00000000000E+00 0.  1.
          4    1    6    6  503    0  0.24074450445E+03 -0.29490558167E+02 -0.34013500333E+02  0.24491738943E+03  0.00000000000E+00 0. -1.
         -4    1    6    6    0  503  0.16032767754E+03  0.31473639057E+02 -0.77969782379E+02  0.18103823106E+03  0.00000000000E+00 0.  1.
<mgrwt>
<rscale>  0 0.25025855E+04</rscale>
<asrwt>0</asrwt>
<pdfrwt beam="1">  1        1 0.26840283E+00 0.25025855E+04</pdfrwt>
<pdfrwt beam="2">  1       -2 0.13807150E+00 0.25025855E+04</pdfrwt>
<totfact> 0.12909149E+00</totfact>
</mgrwt>
</event>
<event>
12    5  0.5029243E-008  0.2034420E+04  0.7818608E-02  0.8590695E-01
          1   -1    0    0  501    0  0.00000000000E+00  0.00000000000E+00  0.18211139779E+04  0.18211139779E+04  0.00000000000E+00 0. -1.
         -2   -1    0    0    0  501 -0.00000000000E+00 -0.00000000000E+00 -0.56817774900E+03  0.56817774900E+03  0.00000000000E+00 0.  1.
        -24    2    1    2    0    0 -0.63388116958E+03 -0.91346221705E+02  0.10898584580E+04  0.12669499406E+04  0.84977786751E+02 0.  0.
        254    2    1    2    0    0  0.63388116958E+03  0.91346221705E+02  0.16307777085E+03  0.11223417862E+04  0.90714235728E+03 0.  0.
         23    2    4    4    0    0  0.39273096634E+03 -0.37210259304E+03 -0.49450057647E+02  0.55108475514E+03  0.92472414631E+02 0.  0.
         23    2    4    4    0    0  0.24115020324E+03  0.46344881475E+03  0.21252782849E+03  0.57125703108E+03  0.90709940227E+02 0.  0.
          3    1    3    3  502    0 -0.50692702244E+03 -0.48967933706E+02  0.90910352426E+03  0.10420374669E+04  0.00000000000E+00 0. -1.
         -4    1    3    3    0  502 -0.12695414714E+03 -0.42378287998E+02  0.18075493375E+03  0.22491247374E+03  0.00000000000E+00 0.  1.
         13    1    5    5    0    0  0.18793774511E+03 -0.22992438423E+03 -0.21642195762E+00  0.29696105021E+03  0.00000000000E+00 0. -1.
        -13    1    5    5    0    0  0.20479322123E+03 -0.14217820881E+03 -0.49233635690E+02  0.25412370493E+03  0.00000000000E+00 0.  1.
          1    1    6    6  503    0  0.23560454581E+03  0.38399961110E+03  0.18438315413E+03  0.48678778832E+03  0.00000000000E+00 0. -1.
         -1    1    6    6    0  503  0.55456574310E+01  0.79449203653E+02  0.28144674364E+02  0.84469242760E+02  0.00000000000E+00 0.  1.
<mgrwt>
<rscale>  0 0.20344203E+04</rscale>
<asrwt>0</asrwt>
<pdfrwt beam="1">  1        1 0.28017138E+00 0.20344203E+04</pdfrwt>
<pdfrwt beam="2">  1       -2 0.87411962E-01 0.20344203E+04</pdfrwt>
<totfact> 0.36179576E+00</totfact>
</mgrwt>
</event>
<event>
12    5  0.5029243E-008  0.2539903E+04  0.7818608E-02  0.8388906E-01
          3   -1    0    0  501    0  0.00000000000E+00  0.00000000000E+00  0.28487682428E+04  0.28487682428E+04  0.00000000000E+00 0. -1.
         -4   -1    0    0    0  501 -0.00000000000E+00 -0.00000000000E+00 -0.56613136560E+03  0.56613136560E+03  0.00000000000E+00 0.  1.
        -24    2    1    2    0    0  0.29574886146E+03  0.44661465035E+03 -0.30590015062E+03  0.62211462498E+03  0.80744470460E+02 0.  0.
        254    2    1    2    0    0 -0.29574886146E+03 -0.44661465035E+03  0.25885370278E+04  0.27927849834E+04  0.90121694623E+03 0.  0.
         23    2    4    4    0    0 -0.56348826329E+03 -0.98894380980E+02  0.11764087187E+04  0.13112339899E+04  0.89988784057E+02 0.  0.
         23    2    4    4    0    0  0.26773940183E+03 -0.34772026937E+03  0.14121283091E+04  0.14815509935E+04  0.91067074488E+02 0.  0.
          1    1    3    3  502    0  0.13603392289E+03  0.14017009849E+03 -0.94193348672E+02  0.21685311070E+03  0.00000000000E+00 0. -1.
         -2    1    3    3    0  502  0.15971493856E+03  0.30644455186E+03 -0.21170680195E+03  0.40526151428E+03  0.00000000000E+00 0.  1.
         13    1    5    5    0    0 -0.25715709556E+03 -0.89198483327E+02  0.57954930050E+03  0.64028394711E+03  0.00000000000E+00 0. -1.
        -13    1    5    5    0    0 -0.30633116773E+03 -0.96958976529E+01  0.59685941822E+03  0.67095004276E+03  0.00000000000E+00 0.  1.
          3    1    6    6  503    0  0.16676374058E+03 -0.15422312320E+03  0.80262349079E+03  0.83414590143E+03  0.00000000000E+00 0. -1.
         -3    1    6    6    0  503  0.10097566125E+03 -0.19349714617E+03  0.60950481829E+03  0.64740509209E+03  0.00000000000E+00 0.  1.
<mgrwt>
<rscale>  0 0.25399032E+04</rscale>
<asrwt>0</asrwt>
<pdfrwt beam="1">  1        3 0.43827203E+00 0.25399032E+04</pdfrwt>
<pdfrwt beam="2">  1       -4 0.87097135E-01 0.25399032E+04</pdfrwt>
<totfact> 0.16300724E-02</totfact>
</mgrwt>
</event>
<event>
12    5  0.5029243E-008  0.2123277E+04  0.7818608E-02  0.8551058E-01
         -2   -1    0    0    0  501 -0.00000000000E+00  0.00000000000E+00  0.15346730117E+04  0.15346730117E+04  0.00000000000E+00 0.  1.
          1   -1    0    0  501    0  0.00000000000E+00 -0.00000000000E+00 -0.73440806189E+03  0.73440806189E+03  0.00000000000E+00 0. -1.
        -24    2    1    2    0    0  0.71465391337E+03  0.49151839763E+03  0.23056772060E+03  0.90106289496E+03  0.80201719329E+02 0.  0.
        254    2    1    2    0    0 -0.71465391337E+03 -0.49151839763E+03  0.56969722926E+03  0.13680181787E+04  0.89140240804E+03 0.  0.
         23    2    4    4    0    0 -0.13813603744E+03 -0.57124440670E+03  0.74426741851E+02  0.59830581661E+03  0.83837779479E+02 0.  0.
         23    2    4    4    0    0 -0.57651787594E+03  0.79726009065E+02  0.49527048741E+03  0.76971236206E+03  0.91843164263E+02 0.  0.
          3    1    3    3  502    0  0.56754749917E+03  0.41478076596E+03  0.21129267061E+03  0.73402850100E+03  0.00000000000E+00 0. -1.
         -4    1    3    3    0  502  0.14710641420E+03  0.76737631672E+02  0.19275049986E+02  0.16703439396E+03  0.00000000000E+00 0.  1.
         13    1    5    5    0    0 -0.44819209993E+01 -0.17930619045E+03  0.29566911982E+02  0.18178283702E+03  0.00000000000E+00 0. -1.
        -13    1    5    5    0    0 -0.13365411644E+03 -0.39193821624E+03  0.44859829869E+02  0.41652297959E+03  0.00000000000E+00 0.  1.
          3    1    6    6  503    0 -0.40534018800E+02 -0.61038829842E+01  0.65910488530E+02  0.77617372835E+02  0.00000000000E+00 0. -1.
         -3    1    6    6    0  503 -0.53598385714E+03  0.85829892049E+02  0.42935999888E+03  0.69209498923E+03  0.00000000000E+00 0.  1.
<mgrwt>
<rscale>  0 0.21232769E+04</rscale>
<asrwt>0</asrwt>
<pdfrwt beam="1">  1        1 0.11298586E+00 0.21232769E+04</pdfrwt>
<pdfrwt beam="2">  1       -2 0.23610354E+00 0.21232769E+04</pdfrwt>
<totfact> 0.15933904E+00</totfact>
</mgrwt>
</event>
<event>
12    5  0.5029243E-008  0.1077071E+04  0.7818608E-02  0.9227833E-01
         -2   -1    0    0    0  501 -0.00000000000E+00  0.00000000000E+00  0.53309256141E+03  0.53309256141E+03  0.00000000000E+00 0.  1.
          1   -1    0    0  501    0  0.00000000000E+00 -0.00000000000E+00 -0.54403352620E+03  0.54403352620E+03  0.00000000000E+00 0. -1.
        -24    2    1    2    0    0 -0.11685104405E+03  0.96541615500E+02 -0.25241170608E+01  0.16492626896E+03  0.64960395700E+02 0.  0.
        254    2    1    2    0    0  0.11685104405E+03 -0.96541615500E+02 -0.84168477309E+01  0.91219981864E+03  0.89947941376E+03 0.  0.
         23    2    4    4    0    0 -0.32228692530E+02  0.11306303364E+03 -0.40448832507E+03  0.43171098811E+03  0.94560213297E+02 0.  0.
         23    2    4    4    0    0  0.14907973658E+03 -0.20960464914E+03  0.39607147734E+03  0.48048883053E+03  0.88532617181E+02 0.  0.
          3    1    3    3  502    0 -0.22359391422E+02 -0.81897674816E+01 -0.15927809519E+01  0.23865280793E+02  0.00000000000E+00 0. -1.
         -4    1    3    3    0  502 -0.94491652624E+02  0.10473138298E+03 -0.93133610891E+00  0.14106098817E+03  0.00000000000E+00 0.  1.
         13    1    5    5    0    0 -0.18472850496E+02  0.12245517216E+03 -0.28066614287E+03  0.30677353072E+03  0.00000000000E+00 0. -1.
        -13    1    5    5    0    0 -0.13755842034E+02 -0.93921385142E+01 -0.12382218220E+03  0.12493745739E+03  0.00000000000E+00 0.  1.
          2    1    6    6  503    0  0.82039052280E+02 -0.11773617852E+03  0.29621196546E+03  0.32914091559E+03  0.00000000000E+00 0. -1.
         -2    1    6    6    0  503  0.67040684296E+02 -0.91868470625E+02  0.99859511877E+02  0.15134791494E+03  0.00000000000E+00 0.  1.
<mgrwt>
<rscale>  0 0.10770705E+04</rscale>
<asrwt>0</asrwt>
<pdfrwt beam="1">  1        1 0.83697466E-01 0.10770705E+04</pdfrwt>
<pdfrwt beam="2">  1       -2 0.82014240E-01 0.10770705E+04</pdfrwt>
<totfact> 0.44967766E+01</totfact>
</mgrwt>
</event>
<event>
12    5  0.5029243E-008  0.2410747E+04  0.7818608E-02  0.8435491E-01
          1   -1    0    0  501    0  0.00000000000E+00  0.00000000000E+00  0.94908146182E+03  0.94908146182E+03  0.00000000000E+00 0. -1.
         -2   -1    0    0    0  501 -0.00000000000E+00 -0.00000000000E+00 -0.15308757830E+04  0.15308757830E+04  0.00000000000E+00 0.  1.
        -24    2    1    2    0    0 -0.39588686650E+03 -0.12682867467E+03  0.72427668000E+03  0.83883858955E+03  0.79129933268E+02 0.  0.
        254    2    1    2    0    0  0.39588686650E+03  0.12682867467E+03 -0.13060710012E+04  0.16411186552E+04  0.90257246621E+03 0.  0.
         23    2    4    4    0    0 -0.23964899249E+03 -0.13955476259E+03 -0.47903205945E+03  0.56090270230E+03  0.90735638544E+02 0.  0.
         23    2    4    4    0    0  0.63553585899E+03  0.26638343726E+03 -0.82703894171E+03  0.10802159530E+04  0.89482569226E+02 0.  0.
          1    1    3    3  502    0 -0.39971945682E+03 -0.12673737974E+03  0.71814896996E+03  0.83161045607E+03  0.00000000000E+00 0. -1.
         -2    1    3    3    0  502  0.38325903184E+01 -0.91294925307E-01  0.61277100359E+01  0.72281334794E+01  0.00000000000E+00 0.  1.
         13    1    5    5    0    0 -0.36342991995E+01 -0.22318206318E+02 -0.76562987518E+02  0.79832333811E+02  0.00000000000E+00 0.  1.
        -13    1    5    5    0    0 -0.23601469329E+03 -0.11723655627E+03 -0.40246907193E+03  0.48107036849E+03  0.00000000000E+00 0. -1.
          3    1    6    6  503    0  0.44440769288E+03  0.16345549734E+03 -0.50944775988E+03  0.69552348425E+03  0.00000000000E+00 0. -1.
         -3    1    6    6    0  503  0.19112816612E+03  0.10292793992E+03 -0.31759118183E+03  0.38469246870E+03  0.00000000000E+00 0.  1.
<mgrwt>
<rscale>  0 0.24107475E+04</rscale>
<asrwt>0</asrwt>
<pdfrwt beam="1">  1        1 0.14601253E+00 0.24107475E+04</pdfrwt>
<pdfrwt beam="2">  1       -2 0.23551935E+00 0.24107475E+04</pdfrwt>
<totfact> 0.10292763E+00</totfact>
</mgrwt>
</event>
<event>
12    5  0.5029243E-008  0.2305305E+04  0.7818608E-02  0.8475833E-01
          1   -1    0    0  501    0  0.00000000000E+00  0.00000000000E+00  0.15799293124E+04  0.15799293124E+04  0.00000000000E+00 0. -1.
         -2   -1    0    0    0  501 -0.00000000000E+00 -0.00000000000E+00 -0.84092836416E+03  0.84092836416E+03  0.00000000000E+00 0.  1.
        -24    2    1    2    0    0 -0.13048995964E+03 -0.37364605497E+03  0.12183334344E+04  0.12837088242E+04  0.83264541129E+02 0.  0.
        254    2    1    2    0    0  0.13048995964E+03  0.37364605497E+03 -0.47933248624E+03  0.11371488524E+04  0.95221262126E+03 0.  0.
         23    2    4    4    0    0 -0.10279770125E+02 -0.31126529675E+03 -0.15163562020E+03  0.35945874629E+03  0.96049311984E+02 0.  0.
         23    2    4    4    0    0  0.14076972977E+03  0.68491135172E+03 -0.32769686603E+03  0.77769010606E+03  0.92179111090E+02 0.  0.
          1    1    3    3  502    0 -0.11125021765E+03 -0.19296489401E+03  0.67066503483E+03  0.70668497239E+03  0.00000000000E+00 0. -1.
         -2    1    3    3    0  502 -0.19239741990E+02 -0.18068116096E+03  0.54766839959E+03  0.57702385177E+03  0.00000000000E+00 0.  1.
         13    1    5    5    0    0 -0.25114349264E+02 -0.25779142922E+03 -0.15831704614E+03  0.30356455428E+03  0.00000000000E+00 0. -1.
        -13    1    5    5    0    0  0.14834579139E+02 -0.53473867537E+02  0.66814259408E+01  0.55894192008E+02  0.00000000000E+00 0.  1.
          3    1    6    6  503    0  0.27421685087E+02  0.59194210959E+02 -0.73308062479E+01  0.65647879968E+02  0.00000000000E+00 0. -1.
         -3    1    6    6    0  503  0.11334804468E+03  0.62571714077E+03 -0.32036605978E+03  0.71204222609E+03  0.00000000000E+00 0.  1.
<mgrwt>
<rscale>  0 0.23053046E+04</rscale>
<asrwt>0</asrwt>
<pdfrwt beam="1">  1        1 0.24306605E+00 0.23053046E+04</pdfrwt>
<pdfrwt beam="2">  1       -2 0.12937359E+00 0.23053046E+04</pdfrwt>
<totfact> 0.20091895E+00</totfact>
</mgrwt>
</event>
<event>
12    5  0.5029243E-008  0.3676350E+04  0.7818608E-02  0.8073223E-01
         -2   -1    0    0    0  501 -0.00000000000E+00  0.00000000000E+00  0.15199668131E+04  0.15199668131E+04  0.00000000000E+00 0.  1.
          1   -1    0    0  501    0  0.00000000000E+00 -0.00000000000E+00 -0.22230003832E+04  0.22230003832E+04  0.00000000000E+00 0. -1.
        -24    2    1    2    0    0  0.18164506346E+03  0.23110938005E+02  0.14183970747E+04  0.14324309781E+04  0.80493484247E+02 0.  0.
        254    2    1    2    0    0 -0.18164506346E+03 -0.23110938005E+02 -0.21214306448E+04  0.23105362181E+04  0.89698416383E+03 0.  0.
         23    2    4    4    0    0  0.20258158846E+03 -0.31959531890E+03 -0.12454938628E+04  0.13049011712E+04  0.91277798624E+02 0.  0.
         23    2    4    4    0    0 -0.38422665193E+03  0.29648438090E+03 -0.87593678197E+03  0.10056350469E+04  0.92214388215E+02 0.  0.
          1    1    3    3  502    0  0.60169000730E+02  0.44675248974E+02  0.62944872555E+03  0.63389422194E+03  0.00000000000E+00 0. -1.
         -2    1    3    3    0  502  0.12147606273E+03 -0.21564310969E+02  0.78894834916E+03  0.79853675618E+03  0.00000000000E+00 0.  1.
         13    1    5    5    0    0  0.16169032845E+03 -0.29485750166E+03 -0.11493349817E+04  0.11975206089E+04  0.00000000000E+00 0. -1.
        -13    1    5    5    0    0  0.40891260016E+02 -0.24737817244E+02 -0.96158881110E+02  0.10738056232E+03  0.00000000000E+00 0.  1.
          2    1    6    6  503    0 -0.27006011533E+03  0.24056805525E+03 -0.70779451261E+03  0.79484497053E+03  0.00000000000E+00 0. -1.
         -2    1    6    6    0  503 -0.11416653660E+03  0.55916325648E+02 -0.16814226935E+03  0.21079007637E+03  0.00000000000E+00 0.  1.
<mgrwt>
<rscale>  0 0.36763497E+04</rscale>
<asrwt>0</asrwt>
<pdfrwt beam="1">  1        1 0.34200006E+00 0.36763497E+04</pdfrwt>
<pdfrwt beam="2">  1       -2 0.23384105E+00 0.36763497E+04</pdfrwt>
<totfact> 0.12019714E-01</totfact>
</mgrwt>
</event>
<event>
12    5  0.5029243E-008  0.1374679E+04  0.7818608E-02  0.8972354E-01
          1   -1    0    0  501    0  0.00000000000E+00  0.00000000000E+00  0.67358379578E+03  0.67358379578E+03  0.00000000000E+00 0. -1.
         -2   -1    0    0    0  501 -0.00000000000E+00 -0.00000000000E+00 -0.70137585128E+03  0.70137585128E+03  0.00000000000E+00 0.  1.
        -24    2    1    2    0    0 -0.26060833943E+02 -0.58394751188E+02  0.37635048466E+03  0.38998578500E+03  0.79750305118E+02 0.  0.
        254    2    1    2    0    0  0.26060833943E+02  0.58394751188E+02 -0.40414254015E+03  0.98497386206E+03  0.89596495587E+03 0.  0.
         23    2    4    4    0    0 -0.35295433661E+03  0.18568176974E+03 -0.40359691490E+03  0.57445733608E+03  0.89756770794E+02 0.  0.
         23    2    4    4    0    0  0.37901517056E+03 -0.12728701855E+03 -0.54562525125E+00  0.41051652598E+03  0.93107657006E+02 0.  0.
          1    1    3    3  502    0 -0.11250977850E+02 -0.28722006439E+02  0.33749598858E+03  0.33890275960E+03  0.00000000000E+00 0. -1.
         -2    1    3    3    0  502 -0.14809856093E+02 -0.29672744749E+02  0.38854496078E+02  0.51083025399E+02  0.00000000000E+00 0.  1.
         13    1    5    5    0    0 -0.77296007927E+02  0.21598718557E+02 -0.40331912335E+02  0.89821159185E+02  0.00000000000E+00 0.  1.
        -13    1    5    5    0    0 -0.27565832869E+03  0.16408305118E+03 -0.36326500257E+03  0.48463617689E+03  0.00000000000E+00 0. -1.
          2    1    6    6  503    0  0.27235966670E+03 -0.98555234909E+02 -0.41724510853E+02  0.29263263177E+03  0.00000000000E+00 0. -1.
         -2    1    6    6    0  503  0.10665550386E+03 -0.28731783644E+02  0.41178885602E+02  0.11788389421E+03  0.00000000000E+00 0.  1.
<mgrwt>
<rscale>  0 0.13746787E+04</rscale>
<asrwt>0</asrwt>
<pdfrwt beam="1">  1        1 0.10362828E+00 0.13746787E+04</pdfrwt>
<pdfrwt beam="2">  1       -2 0.10790398E+00 0.13746787E+04</pdfrwt>
<totfact> 0.17000795E+01</totfact>
</mgrwt>
</event>
<event>
12    5  0.5029243E-008  0.1532535E+04  0.7818608E-02  0.8863101E-01
         -2   -1    0    0    0  501 -0.00000000000E+00  0.00000000000E+00  0.63238914341E+03  0.63238914341E+03  0.00000000000E+00 0.  1.
          1   -1    0    0  501    0  0.00000000000E+00 -0.00000000000E+00 -0.92848832392E+03  0.92848832392E+03  0.00000000000E+00 0. -1.
        -24    2    1    2    0    0  0.83904772157E+02 -0.28759891688E+03 -0.49897108006E+03  0.58830937626E+03  0.85922265306E+02 0.  0.
        254    2    1    2    0    0 -0.83904772157E+02  0.28759891688E+03  0.20287189955E+03  0.97256809106E+03  0.90276161657E+03 0.  0.
         23    2    4    4    0    0 -0.47650120876E+03  0.18133985987E+03  0.20184452034E+02  0.51769857247E+03  0.87560568167E+02 0.  0.
         23    2    4    4    0    0  0.39259643661E+03  0.10625905701E+03  0.18268744752E+03  0.45486951860E+03  0.90047910768E+02 0.  0.
          1    1    3    3  502    0  0.31136011291E+02 -0.18314596028E+03 -0.37090213096E+03  0.41482560759E+03  0.00000000000E+00 0. -1.
         -2    1    3    3    0  502  0.52768760865E+02 -0.10445295661E+03 -0.12806894911E+03  0.17348376867E+03  0.00000000000E+00 0.  1.
         13    1    5    5    0    0 -0.27776958448E+03  0.63363736545E+02  0.29295888100E+02  0.28640732223E+03  0.00000000000E+00 0. -1.
        -13    1    5    5    0    0 -0.19873162429E+03  0.11797612333E+03 -0.91114360659E+01  0.23129125023E+03  0.00000000000E+00 0.  1.
          3    1    6    6  503    0  0.30263073363E+02  0.36181969015E+02  0.14876056104E+02  0.49459938701E+02  0.00000000000E+00 0. -1.
         -3    1    6    6    0  503  0.36233336325E+03  0.70077087997E+02  0.16781139141E+03  0.40540957989E+03  0.00000000000E+00 0.  1.
<mgrwt>
<rscale>  0 0.15325351E+04</rscale>
<asrwt>0</asrwt>
<pdfrwt beam="1">  1        1 0.14284436E+00 0.15325351E+04</pdfrwt>
<pdfrwt beam="2">  1       -2 0.97290638E-01 0.15325351E+04</pdfrwt>
<totfact> 0.12855690E+01</totfact>
</mgrwt>
</event>
<event>
12    5  0.5029243E-008  0.3634725E+04  0.7818608E-02  0.8082584E-01
         -2   -1    0    0    0  501 -0.00000000000E+00  0.00000000000E+00  0.10976421821E+04  0.10976421821E+04  0.00000000000E+00 0.  1.
          1   -1    0    0  501    0  0.00000000000E+00 -0.00000000000E+00 -0.30090008711E+04  0.30090008711E+04  0.00000000000E+00 0. -1.
        -24    2    1    2    0    0  0.11348568244E+03  0.58237340712E+03  0.90850099333E+03  0.10879835898E+04  0.79350181203E+02 0.  0.
        254    2    1    2    0    0 -0.11348568244E+03 -0.58237340712E+03 -0.28198596823E+04  0.30186594634E+04  0.89925443699E+03 0.  0.
         23    2    4    4    0    0  0.51639854071E+02 -0.34478691667E+03 -0.27054699020E+03  0.45133507409E+03  0.94673030817E+02 0.  0.
         23    2    4    4    0    0 -0.16512553651E+03 -0.23758649044E+03 -0.25493126921E+04  0.25673243893E+04  0.91899588448E+02 0.  0.
          1    1    3    3  502    0  0.33452809619E+02  0.23380601830E+03  0.43004828736E+03  0.49063823142E+03  0.00000000000E+00 0. -1.
         -2    1    3    3    0  502  0.80032872821E+02  0.34856738882E+03  0.47845270597E+03  0.59734535834E+03  0.00000000000E+00 0.  1.
         13    1    5    5    0    0  0.76049659623E+02 -0.19177406876E+03 -0.15599202680E+03  0.25863943358E+03  0.00000000000E+00 0. -1.
        -13    1    5    5    0    0 -0.24409805552E+02 -0.15301284791E+03 -0.11455496340E+03  0.19269564051E+03  0.00000000000E+00 0.  1.
          2    1    6    6  503    0 -0.11134125147E+03 -0.11360012750E+03 -0.16873338368E+04  0.16948148394E+04  0.00000000000E+00 0. -1.
         -2    1    6    6    0  503 -0.53784285038E+02 -0.12398636295E+03 -0.86197885539E+03  0.87250954989E+03  0.00000000000E+00 0.  1.
<mgrwt>
<rscale>  0 0.36347249E+04</rscale>
<asrwt>0</asrwt>
<pdfrwt beam="1">  1        1 0.46292321E+00 0.36347249E+04</pdfrwt>
<pdfrwt beam="2">  1       -2 0.16886803E+00 0.36347249E+04</pdfrwt>
<totfact> 0.90752079E-02</totfact>
</mgrwt>
</event>
<event>
12    5  0.5029243E-008  0.1687817E+04  0.7818608E-02  0.8768343E-01
          1   -1    0    0  501    0  0.00000000000E+00  0.00000000000E+00  0.28827177602E+04  0.28827177602E+04  0.00000000000E+00 0. -1.
         -2   -1    0    0    0  501 -0.00000000000E+00 -0.00000000000E+00 -0.24705224531E+03  0.24705224531E+03  0.00000000000E+00 0.  1.
        -24    2    1    2    0    0  0.47993424524E+03 -0.12302372845E+02  0.16215953130E+04  0.16930728681E+04  0.80225616548E+02 0.  0.
        254    2    1    2    0    0 -0.47993424524E+03  0.12302372845E+02  0.10140702019E+04  0.14366971374E+04  0.89736952371E+03 0.  0.
         23    2    4    4    0    0 -0.59262418157E+03  0.64563832595E+02  0.11045228670E+04  0.12584006483E+04  0.90716695448E+02 0.  0.
         23    2    4    4    0    0  0.11268993633E+03 -0.52261459750E+02 -0.90452665058E+02  0.17829648913E+03  0.90430478795E+02 0.  0.
          1    1    3    3  502    0  0.44432883350E+03  0.99737829106E+01  0.14637889893E+04  0.15297731184E+04  0.00000000000E+00 0. -1.
         -2    1    3    3    0  502  0.35605411735E+02 -0.22276155756E+02  0.15780632365E+03  0.16329974968E+03  0.00000000000E+00 0.  1.
         13    1    5    5    0    0 -0.47503061562E+03  0.25116146640E+02  0.92571507926E+03  0.10407849512E+04  0.00000000000E+00 0.  1.
        -13    1    5    5    0    0 -0.11759356595E+03  0.39447685956E+02  0.17880778774E+03  0.21761569713E+03  0.00000000000E+00 0. -1.
          1    1    6    6  503    0 -0.62499434984E+01 -0.73592358276E+00  0.11683879573E+02  0.13270886147E+02  0.00000000000E+00 0. -1.
         -1    1    6    6    0  503  0.11893987983E+03 -0.51525536167E+02 -0.10213654463E+03  0.16502560298E+03  0.00000000000E+00 0.  1.
<mgrwt>
<rscale>  0 0.16878174E+04</rscale>
<asrwt>0</asrwt>
<pdfrwt beam="1">  1        1 0.44349502E+00 0.16878174E+04</pdfrwt>
<pdfrwt beam="2">  1       -2 0.38008040E-01 0.16878174E+04</pdfrwt>
<totfact> 0.39880053E+00</totfact>
</mgrwt>
</event>
<event>
12    5  0.5029243E-008  0.1749940E+04  0.7818608E-02  0.8733383E-01
         -2   -1    0    0    0  501 -0.00000000000E+00  0.00000000000E+00  0.61284428161E+03  0.61284428161E+03  0.00000000000E+00 0.  1.
          1   -1    0    0  501    0  0.00000000000E+00 -0.00000000000E+00 -0.12492126293E+04  0.12492126293E+04  0.00000000000E+00 0. -1.
        -24    2    1    2    0    0  0.10815207596E+03  0.56349426356E+03  0.72058938991E+02  0.58376395002E+03  0.79782216428E+02 0.  0.
        254    2    1    2    0    0 -0.10815207596E+03 -0.56349426356E+03 -0.70842728665E+03  0.12782929609E+04  0.89606976109E+03 0.  0.
         23    2    4    4    0    0 -0.19771767453E+03  0.16290192402E+03 -0.38826552435E+03  0.47413568622E+03  0.91788974709E+02 0.  0.
         23    2    4    4    0    0  0.89565598566E+02 -0.72639618758E+03 -0.32016176229E+03  0.80415727464E+03  0.92151779948E+02 0.  0.
          1    1    3    3  502    0  0.85870529083E+00  0.14651586711E+03  0.40680516063E+02  0.15206097815E+03  0.00000000000E+00 0. -1.
         -2    1    3    3    0  502  0.10729337067E+03  0.41697839645E+03  0.31378422928E+02  0.43170297187E+03  0.00000000000E+00 0.  1.
         13    1    5    5    0    0 -0.16075672645E+03  0.14607471760E+03 -0.37120676936E+03  0.43008721655E+03  0.00000000000E+00 0. -1.
        -13    1    5    5    0    0 -0.36960948076E+02  0.16827206425E+02 -0.17058754995E+02  0.44048469675E+02  0.00000000000E+00 0.  1.
          4    1    6    6  503    0  0.81816402206E+02 -0.70524460514E+03 -0.29097292358E+03  0.76728685575E+03  0.00000000000E+00 0. -1.
         -4    1    6    6    0  503  0.77491963598E+01 -0.21151582437E+02 -0.29188838709E+02  0.36870418888E+02  0.00000000000E+00 0.  1.
<mgrwt>
<rscale>  0 0.17499404E+04</rscale>
<asrwt>0</asrwt>
<pdfrwt beam="1">  1        1 0.19218656E+00 0.17499404E+04</pdfrwt>
<pdfrwt beam="2">  1       -2 0.94283735E-01 0.17499404E+04</pdfrwt>
<totfact> 0.77593914E+00</totfact>
</mgrwt>
</event>
<event>
12    5  0.5029243E-008  0.1734644E+04  0.7818608E-02  0.8741849E-01
          1   -1    0    0  501    0  0.00000000000E+00  0.00000000000E+00  0.35150686472E+03  0.35150686472E+03  0.00000000000E+00 0. -1.
         -2   -1    0    0    0  501 -0.00000000000E+00 -0.00000000000E+00 -0.21400646265E+04  0.21400646265E+04  0.00000000000E+00 0.  1.
        -24    2    1    2    0    0  0.18111714239E+03  0.59637056675E+03 -0.82086660109E+03  0.10338400835E+04  0.80883059589E+02 0.  0.
        254    2    1    2    0    0 -0.18111714239E+03 -0.59637056675E+03 -0.96769116065E+03  0.14577314077E+04  0.89447940299E+03 0.  0.
         23    2    4    4    0    0 -0.10141552622E+03 -0.53774007572E+03 -0.80602198263E+02  0.56049452401E+03  0.90597456304E+02 0.  0.
         23    2    4    4    0    0 -0.79701616170E+02 -0.58630491032E+02 -0.88708896238E+03  0.89723688366E+03  0.91199320834E+02 0.  0.
          1    1    3    3  502    0  0.85253917992E+02  0.36843176215E+03 -0.44575371916E+03  0.58455673124E+03  0.00000000000E+00 0. -1.
         -2    1    3    3    0  502  0.95863224395E+02  0.22793880460E+03 -0.37511288193E+03  0.44928335227E+03  0.00000000000E+00 0.  1.
         13    1    5    5    0    0 -0.71857425394E+02 -0.15603345578E+03 -0.27871043242E+02  0.17403081324E+03  0.00000000000E+00 0. -1.
        -13    1    5    5    0    0 -0.29558100823E+02 -0.38170661994E+03 -0.52731155020E+02  0.38646371077E+03  0.00000000000E+00 0.  1.
          1    1    6    6  503    0  0.19475064485E+02 -0.20558375533E+02 -0.19152126472E+03  0.19360351180E+03  0.00000000000E+00 0. -1.
         -1    1    6    6    0  503 -0.99176680654E+02 -0.38072115499E+02 -0.69556769766E+03  0.70363337186E+03  0.00000000000E+00 0.  1.
<mgrwt>
<rscale>  0 0.17346439E+04</rscale>
<asrwt>0</asrwt>
<pdfrwt beam="1">  1        1 0.54077979E-01 0.17346439E+04</pdfrwt>
<pdfrwt beam="2">  1       -2 0.32924071E+00 0.17346439E+04</pdfrwt>
<totfact> 0.12438583E+00</totfact>
</mgrwt>
</event>
<event>
12    5  0.5029243E-008  0.1849783E+04  0.7818608E-02  0.8680264E-01
          1   -1    0    0  501    0  0.00000000000E+00  0.00000000000E+00  0.12266874468E+04  0.12266874468E+04  0.00000000000E+00 0. -1.
         -2   -1    0    0    0  501 -0.00000000000E+00 -0.00000000000E+00 -0.69734491531E+03  0.69734491531E+03  0.00000000000E+00 0.  1.
        -24    2    1    2    0    0 -0.27527143678E+03 -0.37465604006E+03 -0.34754830181E+03  0.58590178846E+03  0.79684197741E+02 0.  0.
        254    2    1    2    0    0  0.27527143678E+03  0.37465604006E+03  0.87689083327E+03  0.13381305736E+04  0.89750453275E+03 0.  0.
         23    2    4    4    0    0 -0.10458614579E+02  0.51673439607E+03  0.86041525197E+03  0.10077760653E+04  0.90412240862E+02 0.  0.
         23    2    4    4    0    0  0.28573005136E+03 -0.14207835602E+03  0.16475581300E+02  0.33035450830E+03  0.83873326357E+02 0.  0.
          1    1    3    3  502    0 -0.18133625656E+02 -0.13620851522E+01 -0.16999522168E+02  0.24893119719E+02  0.00000000000E+00 0. -1.
         -2    1    3    3    0  502 -0.25713781113E+03 -0.37329395491E+03 -0.33054877964E+03  0.56100866874E+03  0.00000000000E+00 0.  1.
         13    1    5    5    0    0 -0.16697799273E+02  0.51750816880E+03  0.85457125832E+03  0.99919245235E+03  0.00000000000E+00 0.  1.
        -13    1    5    5    0    0  0.62391846944E+01 -0.77377272360E+00  0.58439936429E+01  0.85836129676E+01  0.00000000000E+00 0. -1.
          4    1    6    6  503    0  0.73941027282E+02  0.17004156097E+01  0.34392664283E+01  0.74040498934E+02  0.00000000000E+00 0. -1.
         -4    1    6    6    0  503  0.21178902408E+03 -0.14377877163E+03  0.13036314872E+02  0.25631400936E+03  0.00000000000E+00 0.  1.
<mgrwt>
<rscale>  0 0.18497830E+04</rscale>
<asrwt>0</asrwt>
<pdfrwt beam="1">  1        1 0.18872114E+00 0.18497830E+04</pdfrwt>
<pdfrwt beam="2">  1       -2 0.10728383E+00 0.18497830E+04</pdfrwt>
<totfact> 0.58778630E+00</totfact>
</mgrwt>
</event>
<event>
12    5  0.5029243E-008  0.1329792E+04  0.7818608E-02  0.9006268E-01
          1   -1    0    0  501    0  0.00000000000E+00  0.00000000000E+00  0.77472030405E+03  0.77472030405E+03  0.00000000000E+00 0. -1.
         -2   -1    0    0    0  501 -0.00000000000E+00 -0.00000000000E+00 -0.57064010415E+03  0.57064010415E+03  0.00000000000E+00 0.  1.
        -24    2    1    2    0    0 -0.58864595278E+02 -0.25287169631E+03  0.29994503577E+03  0.40436338446E+03  0.78317219268E+02 0.  0.
        254    2    1    2    0    0  0.58864595278E+02  0.25287169631E+03 -0.95864835874E+02  0.94099702373E+03  0.89937544804E+03 0.  0.
         23    2    4    4    0    0 -0.25039137227E+03 -0.10739386878E+03 -0.30086352832E+03  0.41597370978E+03  0.91027370578E+02 0.  0.
         23    2    4    4    0    0  0.30925596755E+03  0.36026556509E+03  0.20499869245E+03  0.52502331395E+03  0.90523397144E+02 0.  0.
          3    1    3    3  502    0 -0.44212117339E+02 -0.83859628300E+02  0.15266932374E+03  0.17970829416E+03  0.00000000000E+00 0. -1.
         -4    1    3    3    0  502 -0.14652477938E+02 -0.16901206801E+03  0.14727571204E+03  0.22465509030E+03  0.00000000000E+00 0.  1.
         13    1    5    5    0    0 -0.10464540476E+03 -0.64892235623E+02 -0.19597605100E+03  0.23144821354E+03  0.00000000000E+00 0. -1.
        -13    1    5    5    0    0 -0.14574596751E+03 -0.42501633159E+02 -0.10488747732E+03  0.18452549625E+03  0.00000000000E+00 0.  1.
          4    1    6    6  503    0  0.67790989386E+02  0.11946129877E+03  0.93827584297E+02  0.16634372763E+03  0.00000000000E+00 0. -1.
         -4    1    6    6    0  503  0.24146497816E+03  0.24080426632E+03  0.11117110815E+03  0.35867958632E+03  0.00000000000E+00 0.  1.
<mgrwt>
<rscale>  0 0.13297917E+04</rscale>
<asrwt>0</asrwt>
<pdfrwt beam="1">  1        1 0.11918774E+00 0.13297917E+04</pdfrwt>
<pdfrwt beam="2">  1       -2 0.87790785E-01 0.13297917E+04</pdfrwt>
<totfact> 0.22368924E+01</totfact>
</mgrwt>
</event>
<event>
12    5  0.5029243E-008  0.1293105E+04  0.7818608E-02  0.9035051E-01
         -2   -1    0    0    0  501 -0.00000000000E+00  0.00000000000E+00  0.22522199010E+03  0.22522199010E+03  0.00000000000E+00 0.  1.
          1   -1    0    0  501    0  0.00000000000E+00 -0.00000000000E+00 -0.18560818546E+04  0.18560818546E+04  0.00000000000E+00 0. -1.
        -24    2    1    2    0    0 -0.18743336158E+03  0.14117836420E+03 -0.58111800149E+02  0.25529278303E+03  0.82065999031E+02 0.  0.
        254    2    1    2    0    0  0.18743336158E+03 -0.14117836420E+03 -0.15727480644E+04  0.18260110617E+04  0.89761758443E+03 0.  0.
         23    2    4    4    0    0 -0.12642376275E+03 -0.23321419838E+03 -0.74506944371E+02  0.29012128597E+03  0.90814347420E+02 0.  0.
         23    2    4    4    0    0  0.31385712434E+03  0.92035834182E+02 -0.14982411200E+04  0.15358897757E+04  0.85170771015E+02 0.  0.
          3    1    3    3  502    0 -0.90014942336E+02  0.38669304645E+02  0.97195255957E+01  0.98450363856E+02  0.00000000000E+00 0. -1.
         -4    1    3    3    0  502 -0.97418419246E+02  0.10250905955E+03 -0.67831325745E+02  0.15684241917E+03  0.00000000000E+00 0.  1.
         13    1    5    5    0    0 -0.12469709207E+03 -0.21395149823E+03 -0.40398896412E+02  0.25091169602E+03  0.00000000000E+00 0.  1.
        -13    1    5    5    0    0 -0.17266706853E+01 -0.19262700147E+02 -0.34108047959E+02  0.39209589952E+02  0.00000000000E+00 0. -1.
          2    1    6    6  503    0  0.10205505777E+03 -0.78711627272E+01 -0.39297913723E+03  0.40609086707E+03  0.00000000000E+00 0. -1.
         -2    1    6    6    0  503  0.21180206656E+03  0.99906996909E+02 -0.11052619828E+04  0.11297989087E+04  0.00000000000E+00 0.  1.
<mgrwt>
<rscale>  0 0.12931055E+04</rscale>
<asrwt>0</asrwt>
<pdfrwt beam="1">  1        1 0.28555104E+00 0.12931055E+04</pdfrwt>
<pdfrwt beam="2">  1       -2 0.34649539E-01 0.12931055E+04</pdfrwt>
<totfact> 0.25165912E+01</totfact>
</mgrwt>
</event>
<event>
12    5  0.5029243E-008  0.1929128E+04  0.7818608E-02  0.8640492E-01
          1   -1    0    0  501    0  0.00000000000E+00  0.00000000000E+00  0.65110083086E+03  0.65110083086E+03  0.00000000000E+00 0. -1.
         -2   -1    0    0    0  501 -0.00000000000E+00 -0.00000000000E+00 -0.14289392661E+04  0.14289392661E+04  0.00000000000E+00 0.  1.
        -24    2    1    2    0    0 -0.44521019233E+03 -0.53876271500E+03 -0.57338278155E+03  0.90749036216E+03  0.79331991129E+02 0.  0.
        254    2    1    2    0    0  0.44521019233E+03  0.53876271500E+03 -0.20445565369E+03  0.11725497348E+04  0.91901762106E+03 0.  0.
         23    2    4    4    0    0 -0.14972146962E+03  0.89078831551E+02  0.23059409604E+03  0.30404817786E+03  0.94446284395E+02 0.  0.
         23    2    4    4    0    0  0.59493166195E+03  0.44968388345E+03 -0.43504974974E+03  0.86850155693E+03  0.94166831840E+02 0.  0.
          3    1    3    3  502    0 -0.20017376804E+03 -0.30433092052E+03 -0.29357491916E+03  0.46783873264E+03  0.00000000000E+00 0. -1.
         -4    1    3    3    0  502 -0.24503642428E+03 -0.23443179448E+03 -0.27980786239E+03  0.43965162952E+03  0.00000000000E+00 0.  1.
         13    1    5    5    0    0 -0.31637377003E+02  0.14402297899E+02  0.39029331632E+00  0.34763517331E+02  0.00000000000E+00 0. -1.
        -13    1    5    5    0    0 -0.11808409262E+03  0.74676533652E+02  0.23020380273E+03  0.26928466053E+03  0.00000000000E+00 0.  1.
          3    1    6    6  503    0  0.12920660622E+03  0.53282262135E+02 -0.70918746973E+02  0.15672528584E+03  0.00000000000E+00 0. -1.
         -3    1    6    6    0  503  0.46572505573E+03  0.39640162131E+03 -0.36413100276E+03  0.71177627109E+03  0.00000000000E+00 0.  1.
<mgrwt>
<rscale>  0 0.19291278E+04</rscale>
<asrwt>0</asrwt>
<pdfrwt beam="1">  1        1 0.10016936E+00 0.19291278E+04</pdfrwt>
<pdfrwt beam="2">  1       -2 0.21983681E+00 0.19291278E+04</pdfrwt>
<totfact> 0.24585587E+00</totfact>
</mgrwt>
</event>
<event>
12    5  0.5029243E-008  0.1186465E+04  0.7818608E-02  0.9124787E-01
          1   -1    0    0  501    0  0.00000000000E+00  0.00000000000E+00  0.40642552375E+03  0.40642552375E+03  0.00000000000E+00 0. -1.
         -2   -1    0    0    0  501 -0.00000000000E+00 -0.00000000000E+00 -0.86590161812E+03  0.86590161812E+03  0.00000000000E+00 0.  1.
        -24    2    1    2    0    0  0.85811186941E+01 -0.22527561360E+03 -0.20429484971E+03  0.31436528051E+03  0.79160636015E+02 0.  0.
        254    2    1    2    0    0 -0.85811186941E+01  0.22527561360E+03 -0.25518124466E+03  0.95796186136E+03  0.89540533978E+03 0.  0.
         23    2    4    4    0    0 -0.34759645346E+03 -0.38041107627E+02  0.12197935718E+03  0.37955663085E+03  0.83149576783E+02 0.  0.
         23    2    4    4    0    0  0.33901533476E+03  0.26331672123E+03 -0.37716060184E+03  0.57840523051E+03  0.89640382716E+02 0.  0.
          3    1    3    3  502    0 -0.12986621113E+02 -0.13040605737E+01 -0.18064154806E+02  0.22286017831E+02  0.00000000000E+00 0. -1.
         -4    1    3    3    0  502  0.21567739807E+02 -0.22397155303E+03 -0.18623069490E+03  0.29207926268E+03  0.00000000000E+00 0.  1.
         13    1    5    5    0    0 -0.29650187347E+03 -0.61553819067E+02  0.96669108477E+02  0.31787914393E+03  0.00000000000E+00 0.  1.
        -13    1    5    5    0    0 -0.51094579992E+02  0.23512711440E+02  0.25310248702E+02  0.61677486924E+02  0.00000000000E+00 0. -1.
          1    1    6    6  503    0 -0.27488346399E+01  0.28607085740E+00  0.25815928934E+01  0.37818712670E+01  0.00000000000E+00 0. -1.
         -1    1    6    6    0  503  0.34176416940E+03  0.26303065037E+03 -0.37974219473E+03  0.57462335924E+03  0.00000000000E+00 0.  1.
<mgrwt>
<rscale>  0 0.11864645E+04</rscale>
<asrwt>0</asrwt>
<pdfrwt beam="1">  1        1 0.62527004E-01 0.11864645E+04</pdfrwt>
<pdfrwt beam="2">  1       -2 0.13321563E+00 0.11864645E+04</pdfrwt>
<totfact> 0.20734405E+01</totfact>
</mgrwt>
</event>
<event>
12    5  0.5029243E-008  0.2069879E+04  0.7818608E-02  0.8574629E-01
          1   -1    0    0  501    0  0.00000000000E+00  0.00000000000E+00  0.18095344359E+04  0.18095344359E+04  0.00000000000E+00 0. -1.
         -2   -1    0    0    0  501 -0.00000000000E+00 -0.00000000000E+00 -0.59191980922E+03  0.59191980922E+03  0.00000000000E+00 0.  1.
        -24    2    1    2    0    0 -0.14617585635E+03  0.68015864882E+03  0.10442622087E+04  0.12571070296E+04  0.76494148428E+02 0.  0.
        254    2    1    2    0    0  0.14617585635E+03 -0.68015864882E+03  0.17335241792E+03  0.11443472155E+04  0.89190600416E+03 0.  0.
         23    2    4    4    0    0 -0.17058403288E+03 -0.55942795090E+03  0.41106155188E+03  0.72071570333E+03  0.91656865915E+02 0.  0.
         23    2    4    4    0    0  0.31675988923E+03 -0.12073069792E+03 -0.23770913396E+03  0.42363151216E+03  0.89695578935E+02 0.  0.
          1    1    3    3  502    0 -0.14898925595E+03  0.61810335872E+03  0.97582354486E+03  0.11646807078E+04  0.00000000000E+00 0. -1.
         -2    1    3    3    0  502  0.28133995941E+01  0.62055290099E+02  0.68438663860E+02  0.92426321778E+02  0.00000000000E+00 0.  1.
         13    1    5    5    0    0 -0.11956839395E+02 -0.36817019424E+02  0.27559549628E+01  0.38807914339E+02  0.00000000000E+00 0. -1.
        -13    1    5    5    0    0 -0.15862719348E+03 -0.52261093147E+03  0.40830559692E+03  0.68190778899E+03  0.00000000000E+00 0.  1.
          4    1    6    6  503    0  0.63873334864E+02  0.56295076343E+01 -0.70003675152E+02  0.94931600627E+02  0.00000000000E+00 0. -1.
         -4    1    6    6    0  503  0.25288655437E+03 -0.12636020555E+03 -0.16770545881E+03  0.32869991153E+03  0.00000000000E+00 0.  1.
<mgrwt>
<rscale>  0 0.20698785E+04</rscale>
<asrwt>0</asrwt>
<pdfrwt beam="1">  1        1 0.27838991E+00 0.20698785E+04</pdfrwt>
<pdfrwt beam="2">  1       -2 0.91064587E-01 0.20698785E+04</pdfrwt>
<totfact> 0.33422516E+00</totfact>
</mgrwt>
</event>
<event>
12    5  0.5029243E-008  0.1637867E+04  0.7818608E-02  0.8797617E-01
         -2   -1    0    0    0  501 -0.00000000000E+00  0.00000000000E+00  0.12075577418E+04  0.12075577418E+04  0.00000000000E+00 0.  1.
          1   -1    0    0  501    0  0.00000000000E+00 -0.00000000000E+00 -0.55537872707E+03  0.55537872707E+03  0.00000000000E+00 0. -1.
        -24    2    1    2    0    0 -0.13115771231E+03 -0.25156554587E+03 -0.28696151001E+03  0.41164753288E+03  0.81358550437E+02 0.  0.
        254    2    1    2    0    0  0.13115771231E+03  0.25156554587E+03  0.93914052471E+03  0.13512889360E+04  0.92925200775E+03 0.  0.
         23    2    4    4    0    0  0.26415930660E+03  0.42148833872E+03  0.98869149533E+03  0.11107949450E+04  0.94456222188E+02 0.  0.
         23    2    4    4    0    0 -0.13300159429E+03 -0.16992279285E+03 -0.49550970615E+02  0.24049399098E+03  0.93908899426E+02 0.  0.
          3    1    3    3  502    0 -0.12246822081E+03 -0.20269173765E+03 -0.27011235787E+03  0.35922568323E+03  0.00000000000E+00 0. -1.
         -4    1    3    3    0  502 -0.86894914994E+01 -0.48873808221E+02 -0.16849152145E+02  0.52421849648E+02  0.00000000000E+00 0.  1.
         13    1    5    5    0    0  0.13208200459E+03  0.17648222434E+03  0.53352509518E+03  0.57727000496E+03  0.00000000000E+00 0. -1.
        -13    1    5    5    0    0  0.13207730201E+03  0.24500611439E+03  0.45516640015E+03  0.53352494002E+03  0.00000000000E+00 0.  1.
          2    1    6    6  503    0 -0.73782403399E+02 -0.14923463403E+03 -0.10944900432E+02  0.16683707589E+03  0.00000000000E+00 0. -1.
         -2    1    6    6    0  503 -0.59219190891E+02 -0.20688158825E+02 -0.38606070183E+02  0.73656915089E+02  0.00000000000E+00 0.  1.
<mgrwt>
<rscale>  0 0.16378668E+04</rscale>
<asrwt>0</asrwt>
<pdfrwt beam="1">  1        1 0.85442881E-01 0.16378668E+04</pdfrwt>
<pdfrwt beam="2">  1       -2 0.18577811E+00 0.16378668E+04</pdfrwt>
<totfact> 0.52956918E+00</totfact>
</mgrwt>
</event>
<event>
12    5  0.5029243E-008  0.1273959E+04  0.7818608E-02  0.9050474E-01
          1   -1    0    0  501    0  0.00000000000E+00  0.00000000000E+00  0.92641396057E+03  0.92641396057E+03  0.00000000000E+00 0. -1.
         -2   -1    0    0    0  501 -0.00000000000E+00 -0.00000000000E+00 -0.43797168473E+03  0.43797168473E+03  0.00000000000E+00 0.  1.
        -24    2    1    2    0    0  0.74567262157E+01  0.25447270358E+03  0.31228409666E+03  0.40986447442E+03  0.75203528686E+02 0.  0.
        254    2    1    2    0    0 -0.74567262157E+01 -0.25447270358E+03  0.17615817918E+03  0.95452117088E+03  0.90292137085E+03 0.  0.
         23    2    4    4    0    0  0.38265455564E+03 -0.28071902363E+03  0.25436831094E+03  0.54639294701E+03  0.92813445968E+02 0.  0.
         23    2    4    4    0    0 -0.39011128185E+03  0.26246320054E+02 -0.78210131764E+02  0.40812822387E+03  0.87041029770E+02 0.  0.
          1    1    3    3  502    0  0.16270155590E+02  0.10038073468E+03  0.73230002302E+02  0.12531417755E+03  0.00000000000E+00 0. -1.
         -2    1    3    3    0  502 -0.88134293744E+01  0.15409196891E+03  0.23905409436E+03  0.28455029687E+03  0.00000000000E+00 0.  1.
         13    1    5    5    0    0  0.25570104129E+03 -0.16885948985E+03  0.11539497968E+03  0.32743327743E+03  0.00000000000E+00 0.  1.
        -13    1    5    5    0    0  0.12695351434E+03 -0.11185953379E+03  0.13897333126E+03  0.21895966958E+03  0.00000000000E+00 0. -1.
          4    1    6    6  503    0 -0.84193855459E+02 -0.30270439787E+02 -0.17411884818E+02  0.91148661838E+02  0.00000000000E+00 0. -1.
         -4    1    6    6    0  503 -0.30591742639E+03  0.56516759841E+02 -0.60798246946E+02  0.31697956203E+03  0.00000000000E+00 0.  1.
<mgrwt>
<rscale>  0 0.12739593E+04</rscale>
<asrwt>0</asrwt>
<pdfrwt beam="1">  1        1 0.14252522E+00 0.12739593E+04</pdfrwt>
<pdfrwt beam="2">  1       -2 0.67380259E-01 0.12739593E+04</pdfrwt>
<totfact> 0.30183113E+01</totfact>
</mgrwt>
</event>
<event>
12    5  0.5029243E-008  0.1407525E+04  0.7818608E-02  0.8948390E-01
          1   -1    0    0  501    0  0.00000000000E+00  0.00000000000E+00  0.80690081744E+03  0.80690081744E+03  0.00000000000E+00 0. -1.
         -2   -1    0    0    0  501 -0.00000000000E+00 -0.00000000000E+00 -0.61380693851E+03  0.61380693851E+03  0.00000000000E+00 0.  1.
        -24    2    1    2    0    0 -0.11334295364E+03  0.91608181483E+02  0.43687525030E+03  0.47334162525E+03  0.10933263839E+03 0.  0.
        254    2    1    2    0    0  0.11334295364E+03 -0.91608181483E+02 -0.24378137137E+03  0.94736613070E+03  0.90378899336E+03 0.  0.
         23    2    4    4    0    0  0.49604383249E+03  0.25152508001E+02 -0.12517017431E+03  0.52015778179E+03  0.90578214889E+02 0.  0.
         23    2    4    4    0    0 -0.38270087885E+03 -0.11676068948E+03 -0.11861119706E+03  0.42720834891E+03  0.91352810753E+02 0.  0.
          1    1    3    3  502    0 -0.84900587973E+02  0.28389506593E+02  0.35474536880E+03  0.36586657487E+03  0.00000000000E+00 0. -1.
         -4    1    3    3    0  502 -0.28442365669E+02  0.63218674890E+02  0.82129881503E+02  0.10747505039E+03  0.00000000000E+00 0.  1.
         13    1    5    5    0    0  0.10894286471E+03 -0.23696706662E+02 -0.52681172912E+02  0.12331012796E+03  0.00000000000E+00 0. -1.
        -13    1    5    5    0    0  0.38710096778E+03  0.48849214663E+02 -0.72489001394E+02  0.39684765383E+03  0.00000000000E+00 0.  1.
          3    1    6    6  503    0 -0.10327012970E+03 -0.20826577272E+02  0.82733337118E+01  0.10567362045E+03  0.00000000000E+00 0. -1.
         -3    1    6    6    0  503 -0.27943074915E+03 -0.95934112211E+02 -0.12688453077E+03  0.32153472846E+03  0.00000000000E+00 0.  1.
<mgrwt>
<rscale>  0 0.14075245E+04</rscale>
<asrwt>0</asrwt>
<pdfrwt beam="1">  1        1 0.12413859E+00 0.14075245E+04</pdfrwt>
<pdfrwt beam="2">  1       -2 0.94431837E-01 0.14075245E+04</pdfrwt>
<totfact> 0.17596520E+01</totfact>
</mgrwt>
</event>
<event>
12    5  0.5029243E-008  0.1215555E+04  0.7818608E-02  0.9099349E-01
         -2   -1    0    0    0  501 -0.00000000000E+00  0.00000000000E+00  0.47219970653E+03  0.47219970653E+03  0.00000000000E+00 0.  1.
          1   -1    0    0  501    0  0.00000000000E+00 -0.00000000000E+00 -0.78228222564E+03  0.78228222564E+03  0.00000000000E+00 0. -1.
        -24    2    1    2    0    0  0.15658266380E+01 -0.21962738960E+03  0.82649892857E+02  0.24640501853E+03  0.75138447495E+02 0.  0.
        254    2    1    2    0    0 -0.15658266380E+01  0.21962738960E+03 -0.39273241197E+03  0.10080769136E+04  0.90207631292E+03 0.  0.
         23    2    4    4    0    0  0.17341283563E+02  0.36103331455E+03  0.17760559970E+03  0.41308553937E+03  0.91924640104E+02 0.  0.
         23    2    4    4    0    0 -0.18907110201E+02 -0.14140592496E+03 -0.57033801167E+03  0.59499137427E+03  0.91521437220E+02 0.  0.
          1    1    3    3  502    0 -0.28806736809E+02 -0.13486731272E+03  0.26910358693E+02  0.14051045346E+03  0.00000000000E+00 0. -1.
         -2    1    3    3    0  502  0.30372563447E+02 -0.84760076877E+02  0.55739534164E+02  0.10589456507E+03  0.00000000000E+00 0.  1.
         13    1    5    5    0    0 -0.27933274511E+01  0.34665539540E+03  0.17462794944E+03  0.38816579778E+03  0.00000000000E+00 0.  1.
        -13    1    5    5    0    0  0.20134611014E+02  0.14377919150E+02  0.29776502588E+01  0.24919741589E+02  0.00000000000E+00 0. -1.
          4    1    6    6  503    0 -0.42820282245E+02 -0.50242606619E+02 -0.14475023266E+03  0.15909282180E+03  0.00000000000E+00 0. -1.
         -4    1    6    6    0  503  0.23913172044E+02 -0.91163318337E+02 -0.42558777901E+03  0.43589855247E+03  0.00000000000E+00 0.  1.
<mgrwt>
<rscale>  0 0.12155549E+04</rscale>
<asrwt>0</asrwt>
<pdfrwt beam="1">  1        1 0.12035111E+00 0.12155549E+04</pdfrwt>
<pdfrwt beam="2">  1       -2 0.72646109E-01 0.12155549E+04</pdfrwt>
<totfact> 0.34017422E+01</totfact>
</mgrwt>
</event>
<event>
12    5  0.5029243E-008  0.2839236E+04  0.7818608E-02  0.8291190E-01
          1   -1    0    0  501    0  0.00000000000E+00  0.00000000000E+00  0.38819561251E+04  0.38819561251E+04  0.00000000000E+00 0. -1.
         -2   -1    0    0    0  501 -0.00000000000E+00 -0.00000000000E+00 -0.51914957072E+03  0.51914957072E+03  0.00000000000E+00 0.  1.
        -24    2    1    2    0    0 -0.25986868110E+03 -0.40133848718E+03 -0.32280617040E+03  0.58233193072E+03  0.79387285977E+02 0.  0.
        254    2    1    2    0    0  0.25986868110E+03  0.40133848718E+03  0.36856127248E+04  0.38187737651E+04  0.87788814731E+03 0.  0.
         23    2    4    4    0    0  0.32952958279E+03  0.45129284801E+03  0.36426810519E+04  0.36863821208E+04  0.89626525238E+02 0.  0.
         23    2    4    4    0    0 -0.69660901693E+02 -0.49954360833E+02  0.42931672889E+02  0.13239164431E+03  0.91303557183E+02 0.  0.
          1    1    3    3  502    0  0.43125097175E+01 -0.13238723337E+02 -0.17272351377E+02  0.22185483041E+02  0.00000000000E+00 0. -1.
         -2    1    3    3    0  502 -0.26418119082E+03 -0.38809976384E+03 -0.30553381903E+03  0.56014644768E+03  0.00000000000E+00 0.  1.
         13    1    5    5    0    0  0.26565975308E+02  0.91610254643E+02  0.65890943526E+03  0.66577761578E+03  0.00000000000E+00 0. -1.
        -13    1    5    5    0    0  0.30296360749E+03  0.35968259337E+03  0.29837716167E+04  0.30206045050E+04  0.00000000000E+00 0.  1.
          4    1    6    6  503    0 -0.51612636651E+02 -0.23511256395E+02  0.70262894045E+02  0.90296831167E+02  0.00000000000E+00 0.  1.
         -4    1    6    6    0  503 -0.18048265043E+02 -0.26443104438E+02 -0.27331221156E+02  0.42094813140E+02  0.00000000000E+00 0. -1.
<mgrwt>
<rscale>  0 0.28392364E+04</rscale>
<asrwt>0</asrwt>
<pdfrwt beam="1">  1        1 0.59722400E+00 0.28392364E+04</pdfrwt>
<pdfrwt beam="2">  1       -2 0.79869167E-01 0.28392364E+04</pdfrwt>
<totfact> 0.12795060E-01</totfact>
</mgrwt>
</event>
<event>
12    5  0.5029243E-008  0.1472073E+04  0.7818608E-02  0.8903239E-01
         -2   -1    0    0    0  501 -0.00000000000E+00  0.00000000000E+00  0.30882557463E+03  0.30882557463E+03  0.00000000000E+00 0.  1.
          1   -1    0    0  501    0  0.00000000000E+00 -0.00000000000E+00 -0.17542262404E+04  0.17542262404E+04  0.00000000000E+00 0. -1.
        -24    2    1    2    0    0 -0.66409149123E+02 -0.14303036974E+03 -0.10924643761E+04  0.11068163690E+04  0.81830311626E+02 0.  0.
        254    2    1    2    0    0  0.66409149123E+02  0.14303036974E+03 -0.35293628975E+03  0.95623544610E+03  0.87461668290E+03 0.  0.
         23    2    4    4    0    0  0.37814377518E+03  0.26345849901E+03 -0.38630562371E+03  0.60846077288E+03  0.92678917855E+02 0.  0.
         23    2    4    4    0    0 -0.31173462606E+03 -0.12042812927E+03  0.33369333960E+02  0.34777467322E+03  0.90290085170E+02 0.  0.
          3    1    3    3  502    0 -0.40751798919E+02 -0.14047691724E+03 -0.10063674841E+04  0.10169414863E+04  0.00000000000E+00 0. -1.
         -4    1    3    3    0  502 -0.25657350204E+02 -0.25534524969E+01 -0.86096891935E+02  0.89874882699E+02  0.00000000000E+00 0.  1.
         13    1    5    5    0    0  0.23740592658E+03  0.13573676781E+03 -0.17704639836E+03  0.32577825477E+03  0.00000000000E+00 0. -1.
        -13    1    5    5    0    0  0.14073784860E+03  0.12772173121E+03 -0.20925922535E+03  0.28268251811E+03  0.00000000000E+00 0.  1.
          3    1    6    6  503    0 -0.31163123761E+03 -0.10296376816E+03  0.27501974430E+02  0.32935076196E+03  0.00000000000E+00 0. -1.
         -3    1    6    6    0  503 -0.10338844979E+00 -0.17464361110E+02  0.58673595294E+01  0.18423911257E+02  0.00000000000E+00 0.  1.
<mgrwt>
<rscale>  0 0.14720733E+04</rscale>
<asrwt>0</asrwt>
<pdfrwt beam="1">  1        1 0.26988096E+00 0.14720733E+04</pdfrwt>
<pdfrwt beam="2">  1       -2 0.47511627E-01 0.14720733E+04</pdfrwt>
<totfact> 0.15639644E+01</totfact>
</mgrwt>
</event>
<event>
12    5  0.5029243E-008  0.1731999E+04  0.7818608E-02  0.8743322E-01
          1   -1    0    0  501    0  0.00000000000E+00  0.00000000000E+00  0.47443725518E+04  0.47443725518E+04  0.00000000000E+00 0. -1.
         -2   -1    0    0    0  501 -0.00000000000E+00 -0.00000000000E+00 -0.15807248467E+03  0.15807248467E+03  0.00000000000E+00 0.  1.
        -24    2    1    2    0    0  0.39003368929E+03  0.49893263414E+03  0.15639113553E+04  0.16891965510E+04  0.80661071987E+02 0.  0.
        254    2    1    2    0    0 -0.39003368929E+03 -0.49893263414E+03  0.30223887119E+04  0.32132484855E+04  0.88829738921E+03 0.  0.
         23    2    4    4    0    0  0.60170169652E+02 -0.59186806687E+03  0.13868933576E+04  0.15118885184E+04  0.91681235997E+02 0.  0.
         23    2    4    4    0    0 -0.45020385895E+03  0.92935432729E+02  0.16354953543E+04  0.17013599671E+04  0.91979205636E+02 0.  0.
          1    1    3    3  502    0  0.29751702042E+03  0.34263510798E+03  0.11877582132E+04  0.12714891929E+04  0.00000000000E+00 0. -1.
         -2    1    3    3    0  502  0.92516668876E+02  0.15629752616E+03  0.37615314202E+03  0.41770735804E+03  0.00000000000E+00 0.  1.
         13    1    5    5    0    0 -0.13870303609E+02 -0.47846014863E+02  0.78556040484E+02  0.93019771860E+02  0.00000000000E+00 0.  1.
        -13    1    5    5    0    0  0.74040473261E+02 -0.54402205201E+03  0.13083373171E+04  0.14188687466E+04  0.00000000000E+00 0. -1.
          2    1    6    6  503    0 -0.39296946299E+03  0.10447530174E+03  0.14926318280E+04  0.15470261347E+04  0.00000000000E+00 0. -1.
         -2    1    6    6    0  503 -0.57234395961E+02 -0.11539869011E+02  0.14286352632E+03  0.15433383236E+03  0.00000000000E+00 0.  1.
<mgrwt>
<rscale>  0 0.17319986E+04</rscale>
<asrwt>0</asrwt>
<pdfrwt beam="1">  1        1 0.72990336E+00 0.17319986E+04</pdfrwt>
<pdfrwt beam="2">  1       -2 0.24318847E-01 0.17319986E+04</pdfrwt>
<totfact> 0.22652697E-01</totfact>
</mgrwt>
</event>
<event>
12    5  0.5029243E-008  0.1499453E+04  0.7818608E-02  0.8884817E-01
          1   -1    0    0  501    0  0.00000000000E+00  0.00000000000E+00  0.77238813715E+03  0.77238813715E+03  0.00000000000E+00 0. -1.
         -2   -1    0    0    0  501 -0.00000000000E+00 -0.00000000000E+00 -0.72772932224E+03  0.72772932224E+03  0.00000000000E+00 0.  1.
        -24    2    1    2    0    0  0.44768391807E+03  0.10549883514E+03  0.13897243251E+03  0.48677350775E+03  0.78001385472E+02 0.  0.
        254    2    1    2    0    0 -0.44768391807E+03 -0.10549883514E+03 -0.94313617594E+02  0.10133439516E+04  0.89800891485E+03 0.  0.
         23    2    4    4    0    0 -0.64065193902E+03  0.12613969863E+03  0.61585834997E+02  0.66216117585E+03  0.91205686180E+02 0.  0.
         23    2    4    4    0    0  0.19296802095E+03 -0.23163853377E+03 -0.15589945259E+03  0.35118277578E+03  0.90175580123E+02 0.  0.
          1    1    3    3  502    0  0.47150147478E+02  0.19279183926E+02  0.41313035326E+02  0.65586509497E+02  0.00000000000E+00 0. -1.
         -2    1    3    3    0  502  0.40053377059E+03  0.86219651213E+02  0.97659397187E+02  0.42118699825E+03  0.00000000000E+00 0.  1.
         13    1    5    5    0    0 -0.56930055661E+02  0.36193678832E+02  0.18648672419E+02  0.69991332377E+02  0.00000000000E+00 0. -1.
        -13    1    5    5    0    0 -0.58372188336E+03  0.89946019800E+02  0.42937162579E+02  0.59216984348E+03  0.00000000000E+00 0.  1.
          1    1    6    6  503    0  0.92190994620E+01 -0.44082295986E+02 -0.52040373620E+02  0.68821806869E+02  0.00000000000E+00 0. -1.
         -1    1    6    6    0  503  0.18374892149E+03 -0.18755623778E+03 -0.10385907897E+03  0.28236096891E+03  0.00000000000E+00 0.  1.
<mgrwt>
<rscale>  0 0.14994526E+04</rscale>
<asrwt>0</asrwt>
<pdfrwt beam="1">  1        1 0.11882894E+00 0.14994526E+04</pdfrwt>
<pdfrwt beam="2">  1       -2 0.11195836E+00 0.14994526E+04</pdfrwt>
<totfact> 0.12471999E+01</totfact>
</mgrwt>
</event>
<event>
12    5  0.5029243E-008  0.1150706E+04  0.7818608E-02  0.9157132E-01
          1   -1    0    0  501    0  0.00000000000E+00  0.00000000000E+00  0.34488263834E+03  0.34488263834E+03  0.00000000000E+00 0. -1.
         -2   -1    0    0    0  501 -0.00000000000E+00 -0.00000000000E+00 -0.95983754808E+03  0.95983754808E+03  0.00000000000E+00 0.  1.
        -24    2    1    2    0    0 -0.59209717367E+02  0.11208203195E+03 -0.28257235968E+03  0.31937070660E+03  0.77989340695E+02 0.  0.
        254    2    1    2    0    0  0.59209717367E+02 -0.11208203195E+03 -0.33238255006E+03  0.98534947983E+03  0.91889458878E+03 0.  0.
         23    2    4    4    0    0 -0.28517781233E+03  0.15932182611E+03 -0.40820556917E+03  0.53078459289E+03  0.91600591842E+02 0.  0.
         23    2    4    4    0    0  0.34438752969E+03 -0.27140385806E+03  0.75823019115E+02  0.45456488694E+03  0.92829313428E+02 0.  0.
          1    1    3    3  502    0 -0.20068199443E+02  0.84322772239E+02 -0.10886310450E+03  0.13915544570E+03  0.00000000000E+00 0. -1.
         -2    1    3    3    0  502 -0.39141517924E+02  0.27759259711E+02 -0.17370925519E+03  0.18021526091E+03  0.00000000000E+00 0.  1.
         13    1    5    5    0    0 -0.14649072054E+03  0.38403049331E+02 -0.22429430131E+03  0.27063307078E+03  0.00000000000E+00 0.  1.
        -13    1    5    5    0    0 -0.13868709179E+03  0.12091877678E+03 -0.18391126786E+03  0.26015152210E+03  0.00000000000E+00 0. -1.
          1    1    6    6  503    0  0.52003369601E+02 -0.70452786710E+02 -0.13777452229E+02  0.88644028535E+02  0.00000000000E+00 0. -1.
         -1    1    6    6    0  503  0.29238416009E+03 -0.20095107135E+03  0.89600471343E+02  0.36592085840E+03  0.00000000000E+00 0.  1.
<mgrwt>
<rscale>  0 0.11507064E+04</rscale>
<asrwt>0</asrwt>
<pdfrwt beam="1">  1        1 0.53058868E-01 0.11507064E+04</pdfrwt>
<pdfrwt beam="2">  1       -2 0.14766731E+00 0.11507064E+04</pdfrwt>
<totfact> 0.19755373E+01</totfact>
</mgrwt>
</event>
<event>
12    5  0.5029243E-008  0.1388285E+04  0.7818608E-02  0.8962342E-01
         -2   -1    0    0    0  501 -0.00000000000E+00  0.00000000000E+00  0.11662035910E+04  0.11662035910E+04  0.00000000000E+00 0.  1.
          1   -1    0    0  501    0  0.00000000000E+00 -0.00000000000E+00 -0.41316466667E+03  0.41316466667E+03  0.00000000000E+00 0. -1.
        -24    2    1    2    0    0  0.39558763350E+03  0.20192816495E+02  0.20839454673E+03  0.45482506622E+03  0.80871676970E+02 0.  0.
        254    2    1    2    0    0 -0.39558763350E+03 -0.20192816495E+02  0.54464437759E+03  0.11245431914E+04  0.90059012085E+03 0.  0.
         23    2    4    4    0    0 -0.38642032524E+03 -0.36167101051E+03  0.55274609704E+03  0.77098496951E+03  0.93610831714E+02 0.  0.
         23    2    4    4    0    0 -0.91673082584E+01  0.34147819402E+03 -0.81017194455E+01  0.35355822194E+03  0.90809591515E+02 0.  0.
          1    1    3    3  502    0  0.29289351131E+03 -0.73845816937E+00  0.11573180015E+03  0.31493015711E+03  0.00000000000E+00 0. -1.
         -2    1    3    3    0  502  0.10269412219E+03  0.20931274665E+02  0.92662746583E+02  0.13989490911E+03  0.00000000000E+00 0.  1.
         13    1    5    5    0    0 -0.95330926539E+02 -0.14766695046E+03  0.19549759049E+03  0.26289317545E+03  0.00000000000E+00 0. -1.
        -13    1    5    5    0    0 -0.29108939871E+03 -0.21400406006E+03  0.35724850655E+03  0.50809179406E+03  0.00000000000E+00 0.  1.
          1    1    6    6  503    0 -0.10599609319E+02  0.34502536298E+02 -0.28372738759E+02  0.45910663613E+02  0.00000000000E+00 0. -1.
         -1    1    6    6    0  503  0.14323010608E+01  0.30697565772E+03  0.20271019313E+02  0.30764755832E+03  0.00000000000E+00 0.  1.
<mgrwt>
<rscale>  0 0.13882854E+04</rscale>
<asrwt>0</asrwt>
<pdfrwt beam="1">  1        1 0.63563796E-01 0.13882854E+04</pdfrwt>
<pdfrwt beam="2">  1       -2 0.17941594E+00 0.13882854E+04</pdfrwt>
<totfact> 0.89588898E+00</totfact>
</mgrwt>
</event>
<event>
12    5  0.5029243E-008  0.4156372E+04  0.7818608E-02  0.7973723E-01
          1   -1    0    0  501    0  0.00000000000E+00  0.00000000000E+00  0.26223861811E+04  0.26223861811E+04  0.00000000000E+00 0. -1.
         -2   -1    0    0    0  501 -0.00000000000E+00 -0.00000000000E+00 -0.16469189954E+04  0.16469189954E+04  0.00000000000E+00 0.  1.
        -24    2    1    2    0    0  0.96047421605E+03 -0.33743033882E+03  0.22065150875E+04  0.24313180572E+04  0.78922181571E+02 0.  0.
        254    2    1    2    0    0 -0.96047421605E+03  0.33743033882E+03 -0.12310479018E+04  0.18379871193E+04  0.90903672154E+03 0.  0.
         23    2    4    4    0    0 -0.10127068025E+04  0.42698220003E+03 -0.74171360469E+03  0.13292330909E+04  0.93982294443E+02 0.  0.
         23    2    4    4    0    0  0.52232586476E+02 -0.89551861214E+02 -0.48933429710E+03  0.50875402839E+03  0.92923775995E+02 0.  0.
          1    1    3    3  502    0  0.95210963149E+03 -0.32650654620E+03  0.21862304871E+04  0.24068076404E+04  0.00000000000E+00 0. -1.
         -2    1    3    3    0  502  0.83645845603E+01 -0.10923792614E+02  0.20284600383E+02  0.24510416819E+02  0.00000000000E+00 0.  1.
         13    1    5    5    0    0 -0.25500814054E+03  0.11855093087E+03 -0.23890078530E+03  0.36899466144E+03  0.00000000000E+00 0. -1.
        -13    1    5    5    0    0 -0.75769866198E+03  0.30843126917E+03 -0.50281281938E+03  0.96023842951E+03  0.00000000000E+00 0.  1.
          1    1    6    6  503    0  0.51300145000E+02 -0.10519303684E+03 -0.36174408772E+03  0.38020529307E+03  0.00000000000E+00 0. -1.
         -1    1    6    6    0  503  0.93244147618E+00  0.15641175630E+02 -0.12759020939E+03  0.12854873533E+03  0.00000000000E+00 0.  1.
<mgrwt>
<rscale>  0 0.41563723E+04</rscale>
<asrwt>0</asrwt>
<pdfrwt beam="1">  1        1 0.40344403E+00 0.41563723E+04</pdfrwt>
<pdfrwt beam="2">  1       -2 0.25337215E+00 0.41563723E+04</pdfrwt>
<totfact> 0.46358959E-02</totfact>
</mgrwt>
</event>
<event>
12    5  0.5029243E-008  0.1146809E+04  0.7818608E-02  0.9160732E-01
          1   -1    0    0  501    0  0.00000000000E+00  0.00000000000E+00  0.76230352468E+03  0.76230352468E+03  0.00000000000E+00 0. -1.
         -2   -1    0    0    0  501 -0.00000000000E+00 -0.00000000000E+00 -0.43131505208E+03  0.43131505208E+03  0.00000000000E+00 0.  1.
        -24    2    1    2    0    0 -0.18565663706E+03 -0.40061646523E+02  0.15625384907E+03  0.25876729633E+03  0.80448280845E+02 0.  0.
        254    2    1    2    0    0  0.18565663706E+03  0.40061646523E+02  0.17473462352E+03  0.93485128044E+03  0.89852178909E+03 0.  0.
         23    2    4    4    0    0  0.43551305832E+03  0.27616379353E+03 -0.28974992332E+02  0.52477931403E+03  0.92820867470E+02 0.  0.
         23    2    4    4    0    0 -0.24985642125E+03 -0.23610214701E+03  0.20370961586E+03  0.41007196641E+03  0.92135525058E+02 0.  0.
          3    1    3    3  502    0 -0.48666913955E+01 -0.12890352408E+02  0.39529779308E+02  0.41862266094E+02  0.00000000000E+00 0. -1.
         -4    1    3    3    0  502 -0.18078994567E+03 -0.27171294115E+02  0.11672406977E+03  0.21690503023E+03  0.00000000000E+00 0.  1.
         13    1    5    5    0    0  0.25980522318E+03  0.10995847692E+03 -0.15552500519E+02  0.28254468834E+03  0.00000000000E+00 0. -1.
        -13    1    5    5    0    0  0.17570783513E+03  0.16620531661E+03 -0.13422491813E+02  0.24223462569E+03  0.00000000000E+00 0.  1.
          3    1    6    6  503    0 -0.25224942989E+03 -0.21632314214E+03  0.17626431104E+03  0.37615765851E+03  0.00000000000E+00 0. -1.
         -3    1    6    6    0  503  0.23930086410E+01 -0.19779004861E+02  0.27445304815E+02  0.33914307896E+02  0.00000000000E+00 0.  1.
<mgrwt>
<rscale>  0 0.11468095E+04</rscale>
<asrwt>0</asrwt>
<pdfrwt beam="1">  1        1 0.11727747E+00 0.11468095E+04</pdfrwt>
<pdfrwt beam="2">  1       -2 0.66356162E-01 0.11468095E+04</pdfrwt>
<totfact> 0.43393535E+01</totfact>
</mgrwt>
</event>
<event>
12    5  0.5029243E-008  0.1391861E+04  0.7818608E-02  0.8959731E-01
         -2   -1    0    0    0  501 -0.00000000000E+00  0.00000000000E+00  0.32124452158E+03  0.32124452158E+03  0.00000000000E+00 0.  1.
          1   -1    0    0  501    0  0.00000000000E+00 -0.00000000000E+00 -0.15076339222E+04  0.15076339222E+04  0.00000000000E+00 0. -1.
        -24    2    1    2    0    0  0.15805922587E+03  0.55015903956E+02  0.13051404600E+03  0.22633505531E+03  0.78639509700E+02 0.  0.
        254    2    1    2    0    0 -0.15805922587E+03 -0.55015903956E+02 -0.13169034466E+04  0.16025433884E+04  0.89771997616E+03 0.  0.
         23    2    4    4    0    0  0.20506672707E+01  0.29226822552E+03 -0.11238268311E+04  0.11647457724E+04  0.90669990366E+02 0.  0.
         23    2    4    4    0    0 -0.16010989314E+03 -0.34728412947E+03 -0.19307661553E+03  0.43779761606E+03  0.90259230559E+02 0.  0.
          1    1    3    3  502    0  0.81390957432E+02  0.49687004676E+02  0.30324975957E+02  0.10006443200E+03  0.00000000000E+00 0. -1.
         -2    1    3    3    0  502  0.76668268443E+02  0.53288992796E+01  0.10018907005E+03  0.12627062331E+03  0.00000000000E+00 0.  1.
         13    1    5    5    0    0  0.37030087671E+02  0.55990141117E+02 -0.25394875943E+03  0.26267107894E+03  0.00000000000E+00 0.  1.
        -13    1    5    5    0    0 -0.34979420400E+02  0.23627808440E+03 -0.86987807163E+03  0.90207469343E+03  0.00000000000E+00 0. -1.
          3    1    6    6  503    0 -0.13008758977E+03 -0.21322308308E+03 -0.87940669647E+02  0.26480261621E+03  0.00000000000E+00 0. -1.
         -3    1    6    6    0  503 -0.30022303371E+02 -0.13406104639E+03 -0.10513594588E+03  0.17299499986E+03  0.00000000000E+00 0.  1.
<mgrwt>
<rscale>  0 0.13918608E+04</rscale>
<asrwt>0</asrwt>
<pdfrwt beam="1">  1        1 0.23194368E+00 0.13918608E+04</pdfrwt>
<pdfrwt beam="2">  1       -2 0.49422233E-01 0.13918608E+04</pdfrwt>
<totfact> 0.21438787E+01</totfact>
</mgrwt>
</event>
<event>
12    5  0.5029243E-008  0.1163585E+04  0.7818608E-02  0.9145342E-01
          1   -1    0    0  501    0  0.00000000000E+00  0.00000000000E+00  0.51485291386E+03  0.51485291386E+03  0.00000000000E+00 0. -1.
         -2   -1    0    0    0  501 -0.00000000000E+00 -0.00000000000E+00 -0.65743519355E+03  0.65743519355E+03  0.00000000000E+00 0.  1.
        -24    2    1    2    0    0  0.20229482410E+03  0.19330685269E+03 -0.40928742214E+02  0.29400930561E+03  0.80470955591E+02 0.  0.
        254    2    1    2    0    0 -0.20229482410E+03 -0.19330685269E+03 -0.10165353747E+03  0.87827880180E+03  0.82628655856E+03 0.  0.
         23    2    4    4    0    0 -0.43387749636E+03  0.10985087264E+03 -0.15532950861E+03  0.48254644792E+03  0.91689269182E+02 0.  0.
         23    2    4    4    0    0  0.23158267226E+03 -0.30315772533E+03  0.53675971137E+02  0.39573235388E+03  0.90486714562E+02 0.  0.
          1    1    3    3  502    0  0.57310393630E+02  0.19913108718E+02  0.12061929519E+02  0.61858736332E+02  0.00000000000E+00 0. -1.
         -2    1    3    3    0  502  0.14498443047E+03  0.17339374397E+03 -0.52990671733E+02  0.23215056928E+03  0.00000000000E+00 0.  1.
         13    1    5    5    0    0 -0.14361556802E+03  0.18800448117E+02 -0.92680060028E+02  0.17195488290E+03  0.00000000000E+00 0. -1.
        -13    1    5    5    0    0 -0.29026192834E+03  0.91050424528E+02 -0.62649448584E+02  0.31059156502E+03  0.00000000000E+00 0.  1.
          4    1    6    6  503    0  0.32968412894E+01 -0.24107148064E+02  0.23682977840E+02  0.33954487032E+02  0.00000000000E+00 0. -1.
         -4    1    6    6    0  503  0.22828583097E+03 -0.27905057727E+03  0.29992993298E+02  0.36177786685E+03  0.00000000000E+00 0.  1.
<mgrwt>
<rscale>  0 0.11635848E+04</rscale>
<asrwt>0</asrwt>
<pdfrwt beam="1">  1        1 0.79208140E-01 0.11635848E+04</pdfrwt>
<pdfrwt beam="2">  1       -2 0.10114388E+00 0.11635848E+04</pdfrwt>
<totfact> 0.29694955E+01</totfact>
</mgrwt>
</event>
<event>
12    5  0.5029243E-008  0.1521376E+04  0.7818608E-02  0.8870362E-01
          1   -1    0    0  501    0  0.00000000000E+00  0.00000000000E+00  0.49171160756E+03  0.49171160756E+03  0.00000000000E+00 0. -1.
         -2   -1    0    0    0  501 -0.00000000000E+00 -0.00000000000E+00 -0.11767992914E+04  0.11767992914E+04  0.00000000000E+00 0.  1.
        -24    2    1    2    0    0  0.14606127683E+03 -0.40861144278E+03  0.16081396273E+02  0.44143985175E+03  0.79456426113E+02 0.  0.
        254    2    1    2    0    0 -0.14606127683E+03  0.40861144278E+03 -0.70116908013E+03  0.12270710472E+04  0.90871781553E+03 0.  0.
         23    2    4    4    0    0 -0.15052756689E+03  0.38045628949E+03 -0.90718518709E+03  0.99950797271E+03  0.92874577962E+02 0.  0.
         23    2    4    4    0    0  0.44662900579E+01  0.28155153284E+02  0.20601610696E+03  0.22756307452E+03  0.92356137613E+02 0.  0.
          3    1    3    3  502    0  0.12922341660E+03 -0.32033283407E+03  0.41867659455E+02  0.34794355417E+03  0.00000000000E+00 0. -1.
         -4    1    3    3    0  502  0.16837860232E+02 -0.88278608710E+02 -0.25786263182E+02  0.93496297584E+02  0.00000000000E+00 0.  1.
         13    1    5    5    0    0 -0.58558896880E+02  0.51520191200E+02 -0.16561257632E+03  0.18306009926E+03  0.00000000000E+00 0.  1.
        -13    1    5    5    0    0 -0.91968670009E+02  0.32893609829E+03 -0.74157261076E+03  0.81644787345E+03  0.00000000000E+00 0. -1.
          2    1    6    6  503    0 -0.19268139713E+02  0.44971305577E+02  0.18581604298E+03  0.19214911231E+03  0.00000000000E+00 0. -1.
         -2    1    6    6    0  503  0.23734429771E+02 -0.16816152292E+02  0.20200063977E+02  0.35413962206E+02  0.00000000000E+00 0.  1.
<mgrwt>
<rscale>  0 0.15213755E+04</rscale>
<asrwt>0</asrwt>
<pdfrwt beam="1">  1        1 0.75647941E-01 0.15213755E+04</pdfrwt>
<pdfrwt beam="2">  1       -2 0.18104604E+00 0.15213755E+04</pdfrwt>
<totfact> 0.68247415E+00</totfact>
</mgrwt>
</event>
<event>
12    5  0.5029243E-008  0.1738599E+04  0.7818608E-02  0.8739651E-01
         -2   -1    0    0    0  501 -0.00000000000E+00  0.00000000000E+00  0.96381578974E+03  0.96381578974E+03  0.00000000000E+00 0.  1.
          1   -1    0    0  501    0  0.00000000000E+00 -0.00000000000E+00 -0.78405216976E+03  0.78405216976E+03  0.00000000000E+00 0. -1.
        -24    2    1    2    0    0  0.27814567987E+02  0.62494244626E+03  0.13334844104E+03  0.64466596789E+03  0.80533794710E+02 0.  0.
        254    2    1    2    0    0 -0.27814567987E+02 -0.62494244626E+03  0.46415178943E+02  0.11032019916E+04  0.90750953390E+03 0.  0.
         23    2    4    4    0    0  0.36873324751E+03 -0.22752574375E+03  0.24016734036E+03  0.50249405263E+03  0.84188773936E+02 0.  0.
         23    2    4    4    0    0 -0.39654781550E+03 -0.39741670251E+03 -0.19375216142E+03  0.60070793899E+03  0.90110612540E+02 0.  0.
          1    1    3    3  502    0  0.25439278136E+02  0.17909747941E+03  0.71640012211E+02  0.19456452748E+03  0.00000000000E+00 0. -1.
         -2    1    3    3    0  502  0.23752898509E+01  0.44584496685E+03  0.61708428833E+02  0.45010144041E+03  0.00000000000E+00 0.  1.
         13    1    5    5    0    0  0.17422562658E+03 -0.74612033952E+02  0.69268260482E+02  0.20179102180E+03  0.00000000000E+00 0. -1.
        -13    1    5    5    0    0  0.19450762093E+03 -0.15291370980E+03  0.17089907988E+03  0.30070303083E+03  0.00000000000E+00 0.  1.
          3    1    6    6  503    0 -0.12427823853E+03 -0.16741266090E+03 -0.38861680162E+02  0.21209033402E+03  0.00000000000E+00 0. -1.
         -3    1    6    6    0  503 -0.27226957697E+03 -0.23000404161E+03 -0.15489048126E+03  0.38861760496E+03  0.00000000000E+00 0.  1.
<mgrwt>
<rscale>  0 0.17385993E+04</rscale>
<asrwt>0</asrwt>
<pdfrwt beam="1">  1        1 0.12062341E+00 0.17385993E+04</pdfrwt>
<pdfrwt beam="2">  1       -2 0.14827935E+00 0.17385993E+04</pdfrwt>
<totfact> 0.58585857E+00</totfact>
</mgrwt>
</event>
<event>
12    5  0.5029243E-008  0.1868500E+04  0.7818608E-02  0.8670697E-01
         -2   -1    0    0    0  501 -0.00000000000E+00  0.00000000000E+00  0.47738328657E+03  0.47738328657E+03  0.00000000000E+00 0.  1.
          1   -1    0    0  501    0  0.00000000000E+00 -0.00000000000E+00 -0.18283479169E+04  0.18283479169E+04  0.00000000000E+00 0. -1.
        -24    2    1    2    0    0  0.20566012625E+03 -0.57653884526E+03 -0.97425472573E+03  0.11533504091E+04  0.79697979694E+02 0.  0.
        254    2    1    2    0    0 -0.20566012625E+03  0.57653884526E+03 -0.37670990460E+03  0.11523807944E+04  0.90076523877E+03 0.  0.
         23    2    4    4    0    0  0.25021665615E+03  0.54068906604E+03 -0.32038311334E+03  0.68264776641E+03  0.91703830471E+02 0.  0.
         23    2    4    4    0    0 -0.45587678240E+03  0.35849779218E+02 -0.56326791259E+02  0.46973302795E+03  0.91474382939E+02 0.  0.
          3    1    3    3  502    0  0.19943441036E+03 -0.47237870378E+03 -0.82002524404E+03  0.96713862744E+03  0.00000000000E+00 0. -1.
         -4    1    3    3    0  502  0.62257158885E+01 -0.10416014148E+03 -0.15422948169E+03  0.18621178167E+03  0.00000000000E+00 0.  1.
         13    1    5    5    0    0  0.19453853511E+03  0.43351236041E+03 -0.21176583532E+03  0.52021435704E+03  0.00000000000E+00 0.  1.
        -13    1    5    5    0    0  0.55678121049E+02  0.10717670563E+03 -0.10861727803E+03  0.16243340937E+03  0.00000000000E+00 0. -1.
          1    1    6    6  503    0 -0.19664592520E+03  0.23368975831E+02  0.20452404764E+02  0.19908297212E+03  0.00000000000E+00 0. -1.
         -1    1    6    6    0  503 -0.25923085721E+03  0.12480803388E+02 -0.76779196023E+02  0.27065005583E+03  0.00000000000E+00 0.  1.
<mgrwt>
<rscale>  0 0.18684997E+04</rscale>
<asrwt>0</asrwt>
<pdfrwt beam="1">  1        1 0.28128429E+00 0.18684997E+04</pdfrwt>
<pdfrwt beam="2">  1       -2 0.73443583E-01 0.18684997E+04</pdfrwt>
<totfact> 0.53691486E+00</totfact>
</mgrwt>
</event>
<event>
12    5  0.5029243E-008  0.1764173E+04  0.7818608E-02  0.8725587E-01
          3   -1    0    0  501    0  0.00000000000E+00  0.00000000000E+00  0.27012207550E+03  0.27012207550E+03  0.00000000000E+00 0. -1.
         -4   -1    0    0    0  501 -0.00000000000E+00 -0.00000000000E+00 -0.28804634354E+04  0.28804634354E+04  0.00000000000E+00 0.  1.
        -24    2    1    2    0    0 -0.21005160242E+03 -0.25689078010E+03  0.28104251398E+02  0.34320871913E+03  0.82992935626E+02 0.  0.
        254    2    1    2    0    0  0.21005160242E+03  0.25689078010E+03 -0.26384456113E+04  0.28073767918E+04  0.89991925118E+03 0.  0.
         23    2    4    4    0    0  0.22994499007E+03 -0.26679873282E+03 -0.60954164087E+03  0.70999822514E+03  0.92196558839E+02 0.  0.
         23    2    4    4    0    0 -0.19893387651E+02  0.52368951291E+03 -0.20289039704E+04  0.20973785666E+04  0.88876755865E+02 0.  0.
          1    1    3    3  502    0 -0.21247796998E+03 -0.24264736620E+03  0.39321946239E+02  0.32491667779E+03  0.00000000000E+00 0. -1.
         -2    1    3    3    0  502  0.24263675572E+01 -0.14243413899E+02 -0.11217694841E+02  0.18292041345E+02  0.00000000000E+00 0.  1.
         13    1    5    5    0    0  0.15261380933E+01 -0.15215162902E+02 -0.75355509098E+02  0.76891371630E+02  0.00000000000E+00 0. -1.
        -13    1    5    5    0    0  0.22841885198E+03 -0.25158356991E+03 -0.53418613177E+03  0.63310685351E+03  0.00000000000E+00 0.  1.
          4    1    6    6  503    0  0.28865052335E+02  0.96091458842E+02 -0.33917753610E+03  0.35370631985E+03  0.00000000000E+00 0. -1.
         -4    1    6    6    0  503 -0.48758439986E+02  0.42759805407E+03 -0.16897264343E+04  0.17436722468E+04  0.00000000000E+00 0.  1.
<mgrwt>
<rscale>  0 0.17641732E+04</rscale>
<asrwt>0</asrwt>
<pdfrwt beam="1">  1        3 0.41557240E-01 0.17641732E+04</pdfrwt>
<pdfrwt beam="2">  1       -4 0.44314825E+00 0.17641732E+04</pdfrwt>
<totfact> 0.41979316E-02</totfact>
</mgrwt>
</event>
<event>
12    5  0.5029243E-008  0.1567822E+04  0.7818608E-02  0.8840564E-01
          1   -1    0    0  501    0  0.00000000000E+00  0.00000000000E+00  0.21921722822E+04  0.21921722822E+04  0.00000000000E+00 0. -1.
         -2   -1    0    0    0  501 -0.00000000000E+00 -0.00000000000E+00 -0.28032299510E+03  0.28032299510E+03  0.00000000000E+00 0.  1.
        -24    2    1    2    0    0 -0.39770845015E+03  0.30753332617E+03  0.41400629458E+03  0.65623970349E+03  0.80626164899E+02 0.  0.
        254    2    1    2    0    0  0.39770845015E+03 -0.30753332617E+03  0.14978429926E+04  0.18162555739E+04  0.89582471564E+03 0.  0.
         23    2    4    4    0    0  0.41823315792E+03 -0.33450391183E+03  0.15909454337E+04  0.16815253231E+04  0.98021414529E+02 0.  0.
         23    2    4    4    0    0 -0.20524707776E+02  0.26970585656E+02 -0.93102441138E+02  0.13473025078E+03  0.91298958424E+02 0.  0.
          3    1    3    3  502    0 -0.26331621771E+02  0.43647488399E+02  0.63479624440E+02  0.81413268376E+02  0.00000000000E+00 0. -1.
         -4    1    3    3    0  502 -0.37137682837E+03  0.26388583777E+03  0.35052667014E+03  0.57482643512E+03  0.00000000000E+00 0.  1.
         13    1    5    5    0    0  0.21909697193E+03 -0.23501644401E+03  0.90286363871E+03  0.95833134258E+03  0.00000000000E+00 0. -1.
        -13    1    5    5    0    0  0.19913618599E+03 -0.99487467819E+02  0.68808179499E+03  0.72319398050E+03  0.00000000000E+00 0.  1.
          1    1    6    6  503    0 -0.31000262431E+02  0.52175732118E+02 -0.88098883001E+02  0.10698007515E+03  0.00000000000E+00 0. -1.
         -1    1    6    6    0  503  0.10475554655E+02 -0.25205146462E+02 -0.50035581369E+01  0.27750175631E+02  0.00000000000E+00 0.  1.
<mgrwt>
<rscale>  0 0.15678218E+04</rscale>
<asrwt>0</asrwt>
<pdfrwt beam="1">  1        1 0.33725726E+00 0.15678218E+04</pdfrwt>
<pdfrwt beam="2">  1       -2 0.43126616E-01 0.15678218E+04</pdfrwt>
<totfact> 0.95064931E+00</totfact>
</mgrwt>
</event>
<event>
12    5  0.5029243E-008  0.1350679E+04  0.7818608E-02  0.8990314E-01
          1   -1    0    0  501    0  0.00000000000E+00  0.00000000000E+00  0.76636573427E+03  0.76636573427E+03  0.00000000000E+00 0. -1.
         -2   -1    0    0    0  501 -0.00000000000E+00 -0.00000000000E+00 -0.59512539148E+03  0.59512539148E+03  0.00000000000E+00 0.  1.
        -24    2    1    2    0    0 -0.61700925408E+02  0.36083934412E+03 -0.25981562176E+02  0.37241349201E+03  0.63282943959E+02 0.  0.
        254    2    1    2    0    0  0.61700925408E+02 -0.36083934412E+03  0.19722190496E+03  0.98907763374E+03  0.89742189036E+03 0.  0.
         23    2    4    4    0    0  0.45398932384E+03 -0.73619453552E+02  0.42427333756E+02  0.47055547776E+03  0.89979158100E+02 0.  0.
         23    2    4    4    0    0 -0.39228839843E+03 -0.28721989057E+03  0.15479457120E+03  0.51852215598E+03  0.92295253845E+02 0.  0.
          1    1    3    3  502    0 -0.41366830482E+02  0.14586641941E+03 -0.37454656177E+02  0.15617643307E+03  0.00000000000E+00 0. -1.
         -2    1    3    3    0  502 -0.20334094926E+02  0.21497292471E+03  0.11473094000E+02  0.21623705894E+03  0.00000000000E+00 0.  1.
         13    1    5    5    0    0  0.12410606362E+03  0.19926563248E+02  0.82516469384E+01  0.12596615668E+03  0.00000000000E+00 0. -1.
        -13    1    5    5    0    0  0.32988326022E+03 -0.93546016799E+02  0.34175686818E+02  0.34458932108E+03  0.00000000000E+00 0.  1.
          4    1    6    6  503    0 -0.34418425985E+02  0.21548478911E+01  0.14248440493E+02  0.37313395359E+02  0.00000000000E+00 0. -1.
         -4    1    6    6    0  503 -0.35786997245E+03 -0.28937473846E+03  0.14054613071E+03  0.48120876062E+03  0.00000000000E+00 0.  1.
<mgrwt>
<rscale>  0 0.13506794E+04</rscale>
<asrwt>0</asrwt>
<pdfrwt beam="1">  1        1 0.11790242E+00 0.13506794E+04</pdfrwt>
<pdfrwt beam="2">  1       -2 0.91557752E-01 0.13506794E+04</pdfrwt>
<totfact> 0.20619064E+01</totfact>
</mgrwt>
</event>
<event>
12    5  0.5029243E-008  0.1322677E+04  0.7818608E-02  0.9011773E-01
         -2   -1    0    0    0  501 -0.00000000000E+00  0.00000000000E+00  0.19609162456E+03  0.19609162456E+03  0.00000000000E+00 0.  1.
          1   -1    0    0  501    0  0.00000000000E+00 -0.00000000000E+00 -0.22304308430E+04  0.22304308430E+04  0.00000000000E+00 0. -1.
        -24    2    1    2    0    0  0.27969016169E+03 -0.12739004136E+03 -0.26004712915E+03  0.41060695558E+03  0.80738797405E+02 0.  0.
        254    2    1    2    0    0 -0.27969016169E+03  0.12739004136E+03 -0.17742920893E+04  0.20159155119E+04  0.90628258513E+03 0.  0.
         23    2    4    4    0    0 -0.72065267886E+02  0.49058753841E+03 -0.11860261223E+04  0.12887331137E+04  0.91134734591E+02 0.  0.
         23    2    4    4    0    0 -0.20762489381E+03 -0.36319749704E+03 -0.58826596693E+03  0.72718239824E+03  0.87845740201E+02 0.  0.
          3    1    3    3  502    0  0.27528812751E+03 -0.12534421303E+03 -0.22953676993E+03  0.37971285682E+03  0.00000000000E+00 0. -1.
         -4    1    3    3    0  502  0.44020341873E+01 -0.20458283319E+01 -0.30510359215E+02  0.30894098756E+02  0.00000000000E+00 0.  1.
         13    1    5    5    0    0 -0.77522038028E+02  0.49088482561E+03 -0.11810200179E+04  0.12813219193E+04  0.00000000000E+00 0. -1.
        -13    1    5    5    0    0  0.54567701414E+01 -0.29728720112E+00 -0.50061044719E+01  0.74111943733E+01  0.00000000000E+00 0.  1.
          1    1    6    6  503    0 -0.17664385153E+03 -0.35167466231E+03 -0.52914831199E+03  0.65945132836E+03  0.00000000000E+00 0. -1.
         -1    1    6    6    0  503 -0.30981042283E+02 -0.11522834731E+02 -0.59117654940E+02  0.67731069878E+02  0.00000000000E+00 0.  1.
<mgrwt>
<rscale>  0 0.13226773E+04</rscale>
<asrwt>0</asrwt>
<pdfrwt beam="1">  1        1 0.34314321E+00 0.13226773E+04</pdfrwt>
<pdfrwt beam="2">  1       -2 0.30167942E-01 0.13226773E+04</pdfrwt>
<totfact> 0.18192595E+01</totfact>
</mgrwt>
</event>
<event>
12    5  0.5029243E-008  0.2225397E+04  0.7818608E-02  0.8507931E-01
          1   -1    0    0  501    0  0.00000000000E+00  0.00000000000E+00  0.30425773712E+04  0.30425773712E+04  0.00000000000E+00 0. -1.
         -2   -1    0    0    0  501 -0.00000000000E+00 -0.00000000000E+00 -0.40692399833E+03  0.40692399833E+03  0.00000000000E+00 0.  1.
        -24    2    1    2    0    0 -0.10374433884E+03 -0.52019784818E+03 -0.45539421794E+02  0.53857773608E+03  0.81384579457E+02 0.  0.
        254    2    1    2    0    0  0.10374433884E+03  0.52019784818E+03  0.26811927947E+04  0.29109236335E+04  0.10016550846E+04 0.  0.
         23    2    4    4    0    0 -0.40181132590E+03  0.22080000723E+02  0.11123891735E+04  0.11867336598E+04  0.94801044480E+02 0.  0.
         23    2    4    4    0    0  0.50555566474E+03  0.49811784745E+03  0.15688036212E+04  0.17241899737E+04  0.89321571905E+02 0.  0.
          1    1    3    3  502    0 -0.47825125680E+02 -0.91726258597E+02 -0.22466950189E+02  0.10585704045E+03  0.00000000000E+00 0. -1.
         -2    1    3    3    0  502 -0.55919213157E+02 -0.42847158958E+03 -0.23072471605E+02  0.43272069563E+03  0.00000000000E+00 0.  1.
         13    1    5    5    0    0 -0.13654239974E+03 -0.28849479117E+02  0.30636870691E+03  0.33665695292E+03  0.00000000000E+00 0. -1.
        -13    1    5    5    0    0 -0.26526892616E+03  0.50929479841E+02  0.80602046658E+03  0.85007670692E+03  0.00000000000E+00 0.  1.
          4    1    6    6  503    0  0.10738942705E+03  0.16141724405E+03  0.42322202741E+03  0.46551573572E+03  0.00000000000E+00 0. -1.
         -4    1    6    6    0  503  0.39816623770E+03  0.33670060340E+03  0.11455815938E+04  0.12586742379E+04  0.00000000000E+00 0.  1.
<mgrwt>
<rscale>  0 0.22253968E+04</rscale>
<asrwt>0</asrwt>
<pdfrwt beam="1">  1        1 0.46808881E+00 0.22253968E+04</pdfrwt>
<pdfrwt beam="2">  1       -2 0.62603694E-01 0.22253968E+04</pdfrwt>
<totfact> 0.10534697E+00</totfact>
</mgrwt>
</event>
<event>
12    5  0.5029243E-008  0.1185285E+04  0.7818608E-02  0.9125835E-01
          1   -1    0    0  501    0  0.00000000000E+00  0.00000000000E+00  0.22764484410E+04  0.22764484410E+04  0.00000000000E+00 0. -1.
         -2   -1    0    0    0  501 -0.00000000000E+00 -0.00000000000E+00 -0.15428644333E+03  0.15428644333E+03  0.00000000000E+00 0.  1.
        -24    2    1    2    0    0  0.22509411314E+03 -0.91639519021E+02  0.48518105819E+03  0.54838425033E+03  0.79116784361E+02 0.  0.
        254    2    1    2    0    0 -0.22509411314E+03  0.91639519021E+02  0.16369809395E+04  0.18823506340E+04  0.89692371575E+03 0.  0.
         23    2    4    4    0    0  0.24660836817E+03 -0.22590371012E+03  0.71352287762E+03  0.79336499763E+03  0.92005157856E+02 0.  0.
         23    2    4    4    0    0 -0.47170248131E+03  0.31754322914E+03  0.92345806186E+03  0.10889856364E+04  0.98883724482E+02 0.  0.
          1    1    3    3  502    0  0.15691170720E+03 -0.50229713147E+02  0.39500632233E+03  0.42798867113E+03  0.00000000000E+00 0. -1.
         -2    1    3    3    0  502  0.68182405943E+02 -0.41409805874E+02  0.90174735860E+02  0.12039557920E+03  0.00000000000E+00 0.  1.
         13    1    5    5    0    0  0.13043074799E+03 -0.17825670161E+03  0.43604609094E+03  0.48879834811E+03  0.00000000000E+00 0. -1.
        -13    1    5    5    0    0  0.11617762018E+03 -0.47647008504E+02  0.27747678669E+03  0.30456664952E+03  0.00000000000E+00 0.  1.
          3    1    6    6  503    0 -0.28397274529E+03  0.24646969838E+03  0.62145189796E+03  0.72635411045E+03  0.00000000000E+00 0. -1.
         -3    1    6    6    0  503 -0.18772973602E+03  0.71073530755E+02  0.30200616390E+03  0.36263152592E+03  0.00000000000E+00 0.  1.
<mgrwt>
<rscale>  0 0.11852850E+04</rscale>
<asrwt>0</asrwt>
<pdfrwt beam="1">  1        1 0.35022281E+00 0.11852850E+04</pdfrwt>
<pdfrwt beam="2">  1       -2 0.23736378E-01 0.11852850E+04</pdfrwt>
<totfact> 0.26587663E+01</totfact>
</mgrwt>
</event>
<event>
12    5  0.5029243E-008  0.1260789E+04  0.7818608E-02  0.9061251E-01
         -2   -1    0    0    0  501 -0.00000000000E+00  0.00000000000E+00  0.27044008879E+03  0.27044008879E+03  0.00000000000E+00 0.  1.
          1   -1    0    0  501    0  0.00000000000E+00 -0.00000000000E+00 -0.14694460367E+04  0.14694460367E+04  0.00000000000E+00 0. -1.
        -24    2    1    2    0    0 -0.18279443552E+03 -0.12592322272E+03 -0.47311671123E+01  0.23623149816E+03  0.80699895324E+02 0.  0.
        254    2    1    2    0    0  0.18279443552E+03  0.12592322272E+03 -0.11942747808E+04  0.15036546273E+04  0.88623615506E+03 0.  0.
         23    2    4    4    0    0  0.28601240298E+03  0.91201663258E+02 -0.12936648215E+04  0.13311687391E+04  0.91217890856E+02 0.  0.
         23    2    4    4    0    0 -0.10321796747E+03  0.34721559460E+02  0.99390040695E+02  0.17248588820E+03  0.89517964336E+02 0.  0.
          3    1    3    3  502    0 -0.14936831252E+03 -0.90616968052E+02  0.28945440474E+02  0.17708801825E+03  0.00000000000E+00 0. -1.
         -4    1    3    3    0  502 -0.33426122995E+02 -0.35306254666E+02 -0.33676607587E+02  0.59143479908E+02  0.00000000000E+00 0.  1.
         13    1    5    5    0    0  0.28222496581E+03  0.68474368140E+02 -0.11822828741E+04  0.12174286282E+04  0.00000000000E+00 0. -1.
        -13    1    5    5    0    0  0.37874371775E+01  0.22727295118E+02 -0.11138194741E+03  0.11374011092E+03  0.00000000000E+00 0.  1.
          2    1    6    6  503    0 -0.53229313130E+02  0.16399527944E+02  0.10509321004E+03  0.11894068728E+03  0.00000000000E+00 0. -1.
         -2    1    6    6    0  503 -0.49988654337E+02  0.18322031516E+02 -0.57031693446E+01  0.53545200923E+02  0.00000000000E+00 0.  1.
<mgrwt>
<rscale>  0 0.12607888E+04</rscale>
<asrwt>0</asrwt>
<pdfrwt beam="1">  1        1 0.22606862E+00 0.12607888E+04</pdfrwt>
<pdfrwt beam="2">  1       -2 0.41606168E-01 0.12607888E+04</pdfrwt>
<totfact> 0.32505003E+01</totfact>
</mgrwt>
</event>
<event>
12    5  0.5029243E-008  0.1813111E+04  0.7818608E-02  0.8699358E-01
          1   -1    0    0  501    0  0.00000000000E+00  0.00000000000E+00  0.21830406265E+04  0.21830406265E+04  0.00000000000E+00 0. -1.
         -2   -1    0    0    0  501 -0.00000000000E+00 -0.00000000000E+00 -0.37646699093E+03  0.37646699093E+03  0.00000000000E+00 0.  1.
        -24    2    1    2    0    0  0.40822886220E+03  0.29573036197E+01 -0.96520459615E+02  0.42730411085E+03  0.81320688943E+02 0.  0.
        254    2    1    2    0    0 -0.40822886220E+03 -0.29573036197E+01  0.19030940952E+04  0.21322035066E+04  0.87055448351E+03 0.  0.
         23    2    4    4    0    0 -0.55498749711E+03 -0.32890336891E+01  0.61854170503E+03  0.83598775262E+03  0.90883122565E+02 0.  0.
         23    2    4    4    0    0  0.14675863491E+03  0.33173006940E+00  0.12845523901E+04  0.12962157539E+04  0.92532323095E+02 0.  0.
          3    1    3    3  502    0  0.21592120594E+02  0.51342291465E+01  0.12647748747E+02  0.25544970720E+02  0.00000000000E+00 0. -1.
         -4    1    3    3    0  502  0.38663674160E+03 -0.21769255268E+01 -0.10916820836E+03  0.40175914013E+03  0.00000000000E+00 0.  1.
         13    1    5    5    0    0 -0.54003765612E+03  0.13080198029E+02  0.59565437335E+03  0.80412430264E+03  0.00000000000E+00 0. -1.
        -13    1    5    5    0    0 -0.14949840989E+02 -0.16369231718E+02  0.22887331689E+02  0.31863449977E+02  0.00000000000E+00 0.  1.
          2    1    6    6  503    0  0.15904141940E+03 -0.33214288201E+01  0.12260229921E+04  0.12362999564E+04  0.00000000000E+00 0. -1.
         -2    1    6    6    0  503 -0.12282784487E+02  0.36531588895E+01  0.58529398044E+02  0.59915797583E+02  0.00000000000E+00 0.  1.
<mgrwt>
<rscale>  0 0.18131108E+04</rscale>
<asrwt>0</asrwt>
<pdfrwt beam="1">  1        1 0.33585240E+00 0.18131108E+04</pdfrwt>
<pdfrwt beam="2">  1       -2 0.57918000E-01 0.18131108E+04</pdfrwt>
<totfact> 0.51691032E+00</totfact>
</mgrwt>
</event>
<event>
12    5  0.5029243E-008  0.1364329E+04  0.7818608E-02  0.8980051E-01
         -2   -1    0    0    0  501 -0.00000000000E+00  0.00000000000E+00  0.36492500278E+03  0.36492500278E+03  0.00000000000E+00 0.  1.
          1   -1    0    0  501    0  0.00000000000E+00 -0.00000000000E+00 -0.12751896410E+04  0.12751896410E+04  0.00000000000E+00 0. -1.
        -24    2    1    2    0    0 -0.11542710889E+03  0.31134387571E+03 -0.48431252861E+03  0.59257232307E+03  0.79529279422E+02 0.  0.
        254    2    1    2    0    0  0.11542710889E+03 -0.31134387571E+03 -0.42595210958E+03  0.10475423207E+04  0.89758079724E+03 0.  0.
         23    2    4    4    0    0  0.16171157039E+02 -0.12282062553E+02 -0.64598679344E+03  0.65269952222E+03  0.91133822640E+02 0.  0.
         23    2    4    4    0    0  0.99255951850E+02 -0.29906181316E+03  0.22003468385E+03  0.39484279848E+03  0.90530996599E+02 0.  0.
          1    1    3    3  502    0 -0.70776087674E+02  0.26304703446E+03 -0.41984494588E+03  0.50047255220E+03  0.00000000000E+00 0. -1.
         -2    1    3    3    0  502 -0.44651021216E+02  0.48296841248E+02 -0.64467582731E+02  0.92099770865E+02  0.00000000000E+00 0.  1.
         13    1    5    5    0    0  0.48631422367E+02 -0.28679463022E+02 -0.42643838264E+03  0.43015952974E+03  0.00000000000E+00 0. -1.
        -13    1    5    5    0    0 -0.32460265328E+02  0.16397400469E+02 -0.21954841080E+03  0.22253999247E+03  0.00000000000E+00 0.  1.
          2    1    6    6  503    0  0.42243800631E+02 -0.24684884158E+03  0.17232241545E+03  0.30399655285E+03  0.00000000000E+00 0. -1.
         -2    1    6    6    0  503  0.57012151220E+02 -0.52212971574E+02  0.47712268407E+02  0.90846245624E+02  0.00000000000E+00 0.  1.
<mgrwt>
<rscale>  0 0.13643293E+04</rscale>
<asrwt>0</asrwt>
<pdfrwt beam="1">  1        1 0.19618302E+00 0.13643293E+04</pdfrwt>
<pdfrwt beam="2">  1       -2 0.56142307E-01 0.13643293E+04</pdfrwt>
<totfact> 0.24072658E+01</totfact>
</mgrwt>
</event>
<event>
12    5  0.5029243E-008  0.1646686E+04  0.7818608E-02  0.8792370E-01
         -2   -1    0    0    0  501 -0.00000000000E+00  0.00000000000E+00  0.58726402947E+03  0.58726402947E+03  0.00000000000E+00 0.  1.
          1   -1    0    0  501    0  0.00000000000E+00 -0.00000000000E+00 -0.11543248692E+04  0.11543248692E+04  0.00000000000E+00 0. -1.
        -24    2    1    2    0    0  0.53430618424E+03 -0.14964263005E+03 -0.32877702228E+03  0.64966051340E+03  0.78028437414E+02 0.  0.
        254    2    1    2    0    0 -0.53430618424E+03  0.14964263005E+03 -0.23828381750E+03  0.10919283853E+04  0.90975403584E+03 0.  0.
         23    2    4    4    0    0 -0.57149256901E+02  0.47068842775E+03 -0.88139000682E+02  0.49085652472E+03  0.91422157246E+02 0.  0.
         23    2    4    4    0    0 -0.47715692734E+03 -0.32104579770E+03 -0.15014481682E+03  0.60107186060E+03  0.89413522812E+02 0.  0.
          3    1    3    3  502    0  0.52709771697E+03 -0.14892292314E+03 -0.33325246261E+03  0.64114525976E+03  0.00000000000E+00 0. -1.
         -4    1    3    3    0  502  0.72084672695E+01 -0.71970690897E+00  0.44754403325E+01  0.85152536415E+01  0.00000000000E+00 0.  1.
         13    1    5    5    0    0 -0.67147548455E+02  0.46006874135E+03 -0.95297311098E+02  0.47460891008E+03  0.00000000000E+00 0. -1.
        -13    1    5    5    0    0  0.99982915539E+01  0.10619686400E+02  0.71583104156E+01  0.16247614632E+02  0.00000000000E+00 0.  1.
          4    1    6    6  503    0 -0.18553514976E+03 -0.16901290359E+03 -0.90750858409E+02  0.26687894574E+03  0.00000000000E+00 0. -1.
         -4    1    6    6    0  503 -0.29162177758E+03 -0.15203289411E+03 -0.59393958412E+02  0.33419291486E+03  0.00000000000E+00 0.  1.
<mgrwt>
<rscale>  0 0.16466857E+04</rscale>
<asrwt>0</asrwt>
<pdfrwt beam="1">  1        1 0.17758844E+00 0.16466857E+04</pdfrwt>
<pdfrwt beam="2">  1       -2 0.90348314E-01 0.16466857E+04</pdfrwt>
<totfact> 0.10138525E+01</totfact>
</mgrwt>
</event>
<event>
12    5  0.5029243E-008  0.2028707E+04  0.7818608E-02  0.8593316E-01
         -2   -1    0    0    0  501 -0.00000000000E+00  0.00000000000E+00  0.44894777863E+03  0.44894777863E+03  0.00000000000E+00 0.  1.
          1   -1    0    0  501    0  0.00000000000E+00 -0.00000000000E+00 -0.22918325339E+04  0.22918325339E+04  0.00000000000E+00 0. -1.
        -24    2    1    2    0    0  0.31768793442E+03 -0.51306490116E+03 -0.36149666603E+01  0.60860674073E+03  0.78916920854E+02 0.  0.
        254    2    1    2    0    0 -0.31768793442E+03  0.51306490116E+03 -0.18392697887E+04  0.21321735719E+04  0.89391809945E+03 0.  0.
         23    2    4    4    0    0 -0.42026461361E+03 -0.10261604944E+03 -0.86711007224E+03  0.97338089756E+03  0.91859105607E+02 0.  0.
         23    2    4    4    0    0  0.10257667919E+03  0.61568095060E+03 -0.97215971642E+03  0.11587926743E+04  0.90116256764E+02 0.  0.
          1    1    3    3  502    0  0.84765138874E+02 -0.12363248166E+03 -0.34376054897E+02  0.15379152265E+03  0.00000000000E+00 0. -1.
         -2    1    3    3    0  502  0.23292279555E+03 -0.38943241950E+03  0.30761088237E+02  0.45481521808E+03  0.00000000000E+00 0.  1.
         13    1    5    5    0    0 -0.29964101374E+03 -0.96769317726E+02 -0.69633804664E+03  0.76422229304E+03  0.00000000000E+00 0.  1.
        -13    1    5    5    0    0 -0.12062359987E+03 -0.58467317113E+01 -0.17077202560E+03  0.20915860452E+03  0.00000000000E+00 0. -1.
          2    1    6    6  503    0  0.28958651317E+02  0.17991933937E+03 -0.36338691166E+03  0.40652136442E+03  0.00000000000E+00 0. -1.
         -2    1    6    6    0  503  0.73618027872E+02  0.43576161123E+03 -0.60877280476E+03  0.75227130988E+03  0.00000000000E+00 0.  1.
<mgrwt>
<rscale>  0 0.20287071E+04</rscale>
<asrwt>0</asrwt>
<pdfrwt beam="1">  1        1 0.35258961E+00 0.20287071E+04</pdfrwt>
<pdfrwt beam="2">  1       -2 0.69068891E-01 0.20287071E+04</pdfrwt>
<totfact> 0.29337185E+00</totfact>
</mgrwt>
</event>
<event>
12    5  0.5029243E-008  0.1213914E+04  0.7818608E-02  0.9100764E-01
         -2   -1    0    0    0  501 -0.00000000000E+00  0.00000000000E+00  0.37552798592E+03  0.37552798592E+03  0.00000000000E+00 0.  1.
          1   -1    0    0  501    0  0.00000000000E+00 -0.00000000000E+00 -0.98101072256E+03  0.98101072256E+03  0.00000000000E+00 0. -1.
        -24    2    1    2    0    0  0.20855147965E+00  0.82632005088E+02 -0.40437911046E+03  0.41945956777E+03  0.74804894631E+02 0.  0.
        254    2    1    2    0    0 -0.20855147965E+00 -0.82632005088E+02 -0.20110362618E+03  0.93707914071E+03  0.91150784732E+03 0.  0.
         23    2    4    4    0    0  0.15226299231E+03 -0.44770393618E+03 -0.22196838027E+03  0.53035467018E+03  0.91560259095E+02 0.  0.
         23    2    4    4    0    0 -0.15247154379E+03  0.36507193109E+03  0.20864754091E+02  0.40672447053E+03  0.92002013189E+02 0.  0.
          3    1    3    3  502    0 -0.41123127107E+01  0.78757003577E+02 -0.40587501738E+03  0.41346596772E+03  0.00000000000E+00 0. -1.
         -4    1    3    3    0  502  0.43208641904E+01  0.38750015107E+01  0.14959069221E+01  0.59936000517E+01  0.00000000000E+00 0.  1.
         13    1    5    5    0    0 -0.69083212692E+01 -0.11343997553E+02 -0.19656198451E+02  0.23722928167E+02  0.00000000000E+00 0. -1.
        -13    1    5    5    0    0  0.15917131358E+03 -0.43635993862E+03 -0.20231218182E+03  0.50663174201E+03  0.00000000000E+00 0.  1.
          3    1    6    6  503    0 -0.26245872774E+02  0.44625719867E+02 -0.28010278107E+02  0.58863200652E+02  0.00000000000E+00 0. -1.
         -3    1    6    6    0  503 -0.12622567102E+03  0.32044621122E+03  0.48875032198E+02  0.34786126988E+03  0.00000000000E+00 0.  1.
<mgrwt>
<rscale>  0 0.12139143E+04</rscale>
<asrwt>0</asrwt>
<pdfrwt beam="1">  1        1 0.15092473E+00 0.12139143E+04</pdfrwt>
<pdfrwt beam="2">  1       -2 0.57773536E-01 0.12139143E+04</pdfrwt>
<totfact> 0.38074475E+01</totfact>
</mgrwt>
</event>
<event>
12    5  0.5029243E-008  0.1947091E+04  0.7818608E-02  0.8631765E-01
         -2   -1    0    0    0  501 -0.00000000000E+00  0.00000000000E+00  0.38380359237E+03  0.38380359237E+03  0.00000000000E+00 0.  1.
          1   -1    0    0  501    0  0.00000000000E+00 -0.00000000000E+00 -0.24694690137E+04  0.24694690137E+04  0.00000000000E+00 0. -1.
        -24    2    1    2    0    0  0.53513373662E+03  0.36288399522E+03 -0.22535703740E+03  0.68927588181E+03  0.79136192020E+02 0.  0.
        254    2    1    2    0    0 -0.53513373662E+03 -0.36288399522E+03 -0.18603083840E+04  0.21639967243E+04  0.89670598819E+03 0.  0.
         23    2    4    4    0    0 -0.44472015657E+03  0.79429236281E+02 -0.15273090736E+04  0.15953750358E+04  0.91997158480E+02 0.  0.
         23    2    4    4    0    0 -0.90413580051E+02 -0.44231323150E+03 -0.33299931034E+03  0.56862168852E+03  0.92878812183E+02 0.  0.
          1    1    3    3  502    0  0.57493995019E+02  0.38262308596E+02 -0.51541914983E+02  0.86175012170E+02  0.00000000000E+00 0. -1.
         -2    1    3    3    0  502  0.47763974160E+03  0.32462168662E+03 -0.17381512242E+03  0.60310086964E+03  0.00000000000E+00 0.  1.
         13    1    5    5    0    0 -0.69137086359E+02  0.46927414247E+02 -0.24994310553E+03  0.26354065137E+03  0.00000000000E+00 0.  1.
        -13    1    5    5    0    0 -0.37558307021E+03  0.32501822034E+02 -0.12773659681E+04  0.13318343844E+04  0.00000000000E+00 0. -1.
          2    1    6    6  503    0 -0.34672552189E+02 -0.33250838440E+02 -0.36778347332E+02  0.60501660842E+02  0.00000000000E+00 0. -1.
         -2    1    6    6    0  503 -0.55741027862E+02 -0.40906239306E+03 -0.29622096301E+03  0.50812002768E+03  0.00000000000E+00 0.  1.
<mgrwt>
<rscale>  0 0.19470912E+04</rscale>
<asrwt>0</asrwt>
<pdfrwt beam="1">  1        1 0.37991829E+00 0.19470912E+04</pdfrwt>
<pdfrwt beam="2">  1       -2 0.59046709E-01 0.19470912E+04</pdfrwt>
<totfact> 0.31211790E+00</totfact>
</mgrwt>
</event>
<event>
12    5  0.5029243E-008  0.1766365E+04  0.7818608E-02  0.8724394E-01
         -2   -1    0    0    0  501 -0.00000000000E+00  0.00000000000E+00  0.36111407113E+03  0.36111407113E+03  0.00000000000E+00 0.  1.
          1   -1    0    0  501    0  0.00000000000E+00 -0.00000000000E+00 -0.21600136654E+04  0.21600136654E+04  0.00000000000E+00 0. -1.
        -24    2    1    2    0    0 -0.56130130329E+03  0.67966596026E+02 -0.20845023981E+03  0.60787481980E+03  0.79885435603E+02 0.  0.
        254    2    1    2    0    0  0.56130130329E+03 -0.67966596026E+02 -0.15904493545E+04  0.19132529168E+04  0.90073801020E+03 0.  0.
         23    2    4    4    0    0 -0.15786001230E+03  0.16779525494E+03 -0.69122185380E+03  0.73477769399E+03  0.95055653967E+02 0.  0.
         23    2    4    4    0    0  0.71916131559E+03 -0.23576185097E+03 -0.89922750070E+03  0.11784752228E+04  0.86122612935E+02 0.  0.
          3    1    3    3  502    0 -0.33003426825E+03  0.32581173821E+02 -0.16304595477E+03  0.36955126095E+03  0.00000000000E+00 0. -1.
         -4    1    3    3    0  502 -0.23126703504E+03  0.35385422205E+02 -0.45404285039E+02  0.23832355885E+03  0.00000000000E+00 0.  1.
         13    1    5    5    0    0 -0.17516170166E+02  0.79786256986E+02 -0.18766277175E+03  0.20467041535E+03  0.00000000000E+00 0. -1.
        -13    1    5    5    0    0 -0.14034384214E+03  0.88008997955E+02 -0.50355908205E+03  0.53010727863E+03  0.00000000000E+00 0.  1.
          4    1    6    6  503    0  0.13720592403E+03 -0.81400905458E+02 -0.19578685265E+03  0.25255507255E+03  0.00000000000E+00 0. -1.
         -4    1    6    6    0  503  0.58195539156E+03 -0.15436094551E+03 -0.70344064805E+03  0.92592015023E+03  0.00000000000E+00 0.  1.
<mgrwt>
<rscale>  0 0.17663650E+04</rscale>
<asrwt>0</asrwt>
<pdfrwt beam="1">  1        1 0.33230979E+00 0.17663650E+04</pdfrwt>
<pdfrwt beam="2">  1       -2 0.55556011E-01 0.17663650E+04</pdfrwt>
<totfact> 0.58709357E+00</totfact>
</mgrwt>
</event>
<event>
12    5  0.5029243E-008  0.4478913E+04  0.7818608E-02  0.7914339E-01
          1   -1    0    0  501    0  0.00000000000E+00  0.00000000000E+00  0.31929192880E+04  0.31929192880E+04  0.00000000000E+00 0. -1.
         -2   -1    0    0    0  501 -0.00000000000E+00 -0.00000000000E+00 -0.15707145129E+04  0.15707145129E+04  0.00000000000E+00 0.  1.
        -24    2    1    2    0    0  0.81236350829E+03  0.10875996208E+04  0.25603169482E+04  0.28991700143E+04  0.84596049733E+02 0.  0.
        254    2    1    2    0    0 -0.81236350829E+03 -0.10875996208E+04 -0.93811217312E+03  0.18644637866E+04  0.86796506702E+03 0.  0.
         23    2    4    4    0    0 -0.59392539539E+03 -0.84386310126E+03 -0.10800375171E+04  0.14964734889E+04  0.89997531847E+02 0.  0.
         23    2    4    4    0    0 -0.21843811290E+03 -0.24373651953E+03  0.14192534393E+03  0.36799029775E+03  0.90284859579E+02 0.  0.
          1    1    3    3  502    0  0.67651931714E+03  0.90952513536E+03  0.22014528897E+04  0.24761480537E+04  0.00000000000E+00 0. -1.
         -2    1    3    3    0  502  0.13584419115E+03  0.17807448542E+03  0.35886405850E+03  0.42302196055E+03  0.00000000000E+00 0.  1.
         13    1    5    5    0    0 -0.13608310665E+03 -0.13492912692E+03 -0.18667801800E+03  0.26753161236E+03  0.00000000000E+00 0.  1.
        -13    1    5    5    0    0 -0.45784228874E+03 -0.70893397434E+03 -0.89335949905E+03  0.12289418765E+04  0.00000000000E+00 0. -1.
          1    1    6    6  503    0 -0.12228839664E+03 -0.10089656551E+03  0.26608847241E+02  0.16075633622E+03  0.00000000000E+00 0. -1.
         -1    1    6    6    0  503 -0.96149716257E+02 -0.14283995402E+03  0.11531649669E+03  0.20723396153E+03  0.00000000000E+00 0.  1.
<mgrwt>
<rscale>  0 0.44789127E+04</rscale>
<asrwt>0</asrwt>
<pdfrwt beam="1">  1        1 0.49121835E+00 0.44789127E+04</pdfrwt>
<pdfrwt beam="2">  1       -2 0.24164839E+00 0.44789127E+04</pdfrwt>
<totfact> 0.20623834E-02</totfact>
</mgrwt>
</event>
<event>
12    5  0.5029243E-008  0.2250254E+04  0.7818608E-02  0.8497798E-01
          1   -1    0    0  501    0  0.00000000000E+00  0.00000000000E+00  0.24362688602E+04  0.24362688602E+04  0.00000000000E+00 0. -1.
         -2   -1    0    0    0  501 -0.00000000000E+00 -0.00000000000E+00 -0.51961023909E+03  0.51961023909E+03  0.00000000000E+00 0.  1.
        -24    2    1    2    0    0 -0.66965859094E+03 -0.64966838461E+03  0.62563198529E+03  0.11261359019E+04  0.79088874377E+02 0.  0.
        254    2    1    2    0    0  0.66965859094E+03  0.64966838461E+03  0.12910266358E+04  0.18297431974E+04  0.90038811398E+03 0.  0.
         23    2    4    4    0    0  0.11760669987E+03  0.31977951340E+02  0.89419435417E+03  0.90695245574E+03  0.90140383317E+02 0.  0.
         23    2    4    4    0    0  0.55205189106E+03  0.61769043327E+03  0.39683228162E+03  0.92279074168E+03  0.88114308833E+02 0.  0.
          3    1    3    3  502    0 -0.46166391209E+03 -0.41759440547E+03  0.45287257362E+03  0.76981310923E+03  0.00000000000E+00 0. -1.
         -2    1    3    3    0  502 -0.20799467884E+03 -0.23207397914E+03  0.17275941167E+03  0.35632279262E+03  0.00000000000E+00 0.  1.
         13    1    5    5    0    0 -0.51086439165E+01  0.11401874210E+02  0.28012523287E+03  0.28040372156E+03  0.00000000000E+00 0. -1.
        -13    1    5    5    0    0  0.12271534379E+03  0.20576077130E+02  0.61406912131E+03  0.62654873417E+03  0.00000000000E+00 0.  1.
          2    1    6    6  503    0  0.27253600065E+02  0.66651672660E+02  0.29596774525E+02  0.77853537153E+02  0.00000000000E+00 0. -1.
         -2    1    6    6    0  503  0.52479829100E+03  0.55103876061E+03  0.36723550710E+03  0.84493720453E+03  0.00000000000E+00 0.  1.
<mgrwt>
<rscale>  0 0.22502535E+04</rscale>
<asrwt>0</asrwt>
<pdfrwt beam="1">  1        1 0.37481059E+00 0.22502535E+04</pdfrwt>
<pdfrwt beam="2">  1       -2 0.79940038E-01 0.22502535E+04</pdfrwt>
<totfact> 0.16564141E+00</totfact>
</mgrwt>
</event>
<event>
12    5  0.5029243E-008  0.1502696E+04  0.7818608E-02  0.8882662E-01
          1   -1    0    0  501    0  0.00000000000E+00  0.00000000000E+00  0.95968623166E+03  0.95968623166E+03  0.00000000000E+00 0. -1.
         -2   -1    0    0    0  501 -0.00000000000E+00 -0.00000000000E+00 -0.58823787439E+03  0.58823787439E+03  0.00000000000E+00 0.  1.
        -24    2    1    2    0    0  0.29572473484E+02  0.44398482610E+03 -0.10165932717E+03  0.46332845695E+03  0.79634058228E+02 0.  0.
        254    2    1    2    0    0 -0.29572473484E+02 -0.44398482610E+03  0.47310768444E+03  0.10845956491E+04  0.86863098261E+03 0.  0.
         23    2    4    4    0    0  0.67037488645E+02  0.19930872031E+03 -0.61240629771E+02  0.23769012692E+03  0.92348204243E+02 0.  0.
         23    2    4    4    0    0 -0.96609962130E+02 -0.64329354640E+03  0.53434831421E+03  0.84690552217E+03  0.92524434373E+02 0.  0.
          1    1    3    3  502    0  0.37333424827E+02  0.23068935630E+03 -0.87103651785E+02  0.24939609033E+03  0.00000000000E+00 0. -1.
         -2    1    3    3    0  502 -0.77609513426E+01  0.21329546980E+03 -0.14555675387E+02  0.21393236662E+03  0.00000000000E+00 0.  1.
         13    1    5    5    0    0  0.88299361932E+02  0.13510436413E+03 -0.35044396809E+02  0.16516075887E+03  0.00000000000E+00 0.  1.
        -13    1    5    5    0    0 -0.21261873287E+02  0.64204356178E+02 -0.26196232962E+02  0.72529368047E+02  0.00000000000E+00 0. -1.
          2    1    6    6  503    0 -0.12640409085E+02 -0.55500214659E+02  0.84921145938E+02  0.10223333505E+03  0.00000000000E+00 0. -1.
         -2    1    6    6    0  503 -0.83969553044E+02 -0.58779333174E+03  0.44942716827E+03  0.74467218712E+03  0.00000000000E+00 0.  1.
<mgrwt>
<rscale>  0 0.15026960E+04</rscale>
<asrwt>0</asrwt>
<pdfrwt beam="1">  1        1 0.14764404E+00 0.15026960E+04</pdfrwt>
<pdfrwt beam="2">  1       -2 0.90498134E-01 0.15026960E+04</pdfrwt>
<totfact> 0.14403073E+01</totfact>
</mgrwt>
</event>
<event>
12    5  0.5029243E-008  0.1423207E+04  0.7818608E-02  0.8937189E-01
         -2   -1    0    0    0  501 -0.00000000000E+00  0.00000000000E+00  0.32218235336E+03  0.32218235336E+03  0.00000000000E+00 0.  1.
          1   -1    0    0  501    0  0.00000000000E+00 -0.00000000000E+00 -0.15717170437E+04  0.15717170437E+04  0.00000000000E+00 0. -1.
        -24    2    1    2    0    0 -0.29221343666E+03  0.30241375824E+03 -0.51706039320E+03  0.67123475644E+03  0.79761358396E+02 0.  0.
        254    2    1    2    0    0  0.29221343666E+03 -0.30241375824E+03 -0.73247429718E+03  0.12226646407E+04  0.88405172573E+03 0.  0.
         23    2    4    4    0    0 -0.12786332989E+02 -0.28121430320E+03  0.11669630648E+03  0.31578317821E+03  0.82801045051E+02 0.  0.
         23    2    4    4    0    0  0.30499976965E+03 -0.21199455046E+02 -0.84917060365E+03  0.90688146246E+03  0.88707364173E+02 0.  0.
          1    1    3    3  502    0 -0.25255178651E+03  0.24530142308E+03 -0.47012253884E+03  0.58734180386E+03  0.00000000000E+00 0. -1.
         -4    1    3    3    0  502 -0.39661650149E+02  0.57112335162E+02 -0.46937854359E+02  0.83892952576E+02  0.00000000000E+00 0.  1.
         13    1    5    5    0    0  0.19572385078E+02 -0.22069187491E+03  0.10839697937E+03  0.24665337429E+03  0.00000000000E+00 0.  1.
        -13    1    5    5    0    0 -0.32358718067E+02 -0.60522428284E+02  0.82993271102E+01  0.69129803926E+02  0.00000000000E+00 0. -1.
          2    1    6    6  503    0  0.99883692213E+02 -0.28236593883E+02 -0.19006766997E+03  0.21656356197E+03  0.00000000000E+00 0. -1.
         -2    1    6    6    0  503  0.20511607744E+03  0.70371388374E+01 -0.65910293369E+03  0.69031790049E+03  0.00000000000E+00 0.  1.
<mgrwt>
<rscale>  0 0.14232069E+04</rscale>
<asrwt>0</asrwt>
<pdfrwt beam="1">  1        1 0.24180262E+00 0.14232069E+04</pdfrwt>
<pdfrwt beam="2">  1       -2 0.49566516E-01 0.14232069E+04</pdfrwt>
<totfact> 0.19200890E+01</totfact>
</mgrwt>
</event>
<event>
12    5  0.5029243E-008  0.2748169E+04  0.7818608E-02  0.8319543E-01
         -2   -1    0    0    0  501 -0.00000000000E+00  0.00000000000E+00  0.82885384428E+03  0.82885384428E+03  0.00000000000E+00 0.  1.
          1   -1    0    0  501    0  0.00000000000E+00 -0.00000000000E+00 -0.22779754202E+04  0.22779754202E+04  0.00000000000E+00 0. -1.
        -24    2    1    2    0    0 -0.58024319818E+03  0.24032428328E+03  0.54529409566E+03  0.83553104719E+03  0.79552183422E+02 0.  0.
        254    2    1    2    0    0  0.58024319818E+03 -0.24032428328E+03 -0.19944156716E+04  0.22712982173E+04  0.88694069175E+03 0.  0.
         23    2    4    4    0    0  0.15806380352E+03 -0.18177698273E+03 -0.17533258531E+04  0.17721672853E+04  0.91642251903E+02 0.  0.
         23    2    4    4    0    0  0.42217939466E+03 -0.58547300555E+02 -0.24108981847E+03  0.49913093203E+03  0.96665190535E+02 0.  0.
          1    1    3    3  502    0 -0.22634484123E+02  0.11027692708E+02  0.47141203103E+02  0.53443642353E+02  0.00000000000E+00 0. -1.
         -2    1    3    3    0  502 -0.55760871406E+03  0.22929659057E+03  0.49815289255E+03  0.78208740483E+03  0.00000000000E+00 0.  1.
         13    1    5    5    0    0  0.31176976414E+02 -0.80192321671E+02 -0.40222181166E+03  0.41132128329E+03  0.00000000000E+00 0.  1.
        -13    1    5    5    0    0  0.12688682711E+03 -0.10158466105E+03 -0.13511040415E+04  0.13608460020E+04  0.00000000000E+00 0. -1.
          4    1    6    6  503    0  0.38274009186E+03 -0.73519472649E+02 -0.19218704727E+03  0.43454683512E+03  0.00000000000E+00 0. -1.
         -4    1    6    6    0  503  0.39439302802E+02  0.14972172094E+02 -0.48902771199E+02  0.64584096910E+02  0.00000000000E+00 0.  1.
<mgrwt>
<rscale>  0 0.27481693E+04</rscale>
<asrwt>0</asrwt>
<pdfrwt beam="1">  1        1 0.35045776E+00 0.27481693E+04</pdfrwt>
<pdfrwt beam="2">  1       -2 0.12751598E+00 0.27481693E+04</pdfrwt>
<totfact> 0.67175309E-01</totfact>
</mgrwt>
</event>
<event>
12    5  0.5029243E-008  0.1378437E+04  0.7818608E-02  0.8969577E-01
         -2   -1    0    0    0  501 -0.00000000000E+00  0.00000000000E+00  0.61032971714E+03  0.61032971714E+03  0.00000000000E+00 0.  1.
          1   -1    0    0  501    0  0.00000000000E+00 -0.00000000000E+00 -0.77830359685E+03  0.77830359685E+03  0.00000000000E+00 0. -1.
        -24    2    1    2    0    0 -0.22634999045E+03  0.18805660535E+03  0.20559133720E+03  0.36781971229E+03  0.80149471781E+02 0.  0.
        254    2    1    2    0    0  0.22634999045E+03 -0.18805660535E+03 -0.37356521691E+03  0.10208136017E+04  0.90327727367E+03 0.  0.
         23    2    4    4    0    0 -0.13910748340E+03 -0.33108949729E+03 -0.47640144652E+03  0.60479641491E+03  0.99243226960E+02 0.  0.
         23    2    4    4    0    0  0.36545747386E+03  0.14303289194E+03  0.10283622960E+03  0.41601718679E+03  0.92072993918E+02 0.  0.
          1    1    3    3  502    0  0.38798343418E+01 -0.36061587903E+01  0.22277930857E+01  0.57463516925E+01  0.00000000000E+00 0. -1.
         -2    1    3    3    0  502 -0.23022982479E+03  0.19166276414E+03  0.20336354411E+03  0.36207336060E+03  0.00000000000E+00 0.  1.
         13    1    5    5    0    0 -0.64582085944E+02 -0.70048058312E+02 -0.80336829798E+02  0.12462576989E+03  0.00000000000E+00 0. -1.
        -13    1    5    5    0    0 -0.74525397459E+02 -0.26104143897E+03 -0.39606461672E+03  0.48017064503E+03  0.00000000000E+00 0.  1.
          2    1    6    6  503    0  0.26206495291E+03  0.91576192817E+02  0.29399649860E+02  0.27915690578E+03  0.00000000000E+00 0.  1.
         -2    1    6    6    0  503  0.10339252095E+03  0.51456699122E+02  0.73436579744E+02  0.13686028101E+03  0.00000000000E+00 0. -1.
<mgrwt>
<rscale>  0 0.13784365E+04</rscale>
<asrwt>0</asrwt>
<pdfrwt beam="1">  1        1 0.11973902E+00 0.13784365E+04</pdfrwt>
<pdfrwt beam="2">  1       -2 0.93896879E-01 0.13784365E+04</pdfrwt>
<totfact> 0.18933642E+01</totfact>
</mgrwt>
</event>
<event>
12    5  0.5029243E-008  0.1505253E+04  0.7818608E-02  0.8880967E-01
         -2   -1    0    0    0  501 -0.00000000000E+00  0.00000000000E+00  0.10387251256E+03  0.10387251256E+03  0.00000000000E+00 0.  1.
          1   -1    0    0  501    0  0.00000000000E+00 -0.00000000000E+00 -0.54532857498E+04  0.54532857498E+04  0.00000000000E+00 0. -1.
        -24    2    1    2    0    0 -0.37194957368E+03 -0.60640647203E+02 -0.28040560631E+04  0.28304028532E+04  0.80163162765E+02 0.  0.
        254    2    1    2    0    0  0.37194957368E+03  0.60640647203E+02 -0.25453571741E+04  0.27267554092E+04  0.90240132103E+03 0.  0.
         23    2    4    4    0    0  0.61660214085E+03 -0.91602096248E+02 -0.12921987228E+04  0.14376449360E+04  0.91958026926E+02 0.  0.
         23    2    4    4    0    0 -0.24465256717E+03  0.15224274345E+03 -0.12531584513E+04  0.12891104732E+04  0.91471177657E+02 0.  0.
          3    1    3    3  502    0 -0.34452556257E+03 -0.70816104787E+02 -0.24467928972E+04  0.24719442279E+04  0.00000000000E+00 0. -1.
         -4    1    3    3    0  502 -0.27424011112E+02  0.10175457584E+02 -0.35726316591E+03  0.35845862528E+03  0.00000000000E+00 0.  1.
         13    1    5    5    0    0  0.47078399388E+03 -0.10594355003E+03 -0.95523185851E+03  0.10702006859E+04  0.00000000000E+00 0. -1.
        -13    1    5    5    0    0  0.14581814697E+03  0.14341453781E+02 -0.33696686427E+03  0.36744425006E+03  0.00000000000E+00 0.  1.
          3    1    6    6  503    0 -0.23995316059E+03  0.16332108011E+03 -0.12066679263E+04  0.12410877402E+04  0.00000000000E+00 0. -1.
         -3    1    6    6    0  503 -0.46994065750E+01 -0.11078336662E+02 -0.46490525031E+02  0.48022732982E+02  0.00000000000E+00 0.  1.
<mgrwt>
<rscale>  0 0.15052528E+04</rscale>
<asrwt>0</asrwt>
<pdfrwt beam="1">  1        1 0.83896726E+00 0.15052528E+04</pdfrwt>
<pdfrwt beam="2">  1       -2 0.15980382E-01 0.15052528E+04</pdfrwt>
<totfact> 0.52350172E-02</totfact>
</mgrwt>
</event>
<event>
12    5  0.5029243E-008  0.1123370E+04  0.7818608E-02  0.9182709E-01
          1   -1    0    0  501    0  0.00000000000E+00  0.00000000000E+00  0.14749720840E+04  0.14749720840E+04  0.00000000000E+00 0. -1.
         -2   -1    0    0    0  501 -0.00000000000E+00 -0.00000000000E+00 -0.21389541009E+03  0.21389541009E+03  0.00000000000E+00 0.  1.
        -24    2    1    2    0    0  0.95534634355E+02 -0.78987753515E+01  0.26029245601E+03  0.28847444103E+03  0.79221736025E+02 0.  0.
        254    2    1    2    0    0 -0.95534634355E+02  0.78987753515E+01  0.10007842179E+04  0.14003930531E+04  0.97485506373E+03 0.  0.
         23    2    4    4    0    0 -0.40224858491E+03 -0.13256234081E+03  0.95321531994E+03  0.10472027022E+04  0.92937371476E+02 0.  0.
         23    2    4    4    0    0  0.30671395055E+03  0.14046111616E+03  0.47568897993E+02  0.35319035092E+03  0.93154985440E+02 0.  0.
          3    1    3    3  502    0  0.63637738948E+02 -0.89177305977E+01  0.24462223232E+03  0.25292157734E+03  0.00000000000E+00 0. -1.
         -4    1    3    3    0  502  0.31896895408E+02  0.10189552462E+01  0.15670223693E+02  0.35552863697E+02  0.00000000000E+00 0.  1.
         13    1    5    5    0    0 -0.20965470671E+03 -0.90937576918E+02  0.41049038729E+03  0.46981602463E+03  0.00000000000E+00 0. -1.
        -13    1    5    5    0    0 -0.19259387819E+03 -0.41624763888E+02  0.54272493265E+03  0.57738667754E+03  0.00000000000E+00 0.  1.
          3    1    6    6  503    0  0.51425686793E+02  0.28937255630E+02  0.45639651201E+02  0.74598550839E+02  0.00000000000E+00 0. -1.
         -3    1    6    6    0  503  0.25528826376E+03  0.11152386053E+03  0.19292467922E+01  0.27859180008E+03  0.00000000000E+00 0.  1.
<mgrwt>
<rscale>  0 0.11233695E+04</rscale>
<asrwt>0</asrwt>
<pdfrwt beam="1">  1        1 0.22691878E+00 0.11233695E+04</pdfrwt>
<pdfrwt beam="2">  1       -2 0.32906987E-01 0.11233695E+04</pdfrwt>
<totfact> 0.51209248E+01</totfact>
</mgrwt>
</event>
<event>
12    5  0.5029243E-008  0.2806736E+04  0.7818608E-02  0.8301180E-01
         -2   -1    0    0    0  501 -0.00000000000E+00  0.00000000000E+00  0.84945892706E+03  0.84945892706E+03  0.00000000000E+00 0.  1.
          1   -1    0    0  501    0  0.00000000000E+00 -0.00000000000E+00 -0.23184666532E+04  0.23184666532E+04  0.00000000000E+00 0. -1.
        -24    2    1    2    0    0 -0.12490272239E+04 -0.13806188805E+03 -0.60853914972E+03  0.13985482630E+04  0.80543505319E+02 0.  0.
        254    2    1    2    0    0  0.12490272239E+04  0.13806188805E+03 -0.86046857644E+03  0.17693773173E+04  0.90064411883E+03 0.  0.
         23    2    4    4    0    0 -0.99021694280E+02 -0.10774714079E+03 -0.99324156078E+02  0.19942765399E+03  0.92148569766E+02 0.  0.
         23    2    4    4    0    0  0.13480489182E+04  0.24580902884E+03 -0.76114442036E+03  0.15699496633E+04  0.87995181845E+02 0.  0.
          1    1    3    3  502    0 -0.44678570058E+03 -0.41131022339E+02 -0.17570827713E+03  0.48185331989E+03  0.00000000000E+00 0. -1.
         -2    1    3    3    0  502 -0.80224152334E+03 -0.96930865709E+02 -0.43283087259E+03  0.91669494313E+03  0.00000000000E+00 0.  1.
         13    1    5    5    0    0 -0.35255475057E+02 -0.30565449130E+02  0.13514065634E+02  0.48578031784E+02  0.00000000000E+00 0.  1.
        -13    1    5    5    0    0 -0.63766219223E+02 -0.77181691664E+02 -0.11283822171E+03  0.15084962221E+03  0.00000000000E+00 0. -1.
          3    1    6    6  503    0  0.85155513416E+03  0.12183211499E+03 -0.44622485187E+03  0.96907472838E+03  0.00000000000E+00 0. -1.
         -3    1    6    6    0  503  0.49649378404E+03  0.12397691385E+03 -0.31491956849E+03  0.60087493488E+03  0.00000000000E+00 0.  1.
<mgrwt>
<rscale>  0 0.28067363E+04</rscale>
<asrwt>0</asrwt>
<pdfrwt beam="1">  1        1 0.35668718E+00 0.28067363E+04</pdfrwt>
<pdfrwt beam="2">  1       -2 0.13068599E+00 0.28067363E+04</pdfrwt>
<totfact> 0.58929819E-01</totfact>
</mgrwt>
</event>
<event>
12    5  0.5029243E-008  0.3024404E+04  0.7818608E-02  0.8236796E-01
         -2   -1    0    0    0  501 -0.00000000000E+00  0.00000000000E+00  0.70020403238E+03  0.70020403238E+03  0.00000000000E+00 0.  1.
          1   -1    0    0  501    0  0.00000000000E+00 -0.00000000000E+00 -0.32658406640E+04  0.32658406640E+04  0.00000000000E+00 0. -1.
        -24    2    1    2    0    0  0.34513571437E+03 -0.27323714863E+03  0.54119022408E+03  0.70238729503E+03  0.81754833825E+02 0.  0.
        254    2    1    2    0    0 -0.34513571437E+03  0.27323714863E+03 -0.31068268557E+04  0.32636574013E+04  0.89739028376E+03 0.  0.
         23    2    4    4    0    0  0.86070693459E+02  0.23716199617E+03 -0.24913568044E+04  0.25058551454E+04  0.93793954613E+02 0.  0.
         23    2    4    4    0    0 -0.43120640783E+03  0.36075152459E+02 -0.61547005125E+03  0.75780225596E+03  0.90666930966E+02 0.  0.
          1    1    3    3  502    0  0.90264733503E+02 -0.35855167220E+02  0.90092909291E+02  0.13247659203E+03  0.00000000000E+00 0. -1.
         -2    1    3    3    0  502  0.25487098087E+03 -0.23738198141E+03  0.45109731479E+03  0.56991070300E+03  0.00000000000E+00 0.  1.
         13    1    5    5    0    0  0.50776685060E+02  0.18571102771E+03 -0.14639551434E+04  0.14765607064E+04  0.00000000000E+00 0.  1.
        -13    1    5    5    0    0  0.35294008399E+02  0.51450968463E+02 -0.10274016610E+04  0.10292944390E+04  0.00000000000E+00 0. -1.
          2    1    6    6  503    0 -0.35022137346E+03  0.44341376424E+02 -0.54901196320E+03  0.65271379932E+03  0.00000000000E+00 0.  1.
         -2    1    6    6    0  503 -0.80985034370E+02 -0.82662239649E+01 -0.66458088051E+02  0.10508845664E+03  0.00000000000E+00 0. -1.
<mgrwt>
<rscale>  0 0.30244039E+04</rscale>
<asrwt>0</asrwt>
<pdfrwt beam="1">  1        1 0.50243702E+00 0.30244039E+04</pdfrwt>
<pdfrwt beam="2">  1       -2 0.10772370E+00 0.30244039E+04</pdfrwt>
<totfact> 0.19571297E-01</totfact>
</mgrwt>
</event>
<event>
12    5  0.5029243E-008  0.3893518E+04  0.7818608E-02  0.8026379E-01
         -2   -1    0    0    0  501 -0.00000000000E+00  0.00000000000E+00  0.10174631215E+04  0.10174631215E+04  0.00000000000E+00 0.  1.
          1   -1    0    0  501    0  0.00000000000E+00 -0.00000000000E+00 -0.37248236774E+04  0.37248236774E+04  0.00000000000E+00 0. -1.
        -24    2    1    2    0    0 -0.76807962344E+03  0.15083027467E+04 -0.40261323284E+03  0.17416530482E+04  0.79589204262E+02 0.  0.
        254    2    1    2    0    0  0.76807962344E+03 -0.15083027467E+04 -0.23047473230E+04  0.30006337506E+04  0.90940595926E+03 0.  0.
         23    2    4    4    0    0  0.23887354195E+03 -0.66774885738E+03 -0.16741694033E+04  0.18205348117E+04  0.92491644987E+02 0.  0.
         23    2    4    4    0    0  0.52920608150E+03 -0.84055388930E+03 -0.63057791979E+03  0.11800989389E+04  0.91733718547E+02 0.  0.
          1    1    3    3  502    0 -0.54069474309E+02  0.15655668212E+03 -0.45377879426E+02  0.17173425607E+03  0.00000000000E+00 0. -1.
         -2    1    3    3    0  502 -0.71401014914E+03  0.13517460646E+04 -0.35723535342E+03  0.15699187921E+04  0.00000000000E+00 0.  1.
         13    1    5    5    0    0  0.16116495473E+03 -0.31707268631E+03 -0.80531364896E+03  0.88036316611E+03  0.00000000000E+00 0.  1.
        -13    1    5    5    0    0  0.77708587219E+02 -0.35067617106E+03 -0.86885575429E+03  0.94017164563E+03  0.00000000000E+00 0. -1.
          1    1    6    6  503    0  0.14941309545E+03 -0.25931731190E+03 -0.23876874467E+03  0.38285800863E+03  0.00000000000E+00 0. -1.
         -1    1    6    6    0  503  0.37979298605E+03 -0.58123657741E+03 -0.39180917511E+03  0.79724093025E+03  0.00000000000E+00 0.  1.
<mgrwt>
<rscale>  0 0.38935181E+04</rscale>
<asrwt>0</asrwt>
<pdfrwt beam="1">  1        1 0.57304980E+00 0.38935181E+04</pdfrwt>
<pdfrwt beam="2">  1       -2 0.15653279E+00 0.38935181E+04</pdfrwt>
<totfact> 0.30549054E-02</totfact>
</mgrwt>
</event>
<event>
12    5  0.5029243E-008  0.1628786E+04  0.7818608E-02  0.8803057E-01
         -2   -1    0    0    0  501 -0.00000000000E+00  0.00000000000E+00  0.22176412780E+03  0.22176412780E+03  0.00000000000E+00 0.  1.
          1   -1    0    0  501    0  0.00000000000E+00 -0.00000000000E+00 -0.29907252017E+04  0.29907252017E+04  0.00000000000E+00 0. -1.
        -24    2    1    2    0    0 -0.47300335593E+03  0.79572194620E+02 -0.15518098500E+04  0.16263416465E+04  0.82519281457E+02 0.  0.
        254    2    1    2    0    0  0.47300335593E+03 -0.79572194620E+02 -0.12171512239E+04  0.15861476830E+04  0.89685197299E+03 0.  0.
         23    2    4    4    0    0 -0.19315448906E+03 -0.34097036814E+02 -0.24512184653E+02  0.21616500221E+03  0.87493979344E+02 0.  0.
         23    2    4    4    0    0  0.66615784499E+03 -0.45475157806E+02 -0.11926390392E+04  0.13699826808E+04  0.92899963477E+02 0.  0.
          1    1    3    3  502    0 -0.40908739121E+03  0.88133742050E+02 -0.14049240991E+04  0.14659235227E+04  0.00000000000E+00 0. -1.
         -2    1    3    3    0  502 -0.63915964720E+02 -0.85615474299E+01 -0.14688575087E+03  0.16041812382E+03  0.00000000000E+00 0.  1.
         13    1    5    5    0    0 -0.11160225844E+03 -0.62619566977E+02 -0.81173895276E+01  0.12822701069E+03  0.00000000000E+00 0.  1.
        -13    1    5    5    0    0 -0.81552230623E+02  0.28522530163E+02 -0.16394795125E+02  0.87937991526E+02  0.00000000000E+00 0. -1.
          3    1    6    6  503    0  0.14431156684E+03 -0.11760954254E+02 -0.18696062459E+03  0.23647076672E+03  0.00000000000E+00 0. -1.
         -3    1    6    6    0  503  0.52184627815E+03 -0.33714203552E+02 -0.10056784147E+04  0.11335119140E+04  0.00000000000E+00 0.  1.
<mgrwt>
<rscale>  0 0.16287855E+04</rscale>
<asrwt>0</asrwt>
<pdfrwt beam="1">  1        1 0.46011155E+00 0.16287855E+04</pdfrwt>
<pdfrwt beam="2">  1       -2 0.34117560E-01 0.16287855E+04</pdfrwt>
<totfact> 0.41248522E+00</totfact>
</mgrwt>
</event>
<event>
12    5  0.5029243E-008  0.1867791E+04  0.7818608E-02  0.8671057E-01
         -2   -1    0    0    0  501 -0.00000000000E+00  0.00000000000E+00  0.52943059151E+03  0.52943059151E+03  0.00000000000E+00 0.  1.
          1   -1    0    0  501    0  0.00000000000E+00 -0.00000000000E+00 -0.16473560224E+04  0.16473560224E+04  0.00000000000E+00 0. -1.
        -24    2    1    2    0    0  0.17488081082E+03  0.30087555923E+03  0.29176995733E+03  0.46209005526E+03  0.85370434189E+02 0.  0.
        254    2    1    2    0    0 -0.17488081082E+03 -0.30087555923E+03 -0.14096953882E+04  0.17146965586E+04  0.91204923141E+03 0.  0.
         23    2    4    4    0    0 -0.50801162975E+03 -0.28793231945E+03 -0.11081875741E+04  0.12559698519E+04  0.91650057775E+02 0.  0.
         23    2    4    4    0    0  0.33313081893E+03 -0.12943239782E+02 -0.30150781409E+03  0.45872670666E+03  0.91539933752E+02 0.  0.
          1    1    3    3  502    0  0.22736850991E+02  0.89118371882E+02  0.42336069384E+02  0.10124915491E+03  0.00000000000E+00 0. -1.
         -2    1    3    3    0  502  0.15214395983E+03  0.21175718735E+03  0.24943388794E+03  0.36084090034E+03  0.00000000000E+00 0.  1.
         13    1    5    5    0    0 -0.50616740236E+03 -0.29241141319E+03 -0.10867481896E+04  0.12339900734E+04  0.00000000000E+00 0. -1.
        -13    1    5    5    0    0 -0.18442273924E+01  0.44790937394E+01 -0.21439384524E+02  0.21979778528E+02  0.00000000000E+00 0.  1.
          4    1    6    6  503    0  0.16993401564E+03  0.21809745508E+02 -0.10503265407E+03  0.20096042668E+03  0.00000000000E+00 0. -1.
         -4    1    6    6    0  503  0.16319680329E+03 -0.34752985290E+02 -0.19647516002E+03  0.25776627998E+03  0.00000000000E+00 0.  1.
<mgrwt>
<rscale>  0 0.18677909E+04</rscale>
<asrwt>0</asrwt>
<pdfrwt beam="1">  1        1 0.25343939E+00 0.18677909E+04</pdfrwt>
<pdfrwt beam="2">  1       -2 0.81450861E-01 0.18677909E+04</pdfrwt>
<totfact> 0.56599870E+00</totfact>
</mgrwt>
</event>
<event>
12    5  0.5029243E-008  0.1773397E+04  0.7818608E-02  0.8720576E-01
         -2   -1    0    0    0  501 -0.00000000000E+00  0.00000000000E+00  0.53978728982E+03  0.53978728982E+03  0.00000000000E+00 0.  1.
          1   -1    0    0  501    0  0.00000000000E+00 -0.00000000000E+00 -0.14565622494E+04  0.14565622494E+04  0.00000000000E+00 0. -1.
        -24    2    1    2    0    0  0.19663480399E+03  0.61525808404E+03 -0.31123818865E+03  0.72112100683E+03  0.77061925097E+02 0.  0.
        254    2    1    2    0    0 -0.19663480399E+03 -0.61525808404E+03 -0.60553677096E+03  0.12752285324E+04  0.91778280262E+03 0.  0.
         23    2    4    4    0    0 -0.53182662573E+03 -0.46195353677E+03 -0.24406129522E+03  0.75116238635E+03  0.91860681850E+02 0.  0.
         23    2    4    4    0    0  0.33519182175E+03 -0.15330454727E+03 -0.36147547574E+03  0.52406614607E+03  0.90138583928E+02 0.  0.
          3    1    3    3  502    0  0.12364681576E+03  0.37538692601E+03 -0.14848001783E+03  0.42219686754E+03  0.00000000000E+00 0. -1.
         -4    1    3    3    0  502  0.72987988231E+02  0.23987115803E+03 -0.16275817082E+03  0.29892413928E+03  0.00000000000E+00 0.  1.
         13    1    5    5    0    0 -0.47917046876E+03 -0.38304292697E+03 -0.19118651154E+03  0.64255622651E+03  0.00000000000E+00 0.  1.
        -13    1    5    5    0    0 -0.52656156976E+02 -0.78910609792E+02 -0.52874783680E+02  0.10860615984E+03  0.00000000000E+00 0. -1.
          3    1    6    6  503    0  0.69758678793E+02  0.55784711085E+01 -0.61754895999E+02  0.93333058380E+02  0.00000000000E+00 0. -1.
         -3    1    6    6    0  503  0.26543314295E+03 -0.15888301838E+03 -0.29972057974E+03  0.43073308769E+03  0.00000000000E+00 0.  1.
<mgrwt>
<rscale>  0 0.17733965E+04</rscale>
<asrwt>0</asrwt>
<pdfrwt beam="1">  1        1 0.22408650E+00 0.17733965E+04</pdfrwt>
<pdfrwt beam="2">  1       -2 0.83044200E-01 0.17733965E+04</pdfrwt>
<totfact> 0.73938871E+00</totfact>
</mgrwt>
</event>
<event>
12    5  0.5029243E-008  0.2163408E+04  0.7818608E-02  0.8533815E-01
          1   -1    0    0  501    0  0.00000000000E+00  0.00000000000E+00  0.25779078765E+04  0.25779078765E+04  0.00000000000E+00 0. -1.
         -2   -1    0    0    0  501 -0.00000000000E+00 -0.00000000000E+00 -0.45388900695E+03  0.45388900695E+03  0.00000000000E+00 0.  1.
        -24    2    1    2    0    0 -0.68861196908E+02  0.26249708693E+03  0.18638845011E+04  0.18852600137E+04  0.80581019316E+02 0.  0.
        254    2    1    2    0    0  0.68861196908E+02 -0.26249708693E+03  0.26013436846E+03  0.11465368698E+04  0.10831575689E+04 0.  0.
         23    2    4    4    0    0  0.32709445618E+03 -0.53064103838E+03 -0.80471095944E+02  0.63476836619E+03  0.88795194428E+02 0.  0.
         23    2    4    4    0    0 -0.25823325927E+03  0.26814395145E+03  0.34060546440E+03  0.51176850359E+03  0.85494584592E+02 0.  0.
          3    1    3    3  502    0 -0.41011801136E+02  0.23350889322E+03  0.17032971201E+04  0.17197178403E+04  0.00000000000E+00 0. -1.
         -4    1    3    3    0  502 -0.27849395772E+02  0.28988193718E+02  0.16058738105E+03  0.16554217339E+03  0.00000000000E+00 0.  1.
         13    1    5    5    0    0  0.31889927524E+03 -0.53269229419E+03 -0.76901011229E+02  0.62559698974E+03  0.00000000000E+00 0.  1.
        -13    1    5    5    0    0  0.81951809419E+01  0.20512558153E+01 -0.35700847157E+01  0.91713764489E+01  0.00000000000E+00 0. -1.
          1    1    6    6  503    0 -0.56987977351E+01  0.23011052798E+02  0.26799951322E+01  0.23857225749E+02  0.00000000000E+00 0. -1.
         -1    1    6    6    0  503 -0.25253446153E+03  0.24513289865E+03  0.33792546927E+03  0.48791127784E+03  0.00000000000E+00 0.  1.
<mgrwt>
<rscale>  0 0.21634085E+04</rscale>
<asrwt>0</asrwt>
<pdfrwt beam="1">  1        1 0.39660120E+00 0.21634085E+04</pdfrwt>
<pdfrwt beam="2">  1       -2 0.69829080E-01 0.21634085E+04</pdfrwt>
<totfact> 0.17962404E+00</totfact>
</mgrwt>
</event>
<event>
12    5  0.5029243E-008  0.2403064E+04  0.7818608E-02  0.8438357E-01
         -2   -1    0    0    0  501 -0.00000000000E+00  0.00000000000E+00  0.83392936788E+03  0.83392936788E+03  0.00000000000E+00 0.  1.
          1   -1    0    0  501    0  0.00000000000E+00 -0.00000000000E+00 -0.17311765805E+04  0.17311765805E+04  0.00000000000E+00 0. -1.
        -24    2    1    2    0    0  0.36091588388E+03  0.80310243640E+03 -0.96729675195E+03  0.13104984436E+04  0.80680641071E+02 0.  0.
        254    2    1    2    0    0 -0.36091588388E+03 -0.80310243640E+03  0.70049539336E+02  0.12546075047E+04  0.89101024369E+03 0.  0.
         23    2    4    4    0    0 -0.43679076912E+03 -0.45903622660E+02 -0.12097942381E+03  0.46424399258E+03  0.89404390850E+02 0.  0.
         23    2    4    4    0    0  0.75874885233E+02 -0.75719881374E+03  0.19102896314E+03  0.79036351215E+03  0.95264761743E+02 0.  0.
          1    1    3    3  502    0  0.29093385573E+03  0.56145934585E+03 -0.70536799773E+03  0.94732418826E+03  0.00000000000E+00 0. -1.
         -2    1    3    3    0  502  0.69982028158E+02  0.24164309056E+03 -0.26192875422E+03  0.36317425537E+03  0.00000000000E+00 0.  1.
         13    1    5    5    0    0 -0.70873493489E+02  0.12068890658E+02  0.71113995050E+01  0.72244599825E+02  0.00000000000E+00 0.  1.
        -13    1    5    5    0    0 -0.36591727563E+03 -0.57972513318E+02 -0.12809082331E+03  0.39199939276E+03  0.00000000000E+00 0. -1.
          2    1    6    6  503    0  0.98076646886E+02 -0.59796846201E+03  0.15832227012E+03  0.62629964988E+03  0.00000000000E+00 0. -1.
         -2    1    6    6    0  503 -0.22201761653E+02 -0.15923035173E+03  0.32706693022E+02  0.16406386227E+03  0.00000000000E+00 0.  1.
<mgrwt>
<rscale>  0 0.24030639E+04</rscale>
<asrwt>0</asrwt>
<pdfrwt beam="1">  1        1 0.26633485E+00 0.24030639E+04</pdfrwt>
<pdfrwt beam="2">  1       -2 0.12829683E+00 0.24030639E+04</pdfrwt>
<totfact> 0.16036316E+00</totfact>
</mgrwt>
</event>
<event>
12    5  0.5029243E-008  0.1253969E+04  0.7818608E-02  0.9066886E-01
          1   -1    0    0  501    0  0.00000000000E+00  0.00000000000E+00  0.17799740897E+04  0.17799740897E+04  0.00000000000E+00 0. -1.
         -2   -1    0    0    0  501 -0.00000000000E+00 -0.00000000000E+00 -0.22085133993E+03  0.22085133993E+03  0.00000000000E+00 0.  1.
        -24    2    1    2    0    0  0.33940692767E+02 -0.52991903035E+01  0.77934225561E+03  0.78427003450E+03  0.80777989587E+02 0.  0.
        254    2    1    2    0    0 -0.33940692767E+02  0.52991903035E+01  0.77978049411E+03  0.12165553951E+04  0.93315023349E+03 0.  0.
         23    2    4    4    0    0  0.38603900296E+03  0.21885505912E+03  0.35503664562E+03  0.57568326846E+03  0.91850732968E+02 0.  0.
         23    2    4    4    0    0 -0.41997969573E+03 -0.21355586882E+03  0.42474384849E+03  0.64087212662E+03  0.91217826760E+02 0.  0.
          1    1    3    3  502    0 -0.12936056119E+02 -0.20304837531E+02  0.50319705866E+03  0.50377267474E+03  0.00000000000E+00 0. -1.
         -2    1    3    3    0  502  0.46876748886E+02  0.15005647227E+02  0.27614519695E+03  0.28049735976E+03  0.00000000000E+00 0.  1.
         13    1    5    5    0    0  0.29892715416E+03  0.12423657252E+03  0.23800918191E+03  0.40179664026E+03  0.00000000000E+00 0. -1.
        -13    1    5    5    0    0  0.87111848800E+02  0.94618486599E+02  0.11702746371E+03  0.17388662821E+03  0.00000000000E+00 0.  1.
          2    1    6    6  503    0 -0.24682007519E+03 -0.10040017710E+03  0.29091061052E+03  0.39449883193E+03  0.00000000000E+00 0. -1.
         -2    1    6    6    0  503 -0.17315962053E+03 -0.11315569172E+03  0.13383323797E+03  0.24637329469E+03  0.00000000000E+00 0.  1.
<mgrwt>
<rscale>  0 0.12539692E+04</rscale>
<asrwt>0</asrwt>
<pdfrwt beam="1">  1        1 0.27384216E+00 0.12539692E+04</pdfrwt>
<pdfrwt beam="2">  1       -2 0.33977130E-01 0.12539692E+04</pdfrwt>
<totfact> 0.29508729E+01</totfact>
</mgrwt>
</event>
<event>
12    5  0.5029243E-008  0.1734078E+04  0.7818608E-02  0.8742163E-01
          1   -1    0    0  501    0  0.00000000000E+00  0.00000000000E+00  0.21042882830E+04  0.21042882830E+04  0.00000000000E+00 0. -1.
         -2   -1    0    0    0  501 -0.00000000000E+00 -0.00000000000E+00 -0.35724993101E+03  0.35724993101E+03  0.00000000000E+00 0.  1.
        -24    2    1    2    0    0 -0.57406060305E+03  0.16343917072E+02  0.35097551645E+03  0.67775740227E+03  0.79740727308E+02 0.  0.
        254    2    1    2    0    0  0.57406060305E+03 -0.16343917072E+02  0.13960628356E+04  0.17837808117E+04  0.95029987054E+03 0.  0.
         23    2    4    4    0    0 -0.20896566848E+03 -0.19286542114E+03  0.31926861665E+03  0.43765653026E+03  0.93525759182E+02 0.  0.
         23    2    4    4    0    0  0.78302627153E+03  0.17652150407E+03  0.10767942189E+04  0.13461242815E+04  0.90965971858E+02 0.  0.
          1    1    3    3  502    0 -0.38611862516E+03  0.15609447125E+02  0.19154661906E+03  0.43130192998E+03  0.00000000000E+00 0. -1.
         -2    1    3    3    0  502 -0.18794197789E+03  0.73446994682E+00  0.15942889739E+03  0.24645547229E+03  0.00000000000E+00 0.  1.
         13    1    5    5    0    0 -0.14366231768E+03 -0.10186558265E+03  0.25053969797E+03  0.30624434478E+03  0.00000000000E+00 0. -1.
        -13    1    5    5    0    0 -0.65303350800E+02 -0.90999838491E+02  0.68728918674E+02  0.13141218548E+03  0.00000000000E+00 0.  1.
          3    1    6    6  503    0  0.65645871345E+03  0.11724407809E+03  0.86129227782E+03  0.10892697573E+04  0.00000000000E+00 0. -1.
         -3    1    6    6    0  503  0.12656755807E+03  0.59277425982E+02  0.21550194109E+03  0.25685452420E+03  0.00000000000E+00 0.  1.
<mgrwt>
<rscale>  0 0.17340782E+04</rscale>
<asrwt>0</asrwt>
<pdfrwt beam="1">  1        1 0.32373665E+00 0.17340782E+04</pdfrwt>
<pdfrwt beam="2">  1       -2 0.54961529E-01 0.17340782E+04</pdfrwt>
<totfact> 0.65693290E+00</totfact>
</mgrwt>
</event>
<event>
12    5  0.5029243E-008  0.1455284E+04  0.7818608E-02  0.8914746E-01
         -2   -1    0    0    0  501 -0.00000000000E+00  0.00000000000E+00  0.81334959907E+03  0.81334959907E+03  0.00000000000E+00 0.  1.
          1   -1    0    0  501    0  0.00000000000E+00 -0.00000000000E+00 -0.65096562505E+03  0.65096562505E+03  0.00000000000E+00 0. -1.
        -24    2    1    2    0    0  0.11464215826E+03  0.16407755079E+03  0.43124024481E+03  0.48226445059E+03  0.80910966103E+02 0.  0.
        254    2    1    2    0    0 -0.11464215826E+03 -0.16407755079E+03 -0.26885627079E+03  0.98205077353E+03  0.92307949838E+03 0.  0.
         23    2    4    4    0    0  0.25813901775E+03  0.70916992559E+02  0.18910564041E+03  0.34028903510E+03  0.91491594432E+02 0.  0.
         23    2    4    4    0    0 -0.37278117601E+03 -0.23499454335E+03 -0.45796191120E+03  0.64176173844E+03  0.89111033071E+02 0.  0.
          1    1    3    3  502    0  0.59844417841E+02  0.32270807561E+02  0.19191278539E+03  0.20360077742E+03  0.00000000000E+00 0. -1.
         -2    1    3    3    0  502  0.54797740423E+02  0.13180674323E+03  0.23932745941E+03  0.27866367317E+03  0.00000000000E+00 0.  1.
         13    1    5    5    0    0  0.26439000139E+03  0.67435444625E+02  0.17410643743E+03  0.32367060970E+03  0.00000000000E+00 0.  1.
        -13    1    5    5    0    0 -0.62509836439E+01  0.34815479334E+01  0.14999202981E+02  0.16618425395E+02  0.00000000000E+00 0. -1.
          1    1    6    6  503    0 -0.27364959055E+02 -0.49502834864E+01 -0.65522738030E+01  0.28570589470E+02  0.00000000000E+00 0. -1.
         -1    1    6    6    0  503 -0.34541621696E+03 -0.23004425986E+03 -0.45140963740E+03  0.61319114897E+03  0.00000000000E+00 0.  1.
<mgrwt>
<rscale>  0 0.14552837E+04</rscale>
<asrwt>0</asrwt>
<pdfrwt beam="1">  1        1 0.10014856E+00 0.14552837E+04</pdfrwt>
<pdfrwt beam="2">  1       -2 0.12513071E+00 0.14552837E+04</pdfrwt>
<totfact> 0.12346653E+01</totfact>
</mgrwt>
</event>
<event>
12    5  0.5029243E-008  0.3830369E+04  0.7818608E-02  0.8039669E-01
          1   -1    0    0  501    0  0.00000000000E+00  0.00000000000E+00  0.19015437258E+04  0.19015437258E+04  0.00000000000E+00 0. -1.
         -2   -1    0    0    0  501 -0.00000000000E+00 -0.00000000000E+00 -0.19289235613E+04  0.19289235613E+04  0.00000000000E+00 0.  1.
        -24    2    1    2    0    0  0.11540210037E+04  0.31702807808E+03 -0.13699574224E+04  0.18209535958E+04  0.82567425540E+02 0.  0.
        254    2    1    2    0    0 -0.11540210037E+04 -0.31702807808E+03  0.13425775868E+04  0.20095136912E+04  0.89630319605E+03 0.  0.
         23    2    4    4    0    0 -0.54675314632E+03 -0.16624171237E+03  0.12419998618E+04  0.13697324598E+04  0.83833435531E+02 0.  0.
         23    2    4    4    0    0 -0.60726785740E+03 -0.15078636571E+03  0.10057772506E+03  0.63978123141E+03  0.87711838219E+02 0.  0.
          1    1    3    3  502    0  0.13298668277E+02  0.10133922822E+02 -0.32252655110E+02  0.36328841591E+02  0.00000000000E+00 0. -1.
         -4    1    3    3    0  502  0.11407223355E+04  0.30689415526E+03 -0.13377047673E+04  0.17846247542E+04  0.00000000000E+00 0.  1.
         13    1    5    5    0    0 -0.44775797815E+03 -0.10660725964E+03  0.94787089224E+03  0.10537132168E+04  0.00000000000E+00 0. -1.
        -13    1    5    5    0    0 -0.98995168173E+02 -0.59634452734E+02  0.29412896952E+03  0.31601924306E+03  0.00000000000E+00 0.  1.
          2    1    6    6  503    0 -0.57485275057E+03 -0.15713030365E+03  0.81094914381E+02  0.60143328999E+03  0.00000000000E+00 0. -1.
         -2    1    6    6    0  503 -0.32415106829E+02  0.63439379360E+01  0.19482810676E+02  0.38347941420E+02  0.00000000000E+00 0.  1.
<mgrwt>
<rscale>  0 0.38303694E+04</rscale>
<asrwt>0</asrwt>
<pdfrwt beam="1">  1        1 0.29254519E+00 0.38303694E+04</pdfrwt>
<pdfrwt beam="2">  1       -2 0.29675747E+00 0.38303694E+04</pdfrwt>
<totfact> 0.80658716E-02</totfact>
</mgrwt>
</event>
<event>
12    5  0.5029243E-008  0.1988250E+04  0.7818608E-02  0.8612134E-01
          1   -1    0    0  501    0  0.00000000000E+00  0.00000000000E+00  0.67291872787E+03  0.67291872787E+03  0.00000000000E+00 0. -1.
         -2   -1    0    0    0  501 -0.00000000000E+00 -0.00000000000E+00 -0.14686535888E+04  0.14686535888E+04  0.00000000000E+00 0.  1.
        -24    2    1    2    0    0  0.35462229881E+03  0.46773601229E+02 -0.10740454269E+04  0.11348440792E+04  0.79704206646E+02 0.  0.
        254    2    1    2    0    0 -0.35462229881E+03 -0.46773601229E+02  0.27831056598E+03  0.10067282374E+04  0.89894395170E+03 0.  0.
         23    2    4    4    0    0 -0.40354223702E+03  0.31952281409E+03  0.33643485338E+03  0.62160225601E+03  0.90883377610E+02 0.  0.
         23    2    4    4    0    0  0.48919938210E+02 -0.36629641532E+03 -0.58124287403E+02  0.38512598141E+03  0.91527944068E+02 0.  0.
          3    1    3    3  502    0  0.72780190443E+02  0.19724459217E+02 -0.14251346653E+03  0.16123305665E+03  0.00000000000E+00 0. -1.
         -4    1    3    3    0  502  0.28184210837E+03  0.27049142012E+02 -0.93153196033E+03  0.97361102256E+03  0.00000000000E+00 0.  1.
         13    1    5    5    0    0 -0.57943292677E+02  0.76435329700E+02  0.94809404433E+02  0.13486514732E+03  0.00000000000E+00 0.  1.
        -13    1    5    5    0    0 -0.34559894435E+03  0.24308748439E+03  0.24162544895E+03  0.48673710869E+03  0.00000000000E+00 0. -1.
          2    1    6    6  503    0  0.39277452596E+02 -0.82104881384E+02 -0.42205601725E+02  0.10032568289E+03  0.00000000000E+00 0. -1.
         -2    1    6    6    0  503  0.96424856135E+01 -0.28419153393E+03 -0.15918685678E+02  0.28480029853E+03  0.00000000000E+00 0.  1.
<mgrwt>
<rscale>  0 0.19882500E+04</rscale>
<asrwt>0</asrwt>
<pdfrwt beam="1">  1        1 0.10352596E+00 0.19882500E+04</pdfrwt>
<pdfrwt beam="2">  1       -2 0.22594671E+00 0.19882500E+04</pdfrwt>
<totfact> 0.21312233E+00</totfact>
</mgrwt>
</event>
<event>
12    5  0.5029243E-008  0.2231949E+04  0.7818608E-02  0.8505247E-01
         -2   -1    0    0    0  501 -0.00000000000E+00  0.00000000000E+00  0.11785012657E+04  0.11785012657E+04  0.00000000000E+00 0.  1.
          1   -1    0    0  501    0  0.00000000000E+00 -0.00000000000E+00 -0.10567651684E+04  0.10567651684E+04  0.00000000000E+00 0. -1.
        -24    2    1    2    0    0 -0.15854390488E+03  0.89722766491E+03 -0.13881778200E+03  0.92502093179E+03  0.78991741339E+02 0.  0.
        254    2    1    2    0    0  0.15854390488E+03 -0.89722766491E+03  0.26055387930E+03  0.13102455022E+04  0.90482114234E+03 0.  0.
         23    2    4    4    0    0 -0.37502322923E+02 -0.89739252382E+02 -0.28321622673E+03  0.31294552734E+03  0.90906074374E+02 0.  0.
         23    2    4    4    0    0  0.19604622780E+03 -0.80748841253E+03  0.54377010603E+03  0.99729997489E+03  0.91921988127E+02 0.  0.
          3    1    3    3  502    0 -0.95658331615E+02  0.56840705140E+03 -0.12591223843E+03  0.58999235950E+03  0.00000000000E+00 0. -1.
         -4    1    3    3    0  502 -0.62885573265E+02  0.32882061351E+03 -0.12905543575E+02  0.33502857229E+03  0.00000000000E+00 0.  1.
         13    1    5    5    0    0  0.68944145000E+01  0.79362729515E+01 -0.46583877501E+00  0.10523040693E+02  0.00000000000E+00 0. -1.
        -13    1    5    5    0    0 -0.44396737423E+02 -0.97675525334E+02 -0.28275038795E+03  0.30242248665E+03  0.00000000000E+00 0.  1.
          3    1    6    6  503    0 -0.10066749525E+02 -0.46592282244E+02  0.32969164003E+02  0.57958139944E+02  0.00000000000E+00 0. -1.
         -3    1    6    6    0  503  0.20611297733E+03 -0.76089613028E+03  0.51080094202E+03  0.93934183494E+03  0.00000000000E+00 0.  1.
<mgrwt>
<rscale>  0 0.22319490E+04</rscale>
<asrwt>0</asrwt>
<pdfrwt beam="1">  1        1 0.16257926E+00 0.22319490E+04</pdfrwt>
<pdfrwt beam="2">  1       -2 0.18130789E+00 0.22319490E+04</pdfrwt>
<totfact> 0.19362148E+00</totfact>
</mgrwt>
</event>
<event>
12    5  0.5029243E-008  0.1617059E+04  0.7818608E-02  0.8810136E-01
         -2   -1    0    0    0  501 -0.00000000000E+00  0.00000000000E+00  0.14186094751E+04  0.14186094751E+04  0.00000000000E+00 0.  1.
          1   -1    0    0  501    0  0.00000000000E+00 -0.00000000000E+00 -0.46081721430E+03  0.46081721430E+03  0.00000000000E+00 0. -1.
        -24    2    1    2    0    0  0.38343101671E+03 -0.28333553284E+03  0.59033483903E+03  0.76308914079E+03  0.80693530609E+02 0.  0.
        254    2    1    2    0    0 -0.38343101671E+03  0.28333553284E+03  0.36745742174E+03  0.11163375486E+04  0.94015222004E+03 0.  0.
         23    2    4    4    0    0 -0.20901462533E+03 -0.21443255821E+03 -0.17186738555E+03  0.35633811023E+03  0.88147688335E+02 0.  0.
         23    2    4    4    0    0 -0.17441639137E+03  0.49776809105E+03  0.53932480729E+03  0.75999943835E+03  0.92378290141E+02 0.  0.
          1    1    3    3  502    0  0.34609130989E+02 -0.87596722729E+00  0.38872808293E+02  0.52054341711E+02  0.00000000000E+00 0. -1.
         -2    1    3    3    0  502  0.34882188572E+03 -0.28245956561E+03  0.55146203074E+03  0.71103479908E+03  0.00000000000E+00 0.  1.
         13    1    5    5    0    0  0.58371386004E+01 -0.54204307007E+01  0.38894916530E+01  0.88646151265E+01  0.00000000000E+00 0. -1.
        -13    1    5    5    0    0 -0.21485176393E+03 -0.20901212751E+03 -0.17575687720E+03  0.34747349510E+03  0.00000000000E+00 0.  1.
          1    1    6    6  503    0 -0.44806144118E+02  0.24065291340E+03  0.28635089192E+03  0.37672038514E+03  0.00000000000E+00 0. -1.
         -1    1    6    6    0  503 -0.12961024726E+03  0.25711517765E+03  0.25297391538E+03  0.38327905321E+03  0.00000000000E+00 0.  1.
<mgrwt>
<rscale>  0 0.16170586E+04</rscale>
<asrwt>0</asrwt>
<pdfrwt beam="1">  1        1 0.70894957E-01 0.16170586E+04</pdfrwt>
<pdfrwt beam="2">  1       -2 0.21824761E+00 0.16170586E+04</pdfrwt>
<totfact> 0.42098505E+00</totfact>
</mgrwt>
</event>
<event>
12    5  0.5029243E-008  0.1309039E+04  0.7818608E-02  0.9022428E-01
         -2   -1    0    0    0  501 -0.00000000000E+00  0.00000000000E+00  0.61149113981E+03  0.61149113981E+03  0.00000000000E+00 0.  1.
          1   -1    0    0  501    0  0.00000000000E+00 -0.00000000000E+00 -0.70057566310E+03  0.70057566310E+03  0.00000000000E+00 0. -1.
        -24    2    1    2    0    0  0.42879621076E+02  0.19487808087E+02  0.27828928271E+03  0.29332356902E+03  0.79845818336E+02 0.  0.
        254    2    1    2    0    0 -0.42879621076E+02 -0.19487808087E+02 -0.36737380600E+03  0.10187432339E+04  0.94902888612E+03 0.  0.
         23    2    4    4    0    0  0.43632197222E+03  0.78323006673E+02 -0.18722461419E+03  0.48975907025E+03  0.91101777820E+02 0.  0.
         23    2    4    4    0    0 -0.47920159330E+03 -0.97810814760E+02 -0.18014919181E+03  0.52898416363E+03  0.90384686552E+02 0.  0.
          1    1    3    3  502    0  0.63276592512E+00  0.20502141894E+02  0.12129519149E+02  0.23829885643E+02  0.00000000000E+00 0. -1.
         -2    1    3    3    0  502  0.42246855151E+02 -0.10143338069E+01  0.26615976356E+03  0.26949368338E+03  0.00000000000E+00 0.  1.
         13    1    5    5    0    0  0.27452816123E+03  0.84762499845E+02 -0.14781906668E+03  0.32311123342E+03  0.00000000000E+00 0. -1.
        -13    1    5    5    0    0  0.16179381099E+03 -0.64394931718E+01 -0.39405547508E+02  0.16664783683E+03  0.00000000000E+00 0.  1.
          1    1    6    6  503    0 -0.17644671178E+03 -0.71163632691E+02 -0.40543459613E+02  0.19452885862E+03  0.00000000000E+00 0. -1.
         -1    1    6    6    0  503 -0.30275488151E+03 -0.26647182069E+02 -0.13960573219E+03  0.33445530502E+03  0.00000000000E+00 0.  1.
<mgrwt>
<rscale>  0 0.13090391E+04</rscale>
<asrwt>0</asrwt>
<pdfrwt beam="1">  1        1 0.10778087E+00 0.13090391E+04</pdfrwt>
<pdfrwt beam="2">  1       -2 0.94075560E-01 0.13090391E+04</pdfrwt>
<totfact> 0.22310912E+01</totfact>
</mgrwt>
</event>
<event>
12    5  0.5029243E-008  0.2187890E+04  0.7818608E-02  0.8523486E-01
          1   -1    0    0  501    0  0.00000000000E+00  0.00000000000E+00  0.17309698491E+04  0.17309698491E+04  0.00000000000E+00 0. -1.
         -2   -1    0    0    0  501 -0.00000000000E+00 -0.00000000000E+00 -0.69135529085E+03  0.69135529085E+03  0.00000000000E+00 0.  1.
        -24    2    1    2    0    0 -0.74554371987E+03 -0.48596104461E+03  0.63210662815E+03  0.10943640804E+04  0.77976765711E+02 0.  0.
        254    2    1    2    0    0  0.74554371987E+03  0.48596104461E+03  0.40750793010E+03  0.13279610596E+04  0.89745433727E+03 0.  0.
         23    2    4    4    0    0  0.61863971953E+03  0.61452748979E+03  0.65891055953E+01  0.87683535765E+03  0.91856898624E+02 0.  0.
         23    2    4    4    0    0  0.12690400034E+03 -0.12856644518E+03  0.40091882450E+03  0.45112570191E+03  0.10072010201E+03 0.  0.
          1    1    3    3  502    0 -0.18604233798E+03 -0.11354534689E+03  0.19632605072E+03  0.29333976122E+03  0.00000000000E+00 0. -1.
         -2    1    3    3    0  502 -0.55950138188E+03 -0.37241569772E+03  0.43578057744E+03  0.80102431918E+03  0.00000000000E+00 0.  1.
         13    1    5    5    0    0  0.94971319673E+02  0.13178807420E+03 -0.22622907726E+02  0.16401049971E+03  0.00000000000E+00 0. -1.
        -13    1    5    5    0    0  0.52366839985E+03  0.48273941559E+03  0.29212013321E+02  0.71282485794E+03  0.00000000000E+00 0.  1.
          1    1    6    6  503    0  0.34580026136E+02 -0.99938558636E+02  0.16276057410E+03  0.19409919678E+03  0.00000000000E+00 0. -1.
         -1    1    6    6    0  503  0.92323974204E+02 -0.28627886545E+02  0.23815825040E+03  0.25702650512E+03  0.00000000000E+00 0.  1.
<mgrwt>
<rscale>  0 0.21878895E+04</rscale>
<asrwt>0</asrwt>
<pdfrwt beam="1">  1        1 0.26630305E+00 0.21878895E+04</pdfrwt>
<pdfrwt beam="2">  1       -2 0.10636235E+00 0.21878895E+04</pdfrwt>
<totfact> 0.25929107E+00</totfact>
</mgrwt>
</event>
<event>
12    5  0.5029243E-008  0.1230522E+04  0.7818608E-02  0.9086552E-01
         -2   -1    0    0    0  501 -0.00000000000E+00  0.00000000000E+00  0.24252128391E+03  0.24252128391E+03  0.00000000000E+00 0.  1.
          1   -1    0    0  501    0  0.00000000000E+00 -0.00000000000E+00 -0.15608774598E+04  0.15608774598E+04  0.00000000000E+00 0. -1.
        -24    2    1    2    0    0  0.17834302061E+02 -0.26914503175E+03 -0.24935608030E+03  0.37591146111E+03  0.79836466369E+02 0.  0.
        254    2    1    2    0    0 -0.17834302061E+02  0.26914503175E+03 -0.10690000955E+04  0.14274872826E+04  0.90675334416E+03 0.  0.
         23    2    4    4    0    0  0.16902903628E+03  0.34063391551E+03 -0.61140940642E+02  0.39599396957E+03  0.92036567807E+02 0.  0.
         23    2    4    4    0    0 -0.18686333834E+03 -0.71488883757E+02 -0.10078591549E+04  0.10314933130E+04  0.90387006248E+02 0.  0.
          1    1    3    3  502    0 -0.13642174411E+02 -0.10550343232E+02 -0.33178888065E+02  0.37393278516E+02  0.00000000000E+00 0. -1.
         -2    1    3    3    0  502  0.31476476472E+02 -0.25859468852E+03 -0.21617719223E+03  0.33851818259E+03  0.00000000000E+00 0.  1.
         13    1    5    5    0    0  0.36446266685E+02  0.36974765359E+02 -0.37041802215E+02  0.63777415595E+02  0.00000000000E+00 0. -1.
        -13    1    5    5    0    0  0.13258276960E+03  0.30365915015E+03 -0.24099138428E+02  0.33221655398E+03  0.00000000000E+00 0.  1.
          4    1    6    6  503    0 -0.12366286559E+03 -0.38405554078E+02 -0.42510405222E+03  0.44438828306E+03  0.00000000000E+00 0. -1.
         -4    1    6    6    0  503 -0.63200472752E+02 -0.33083329679E+02 -0.58275510268E+03  0.58710502993E+03  0.00000000000E+00 0.  1.
<mgrwt>
<rscale>  0 0.12305218E+04</rscale>
<asrwt>0</asrwt>
<pdfrwt beam="1">  1        1 0.24013500E+00 0.12305218E+04</pdfrwt>
<pdfrwt beam="2">  1       -2 0.37310966E-01 0.12305218E+04</pdfrwt>
<totfact> 0.34848984E+01</totfact>
</mgrwt>
</event>
<event>
12    5  0.5029243E-008  0.2276033E+04  0.7818608E-02  0.8487431E-01
          1   -1    0    0  501    0  0.00000000000E+00  0.00000000000E+00  0.23544186041E+04  0.23544186041E+04  0.00000000000E+00 0. -1.
         -2   -1    0    0    0  501 -0.00000000000E+00 -0.00000000000E+00 -0.55006430249E+03  0.55006430249E+03  0.00000000000E+00 0.  1.
        -24    2    1    2    0    0 -0.97756281502E+01 -0.36238134525E+03 -0.36807402399E+03  0.52302278564E+03  0.81599907288E+02 0.  0.
        254    2    1    2    0    0  0.97756281502E+01  0.36238134525E+03  0.21724283256E+04  0.23814601210E+04  0.90580995553E+03 0.  0.
         23    2    4    4    0    0 -0.36926790576E+03 -0.76065657338E+02  0.84615924377E+03  0.93111778623E+03  0.94074946512E+02 0.  0.
         23    2    4    4    0    0  0.37904353391E+03  0.43844700259E+03  0.13262690819E+04  0.14503423348E+04  0.92700786387E+02 0.  0.
          1    1    3    3  502    0 -0.11791848859E+02 -0.22270470848E+03 -0.16895152470E+03  0.27978751326E+03  0.00000000000E+00 0. -1.
         -2    1    3    3    0  502  0.20162207091E+01 -0.13967663677E+03 -0.19912249929E+03  0.24323527238E+03  0.00000000000E+00 0.  1.
         13    1    5    5    0    0 -0.10240131623E+03  0.20859616687E+02  0.21621264917E+03  0.24014383780E+03  0.00000000000E+00 0.  1.
        -13    1    5    5    0    0 -0.26686658953E+03 -0.96925274026E+02  0.62994659461E+03  0.69097394843E+03  0.00000000000E+00 0. -1.
          3    1    6    6  503    0  0.37428275481E+03  0.39852441235E+03  0.12377884184E+04  0.13531553705E+04  0.00000000000E+00 0. -1.
         -3    1    6    6    0  503  0.47607791092E+01  0.39922590233E+02  0.88480663424E+02  0.97186964294E+02  0.00000000000E+00 0.  1.
<mgrwt>
<rscale>  0 0.22760331E+04</rscale>
<asrwt>0</asrwt>
<pdfrwt beam="1">  1        1 0.36221824E+00 0.22760331E+04</pdfrwt>
<pdfrwt beam="2">  1       -2 0.84625279E-01 0.22760331E+04</pdfrwt>
<totfact> 0.16542204E+00</totfact>
</mgrwt>
</event>
<event>
12    5  0.5029243E-008  0.1838333E+04  0.7818608E-02  0.8686176E-01
          1   -1    0    0  501    0  0.00000000000E+00  0.00000000000E+00  0.44199757034E+03  0.44199757034E+03  0.00000000000E+00 0. -1.
         -2   -1    0    0    0  501 -0.00000000000E+00 -0.00000000000E+00 -0.19114741326E+04  0.19114741326E+04  0.00000000000E+00 0.  1.
        -24    2    1    2    0    0  0.36446848935E+03  0.36330152683E+03  0.40342634419E+02  0.51977685911E+03  0.60952243440E+02 0.  0.
        254    2    1    2    0    0 -0.36446848935E+03 -0.36330152683E+03 -0.15098191967E+04  0.18336948438E+04  0.90446530862E+03 0.  0.
         23    2    4    4    0    0 -0.11143420711E+03 -0.32488586634E+03 -0.61828705118E+02  0.36043960399E+03  0.90141614619E+02 0.  0.
         23    2    4    4    0    0 -0.25303428224E+03 -0.38415660495E+02 -0.14479904916E+04  0.14732552398E+04  0.91117655373E+02 0.  0.
          3    1    3    3  502    0  0.15094103060E+03  0.18570812257E+03  0.36062511484E+02  0.24201488847E+03  0.00000000000E+00 0. -1.
         -4    1    3    3    0  502  0.21352745875E+03  0.17759340426E+03  0.42801229348E+01  0.27776197063E+03  0.00000000000E+00 0.  1.
         13    1    5    5    0    0 -0.16750844319E+01 -0.52215436490E+02 -0.39813619442E+02  0.65683955490E+02  0.00000000000E+00 0. -1.
        -13    1    5    5    0    0 -0.10975912268E+03 -0.27267042985E+03 -0.22015085676E+02  0.29475564850E+03  0.00000000000E+00 0.  1.
          4    1    6    6  503    0 -0.25578582886E+03 -0.49241711345E+02 -0.13850773014E+04  0.14093581047E+04  0.00000000000E+00 0.  1.
         -4    1    6    6    0  503  0.27515466177E+01  0.10826050849E+02 -0.62913190179E+02  0.63897135180E+02  0.00000000000E+00 0. -1.
<mgrwt>
<rscale>  0 0.18383329E+04</rscale>
<asrwt>0</asrwt>
<pdfrwt beam="1">  1        1 0.67999626E-01 0.18383329E+04</pdfrwt>
<pdfrwt beam="2">  1       -2 0.29407295E+00 0.18383329E+04</pdfrwt>
<totfact> 0.14935532E+00</totfact>
</mgrwt>
</event>
<event>
12    5  0.5029243E-008  0.1552389E+04  0.7818608E-02  0.8850343E-01
          1   -1    0    0  501    0  0.00000000000E+00  0.00000000000E+00  0.29953785716E+03  0.29953785716E+03  0.00000000000E+00 0. -1.
         -2   -1    0    0    0  501 -0.00000000000E+00 -0.00000000000E+00 -0.20113574132E+04  0.20113574132E+04  0.00000000000E+00 0.  1.
        -24    2    1    2    0    0 -0.22369781983E+03 -0.34044304591E+03 -0.10323299659E+04  0.11126318925E+04  0.79387579651E+02 0.  0.
        254    2    1    2    0    0  0.22369781983E+03  0.34044304591E+03 -0.67948959023E+03  0.11982633779E+04  0.89899212310E+03 0.  0.
         23    2    4    4    0    0  0.11547868797E+03  0.53939258395E+03 -0.97706314016E+02  0.56735330260E+03  0.89797322799E+02 0.  0.
         23    2    4    4    0    0  0.10821913185E+03 -0.19894953804E+03 -0.58178327622E+03  0.63091007527E+03  0.91013424304E+02 0.  0.
          1    1    3    3  502    0 -0.11698030627E+03 -0.11472229186E+03 -0.45604601485E+03  0.48458597170E+03  0.00000000000E+00 0. -1.
         -2    1    3    3    0  502 -0.10671751355E+03 -0.22572075404E+03 -0.57628395100E+03  0.62804592084E+03  0.00000000000E+00 0.  1.
         13    1    5    5    0    0 -0.10591049807E+02  0.12133735992E+03 -0.30517077867E+02  0.12556359859E+03  0.00000000000E+00 0. -1.
        -13    1    5    5    0    0  0.12606973778E+03  0.41805522402E+03 -0.67189236149E+02  0.44178970401E+03  0.00000000000E+00 0.  1.
          2    1    6    6  503    0  0.36925756638E+01  0.35919487467E+01  0.90548877474E+00  0.52304034981E+01  0.00000000000E+00 0. -1.
         -2    1    6    6    0  503  0.10452655619E+03 -0.20254148679E+03 -0.58268876499E+03  0.62567967177E+03  0.00000000000E+00 0.  1.
<mgrwt>
<rscale>  0 0.15523887E+04</rscale>
<asrwt>0</asrwt>
<pdfrwt beam="1">  1        1 0.46082748E-01 0.15523887E+04</pdfrwt>
<pdfrwt beam="2">  1       -2 0.30943960E+00 0.15523887E+04</pdfrwt>
<totfact> 0.20638191E+00</totfact>
</mgrwt>
</event>
<event>
12    5  0.5029243E-008  0.3284697E+04  0.7818608E-02  0.8166800E-01
         -2   -1    0    0    0  501 -0.00000000000E+00  0.00000000000E+00  0.17532243526E+04  0.17532243526E+04  0.00000000000E+00 0.  1.
          1   -1    0    0  501    0  0.00000000000E+00 -0.00000000000E+00 -0.15384845634E+04  0.15384845634E+04  0.00000000000E+00 0. -1.
        -24    2    1    2    0    0  0.68684883824E+03  0.27965953696E+03 -0.12298384918E+04  0.14382651130E+04  0.78313703448E+02 0.  0.
        254    2    1    2    0    0 -0.68684883824E+03 -0.27965953696E+03  0.14445782810E+04  0.18534438030E+04  0.89357525569E+03 0.  0.
         23    2    4    4    0    0 -0.12241830611E+03 -0.47446393551E+02 -0.10051973731E+03  0.18988830617E+03  0.93359248599E+02 0.  0.
         23    2    4    4    0    0 -0.56443053213E+03 -0.23221314341E+03  0.15450980183E+04  0.16635554968E+04  0.87087514154E+02 0.  0.
          3    1    3    3  502    0  0.62014415233E+03  0.22591281226E+03 -0.10937290571E+04  0.12774422174E+04  0.00000000000E+00 0. -1.
         -4    1    3    3    0  502  0.66704685903E+02  0.53746724706E+02 -0.13610943469E+03  0.16082289560E+03  0.00000000000E+00 0.  1.
         13    1    5    5    0    0 -0.12191290546E+03 -0.51549197661E+02 -0.53627984756E+02  0.14281469478E+03  0.00000000000E+00 0. -1.
        -13    1    5    5    0    0 -0.50540065256E+00  0.41028041105E+01 -0.46891752555E+02  0.47073611388E+02  0.00000000000E+00 0.  1.
          3    1    6    6  503    0 -0.86116811036E+02 -0.45254472871E+02  0.33879169658E+03  0.35248246216E+03  0.00000000000E+00 0. -1.
         -3    1    6    6    0  503 -0.47831372109E+03 -0.18695867054E+03  0.12063063218E+04  0.13110730347E+04  0.00000000000E+00 0.  1.
<mgrwt>
<rscale>  0 0.32846970E+04</rscale>
<asrwt>0</asrwt>
<pdfrwt beam="1">  1        1 0.23668993E+00 0.32846970E+04</pdfrwt>
<pdfrwt beam="2">  1       -2 0.26972682E+00 0.32846970E+04</pdfrwt>
<totfact> 0.21840991E-01</totfact>
</mgrwt>
</event>
<event>
12    5  0.5029243E-008  0.1934211E+04  0.7818608E-02  0.8638012E-01
         -2   -1    0    0    0  501 -0.00000000000E+00  0.00000000000E+00  0.53388527773E+03  0.53388527773E+03  0.00000000000E+00 0.  1.
          1   -1    0    0  501    0  0.00000000000E+00 -0.00000000000E+00 -0.17518613000E+04  0.17518613000E+04  0.00000000000E+00 0. -1.
        -24    2    1    2    0    0  0.26489472367E+03 -0.24324149582E+03  0.30724153691E+03  0.47970906262E+03  0.79923606272E+02 0.  0.
        254    2    1    2    0    0 -0.26489472367E+03  0.24324149582E+03 -0.15252175592E+04  0.18060375151E+04  0.89785703941E+03 0.  0.
         23    2    4    4    0    0 -0.38090350992E+03  0.47528953071E+03 -0.13396230022E+04  0.14742910233E+04  0.89199839820E+02 0.  0.
         23    2    4    4    0    0  0.11600878625E+03 -0.23204803489E+03 -0.18559455693E+03  0.33174649178E+03  0.91137622648E+02 0.  0.
          3    1    3    3  502    0  0.98431263733E+02 -0.98965409348E+02  0.70650137184E+02  0.15644266621E+03  0.00000000000E+00 0. -1.
         -4    1    3    3    0  502  0.16646345994E+03 -0.14427608647E+03  0.23659139972E+03  0.32326639641E+03  0.00000000000E+00 0.  1.
         13    1    5    5    0    0 -0.14231225719E+03  0.13452803834E+03 -0.50775676295E+03  0.54421273595E+03  0.00000000000E+00 0. -1.
        -13    1    5    5    0    0 -0.23859125273E+03  0.34076149237E+03 -0.83186623929E+03  0.93007828737E+03  0.00000000000E+00 0.  1.
          1    1    6    6  503    0  0.12007780733E+03 -0.14699564779E+03 -0.12984779415E+03  0.22997141111E+03  0.00000000000E+00 0. -1.
         -1    1    6    6    0  503 -0.40690210855E+01 -0.85052387105E+02 -0.55746762775E+02  0.10177508067E+03  0.00000000000E+00 0.  1.
<mgrwt>
<rscale>  0 0.19342109E+04</rscale>
<asrwt>0</asrwt>
<pdfrwt beam="1">  1        1 0.26951712E+00 0.19342109E+04</pdfrwt>
<pdfrwt beam="2">  1       -2 0.82136197E-01 0.19342109E+04</pdfrwt>
<totfact> 0.46863903E+00</totfact>
</mgrwt>
</event>
<event>
12    5  0.5029243E-008  0.1158439E+04  0.7818608E-02  0.9150034E-01
          1   -1    0    0  501    0  0.00000000000E+00  0.00000000000E+00  0.56448039535E+03  0.56448039535E+03  0.00000000000E+00 0. -1.
         -2   -1    0    0    0  501 -0.00000000000E+00 -0.00000000000E+00 -0.59434322719E+03  0.59434322719E+03  0.00000000000E+00 0.  1.
        -24    2    1    2    0    0 -0.70336168143E+02  0.17897302633E+03  0.18113157280E+02  0.20818482781E+03  0.77680855816E+02 0.  0.
        254    2    1    2    0    0  0.70336168143E+02 -0.17897302633E+03 -0.47975989118E+02  0.95063879473E+03  0.92974937580E+03 0.  0.
         23    2    4    4    0    0  0.43034581364E+03  0.34622153433E+02  0.16616702884E+03  0.47152754456E+03  0.91271742492E+02 0.  0.
         23    2    4    4    0    0 -0.36000964550E+03 -0.21359517977E+03 -0.21414301796E+03  0.47911125016E+03  0.91981042710E+02 0.  0.
          1    1    3    3  502    0 -0.45104614762E+02  0.82410611247E+02  0.45934875496E+02  0.10457508262E+03  0.00000000000E+00 0. -1.
         -2    1    3    3    0  502 -0.25231553381E+02  0.96562415088E+02 -0.27821718216E+02  0.10360974519E+03  0.00000000000E+00 0.  1.
         13    1    5    5    0    0  0.27175391552E+03  0.41240043035E+02  0.62309116893E+02  0.28183924105E+03  0.00000000000E+00 0. -1.
        -13    1    5    5    0    0  0.15859189813E+03 -0.66178896019E+01  0.10385791195E+03  0.18968830351E+03  0.00000000000E+00 0.  1.
          4    1    6    6  503    0 -0.30631298471E+03 -0.16978714104E+03 -0.13874473735E+03  0.37670335810E+03  0.00000000000E+00 0. -1.
         -4    1    6    6    0  503 -0.53696660795E+02 -0.43808038729E+02 -0.75398280610E+02  0.10240789206E+03  0.00000000000E+00 0.  1.
<mgrwt>
<rscale>  0 0.11584388E+04</rscale>
<asrwt>0</asrwt>
<pdfrwt beam="1">  1        1 0.86843138E-01 0.11584388E+04</pdfrwt>
<pdfrwt beam="2">  1       -2 0.91437420E-01 0.11584388E+04</pdfrwt>
<totfact> 0.33086867E+01</totfact>
</mgrwt>
</event>
<event>
12    5  0.5029243E-008  0.1207915E+04  0.7818608E-02  0.9105957E-01
         -4   -1    0    0    0  501 -0.00000000000E+00  0.00000000000E+00  0.23131674235E+03  0.23131674235E+03  0.00000000000E+00 0.  1.
          3   -1    0    0  501    0  0.00000000000E+00 -0.00000000000E+00 -0.15769050441E+04  0.15769050441E+04  0.00000000000E+00 0. -1.
        -24    2    1    2    0    0 -0.78088848553E+02  0.22016334348E+03 -0.31665280748E+03  0.40158713465E+03  0.80208853330E+02 0.  0.
        254    2    1    2    0    0  0.78088848553E+02 -0.22016334348E+03 -0.10289354943E+04  0.14066346518E+04  0.93023815565E+03 0.  0.
         23    2    4    4    0    0 -0.63243898606E+02  0.86234678435E+02  0.13303153250E+03  0.19374261003E+03  0.91665696022E+02 0.  0.
         23    2    4    4    0    0  0.14133274716E+03 -0.30639802191E+03 -0.11619670268E+04  0.12128920418E+04  0.84172682182E+02 0.  0.
          1    1    3    3  502    0 -0.56914320149E+02  0.21615711270E+03 -0.30115353707E+03  0.37504211777E+03  0.00000000000E+00 0. -1.
         -2    1    3    3    0  502 -0.21174528403E+02  0.40062307795E+01 -0.15499270406E+02  0.26545016882E+02  0.00000000000E+00 0.  1.
         13    1    5    5    0    0 -0.28434240027E+02 -0.15290494530E+02  0.20541314245E+02  0.38265530439E+02  0.00000000000E+00 0. -1.
        -13    1    5    5    0    0 -0.34809658580E+02  0.10152517296E+03  0.11249021825E+03  0.15547707959E+03  0.00000000000E+00 0.  1.
          4    1    6    6  503    0  0.75526599392E+01  0.35138047474E+01 -0.54236064911E+02  0.54872035072E+02  0.00000000000E+00 0. -1.
         -4    1    6    6    0  503  0.13378008722E+03 -0.30991182666E+03 -0.11077309619E+04  0.11580200067E+04  0.00000000000E+00 0.  1.
<mgrwt>
<rscale>  0 0.12079148E+04</rscale>
<asrwt>0</asrwt>
<pdfrwt beam="1">  1        3 0.24260077E+00 0.12079148E+04</pdfrwt>
<pdfrwt beam="2">  1       -4 0.35587192E-01 0.12079148E+04</pdfrwt>
<totfact> 0.14248404E+00</totfact>
</mgrwt>
</event>
<event>
12    5  0.5029243E-008  0.1281542E+04  0.7818608E-02  0.9044332E-01
         -2   -1    0    0    0  501 -0.00000000000E+00  0.00000000000E+00  0.17812133002E+04  0.17812133002E+04  0.00000000000E+00 0.  1.
          1   -1    0    0  501    0  0.00000000000E+00 -0.00000000000E+00 -0.23050986808E+03  0.23050986808E+03  0.00000000000E+00 0. -1.
        -24    2    1    2    0    0 -0.10086575804E+03  0.17323964579E+03  0.98707384458E+01  0.21612245757E+03  0.80159897516E+02 0.  0.
        254    2    1    2    0    0  0.10086575804E+03 -0.17323964579E+03  0.15408326937E+04  0.17956007107E+04  0.89990590975E+03 0.  0.
         23    2    4    4    0    0  0.93468048431E+02 -0.37801969803E+03  0.15171296513E+04  0.15693769410E+04  0.98114402054E+02 0.  0.
         23    2    4    4    0    0  0.73977096132E+01  0.20478005225E+03  0.23703042375E+02  0.22622376972E+03  0.92874990520E+02 0.  0.
          3    1    3    3  502    0 -0.83492395190E+02  0.15115724663E+03 -0.21490730835E+02  0.17401535787E+03  0.00000000000E+00 0. -1.
         -4    1    3    3    0  502 -0.17373362855E+02  0.22082399155E+02  0.31361469281E+02  0.42107099695E+02  0.00000000000E+00 0.  1.
         13    1    5    5    0    0  0.10951196731E+03 -0.26271464388E+03  0.10392176230E+04  0.10774901963E+04  0.00000000000E+00 0. -1.
        -13    1    5    5    0    0 -0.16043918879E+02 -0.11530505415E+03  0.47791202827E+03  0.49188674469E+03  0.00000000000E+00 0.  1.
          1    1    6    6  503    0  0.18594916443E+02  0.21065977497E+03  0.17682615645E+02  0.21221683865E+03  0.00000000000E+00 0. -1.
         -1    1    6    6    0  503 -0.11197206830E+02 -0.58797227269E+01  0.60204267305E+01  0.14006931076E+02  0.00000000000E+00 0.  1.
<mgrwt>
<rscale>  0 0.12815416E+04</rscale>
<asrwt>0</asrwt>
<pdfrwt beam="1">  1        1 0.35463058E-01 0.12815416E+04</pdfrwt>
<pdfrwt beam="2">  1       -2 0.27403281E+00 0.12815416E+04</pdfrwt>
<totfact> 0.48773592E+00</totfact>
</mgrwt>
</event>
<event>
12    5  0.5029243E-008  0.1854810E+04  0.7818608E-02  0.8677683E-01
          1   -1    0    0  501    0  0.00000000000E+00  0.00000000000E+00  0.22516335543E+04  0.22516335543E+04  0.00000000000E+00 0. -1.
         -2   -1    0    0    0  501 -0.00000000000E+00 -0.00000000000E+00 -0.38198046396E+03  0.38198046396E+03  0.00000000000E+00 0.  1.
        -24    2    1    2    0    0 -0.57996020846E+03 -0.24080248879E+03  0.11695495174E+04  0.13298814930E+04  0.79993935156E+02 0.  0.
        254    2    1    2    0    0  0.57996020846E+03  0.24080248879E+03  0.70010357288E+03  0.13037325252E+04  0.90290298627E+03 0.  0.
         23    2    4    4    0    0  0.90924484811E+02  0.30594998003E+03 -0.11209009686E+03  0.34885643714E+03  0.85228937021E+02 0.  0.
         23    2    4    4    0    0  0.48903572364E+03 -0.65147491240E+02  0.81219366974E+03  0.95487608810E+03  0.93432605897E+02 0.  0.
          3    1    3    3  502    0 -0.55839176837E+03 -0.24418290325E+03  0.11076515230E+04  0.12642462393E+04  0.00000000000E+00 0. -1.
         -4    1    3    3    0  502 -0.21568440083E+02  0.33804144631E+01  0.61897994397E+02  0.65635253636E+02  0.00000000000E+00 0.  1.
         13    1    5    5    0    0  0.10296511742E+03  0.29886885370E+03 -0.11017102338E+03  0.33475671989E+03  0.00000000000E+00 0. -1.
        -13    1    5    5    0    0 -0.12040632610E+02  0.70811263303E+01 -0.19190734774E+01  0.14099717258E+02  0.00000000000E+00 0.  1.
          3    1    6    6  503    0  0.43618185835E+03 -0.31190212351E+02  0.73615674208E+03  0.85624423607E+03  0.00000000000E+00 0. -1.
         -3    1    6    6    0  503  0.52853865298E+02 -0.33957278889E+02  0.76036927659E+02  0.98631852027E+02  0.00000000000E+00 0.  1.
<mgrwt>
<rscale>  0 0.18548100E+04</rscale>
<asrwt>0</asrwt>
<pdfrwt beam="1">  1        1 0.34640515E+00 0.18548100E+04</pdfrwt>
<pdfrwt beam="2">  1       -2 0.58766227E-01 0.18548100E+04</pdfrwt>
<totfact> 0.44852489E+00</totfact>
</mgrwt>
</event>
<event>
12    5  0.5029243E-008  0.1480480E+04  0.7818608E-02  0.8897538E-01
         -2   -1    0    0    0  501 -0.00000000000E+00  0.00000000000E+00  0.29205822949E+03  0.29205822949E+03  0.00000000000E+00 0.  1.
          1   -1    0    0  501    0  0.00000000000E+00 -0.00000000000E+00 -0.18761848314E+04  0.18761848314E+04  0.00000000000E+00 0. -1.
        -24    2    1    2    0    0  0.34150482760E+03  0.83557830139E+02 -0.92969180587E+03  0.99710008772E+03  0.79210307298E+02 0.  0.
        254    2    1    2    0    0 -0.34150482760E+03 -0.83557830139E+02 -0.65443479603E+03  0.11711429732E+04  0.90536374076E+03 0.  0.
         23    2    4    4    0    0 -0.16759501166E+03  0.34311255089E+03 -0.36367317922E+02  0.39503157815E+03  0.94408979487E+02 0.  0.
         23    2    4    4    0    0 -0.17390981594E+03 -0.42667038103E+03 -0.61806747810E+03  0.77611139501E+03  0.89717622830E+02 0.  0.
          3    1    3    3  502    0  0.32208341647E+03  0.92116509940E+02 -0.90207932119E+03  0.96227349557E+03  0.00000000000E+00 0. -1.
         -4    1    3    3    0  502  0.19421411140E+02 -0.85586798009E+01 -0.27612484681E+02  0.34826592151E+02  0.00000000000E+00 0.  1.
         13    1    5    5    0    0 -0.14815850938E+03  0.20941346074E+03 -0.41345924313E+02  0.25983538423E+03  0.00000000000E+00 0. -1.
        -13    1    5    5    0    0 -0.19436502283E+02  0.13369909015E+03  0.49786063910E+01  0.13519619392E+03  0.00000000000E+00 0.  1.
          4    1    6    6  503    0 -0.60943426692E+02 -0.25636197087E+03 -0.31677393848E+03  0.41204525172E+03  0.00000000000E+00 0. -1.
         -4    1    6    6    0  503 -0.11296638925E+03 -0.17030841016E+03 -0.30129353962E+03  0.36406614329E+03  0.00000000000E+00 0.  1.
<mgrwt>
<rscale>  0 0.14804799E+04</rscale>
<asrwt>0</asrwt>
<pdfrwt beam="1">  1        1 0.28864382E+00 0.14804799E+04</pdfrwt>
<pdfrwt beam="2">  1       -2 0.44932036E-01 0.14804799E+04</pdfrwt>
<totfact> 0.14452740E+01</totfact>
</mgrwt>
</event>
<event>
12    5  0.5029243E-008  0.2543017E+04  0.7818608E-02  0.8387819E-01
         -4   -1    0    0    0  501 -0.00000000000E+00  0.00000000000E+00  0.84626704461E+03  0.84626704461E+03  0.00000000000E+00 0.  1.
          3   -1    0    0  501    0  0.00000000000E+00 -0.00000000000E+00 -0.19104304764E+04  0.19104304764E+04  0.00000000000E+00 0. -1.
        -24    2    1    2    0    0  0.32475946463E+03 -0.19879745824E+03  0.66703783444E+03  0.77260905093E+03  0.83642894156E+02 0.  0.
        254    2    1    2    0    0 -0.32475946463E+03  0.19879745824E+03 -0.17312012662E+04  0.19840884700E+04  0.89138100361E+03 0.  0.
         23    2    4    4    0    0 -0.59746673101E+03  0.60295089206E+02 -0.83585871360E+03  0.10335768219E+04  0.94969811651E+02 0.  0.
         23    2    4    4    0    0  0.27270726638E+03  0.13850236903E+03 -0.89534255258E+03  0.95051164817E+03  0.91005205813E+02 0.  0.
          3    1    3    3  502    0  0.18594993393E+03 -0.11643031831E+03  0.30013240078E+03  0.37176989516E+03  0.00000000000E+00 0. -1.
         -4    1    3    3    0  502  0.13880953071E+03 -0.82367139934E+02  0.36690543365E+03  0.40083915577E+03  0.00000000000E+00 0.  1.
         13    1    5    5    0    0 -0.41539117660E+02 -0.79779751265E+01 -0.28685273546E+02  0.51107644257E+02  0.00000000000E+00 0. -1.
        -13    1    5    5    0    0 -0.55592761335E+03  0.68273064333E+02 -0.80717344006E+03  0.98246917760E+03  0.00000000000E+00 0.  1.
          2    1    6    6  503    0 -0.84728199088E+00  0.74248215033E+01 -0.30554985132E+01  0.80735328260E+01  0.00000000000E+00 0. -1.
         -2    1    6    6    0  503  0.27355454837E+03  0.13107754753E+03 -0.89228705407E+03  0.94243811535E+03  0.00000000000E+00 0.  1.
<mgrwt>
<rscale>  0 0.25430174E+04</rscale>
<asrwt>0</asrwt>
<pdfrwt beam="1">  1        3 0.29391238E+00 0.25430174E+04</pdfrwt>
<pdfrwt beam="2">  1       -4 0.13019493E+00 0.25430174E+04</pdfrwt>
<totfact> 0.36576140E-02</totfact>
</mgrwt>
</event>
<event>
12    5  0.5029243E-008  0.1270176E+04  0.7818608E-02  0.9053556E-01
          1   -1    0    0  501    0  0.00000000000E+00  0.00000000000E+00  0.24240353760E+04  0.24240353760E+04  0.00000000000E+00 0. -1.
         -2   -1    0    0    0  501 -0.00000000000E+00 -0.00000000000E+00 -0.16639068704E+03  0.16639068704E+03  0.00000000000E+00 0.  1.
        -24    2    1    2    0    0 -0.29633672002E+03 -0.17266246781E+03  0.41547140655E+03  0.54457299992E+03  0.79470014256E+02 0.  0.
        254    2    1    2    0    0  0.29633672002E+03  0.17266246781E+03  0.18421732824E+04  0.20458530631E+04  0.82114832644E+03 0.  0.
         23    2    4    4    0    0  0.56220795353E+03  0.41274693449E+02  0.13159953842E+04  0.14349490950E+04  0.97229987798E+02 0.  0.
         23    2    4    4    0    0 -0.26587123352E+03  0.13138777436E+03  0.52617789820E+03  0.61090396816E+03  0.91598131494E+02 0.  0.
          3    1    3    3  502    0 -0.89993731124E+01 -0.17252666908E+02  0.53803548119E+02  0.57214202975E+02  0.00000000000E+00 0. -1.
         -4    1    3    3    0  502 -0.28733734690E+03 -0.15540980090E+03  0.36166785843E+03  0.48735879695E+03  0.00000000000E+00 0.  1.
         13    1    5    5    0    0  0.34295745867E+03  0.12020414891E+02  0.68191528338E+03  0.76339554789E+03  0.00000000000E+00 0. -1.
        -13    1    5    5    0    0  0.21925049487E+03  0.29254278559E+02  0.63408010086E+03  0.67155354710E+03  0.00000000000E+00 0.  1.
          1    1    6    6  503    0 -0.24313050183E+03  0.13115121091E+03  0.42275202901E+03  0.50500728616E+03  0.00000000000E+00 0. -1.
         -1    1    6    6    0  503 -0.22740731684E+02  0.23656344676E+00  0.10342586919E+03  0.10589668200E+03  0.00000000000E+00 0.  1.
<mgrwt>
<rscale>  0 0.12701762E+04</rscale>
<asrwt>0</asrwt>
<pdfrwt beam="1">  1        1 0.37292849E+00 0.12701762E+04</pdfrwt>
<pdfrwt beam="2">  1       -2 0.25598569E-01 0.12701762E+04</pdfrwt>
<totfact> 0.18246579E+01</totfact>
</mgrwt>
</event>
<event>
12    5  0.5029243E-008  0.1312073E+04  0.7818608E-02  0.9020046E-01
          1   -1    0    0  501    0  0.00000000000E+00  0.00000000000E+00  0.38730843896E+03  0.38730843896E+03  0.00000000000E+00 0. -1.
         -2   -1    0    0    0  501 -0.00000000000E+00 -0.00000000000E+00 -0.11112175594E+04  0.11112175594E+04  0.00000000000E+00 0.  1.
        -24    2    1    2    0    0 -0.10434653854E+02 -0.33257262009E+03 -0.22625847198E+03  0.41063823850E+03  0.81959972797E+02 0.  0.
        254    2    1    2    0    0  0.10434653854E+02  0.33257262009E+03 -0.49765064847E+03  0.10878877599E+04  0.90836676542E+03 0.  0.
         23    2    4    4    0    0 -0.32675620673E+03  0.25724721630E+03  0.54999573429E+02  0.42955187096E+03  0.92434343398E+02 0.  0.
         23    2    4    4    0    0  0.33719086058E+03  0.75325403788E+02 -0.55265022190E+03  0.65833588891E+03  0.92802381163E+02 0.  0.
          3    1    3    3  502    0 -0.32526585476E+02 -0.10251272636E+03 -0.43586050077E+02  0.11604560134E+03  0.00000000000E+00 0. -1.
         -2    1    3    3    0  502  0.22091931623E+02 -0.23005989373E+03 -0.18267242191E+03  0.29459263716E+03  0.00000000000E+00 0.  1.
         13    1    5    5    0    0 -0.20793066288E+03  0.20100023132E+03  0.69076890793E+02  0.29733461016E+03  0.00000000000E+00 0. -1.
        -13    1    5    5    0    0 -0.11882554385E+03  0.56246984981E+02 -0.14077317364E+02  0.13221726080E+03  0.00000000000E+00 0.  1.
          2    1    6    6  503    0  0.97831950256E+02  0.43038563836E+02 -0.10580487540E+03  0.15039308537E+03  0.00000000000E+00 0.  1.
         -2    1    6    6    0  503  0.23935891033E+03  0.32286839952E+02 -0.44684534649E+03  0.50794280354E+03  0.00000000000E+00 0. -1.
<mgrwt>
<rscale>  0 0.13120731E+04</rscale>
<asrwt>0</asrwt>
<pdfrwt beam="1">  1        1 0.59585915E-01 0.13120731E+04</pdfrwt>
<pdfrwt beam="2">  1       -2 0.17095654E+00 0.13120731E+04</pdfrwt>
<totfact> 0.11257506E+01</totfact>
</mgrwt>
</event>
<event>
12    5  0.5029243E-008  0.1256487E+04  0.7818608E-02  0.9064802E-01
          1   -1    0    0  501    0  0.00000000000E+00  0.00000000000E+00  0.18383877512E+04  0.18383877512E+04  0.00000000000E+00 0. -1.
         -2   -1    0    0    0  501 -0.00000000000E+00 -0.00000000000E+00 -0.21469342667E+03  0.21469342667E+03  0.00000000000E+00 0.  1.
        -24    2    1    2    0    0  0.18155863106E+03 -0.20068033608E+03  0.20668246650E+03  0.34928773821E+03  0.77769841870E+02 0.  0.
        254    2    1    2    0    0 -0.18155863106E+03  0.20068033608E+03  0.14170118580E+04  0.17037934396E+04  0.90650611991E+03 0.  0.
         23    2    4    4    0    0 -0.47491868680E+03  0.29325115857E+02  0.40220534952E+03  0.62980075078E+03  0.92044125387E+02 0.  0.
         23    2    4    4    0    0  0.29336005574E+03  0.17135522022E+03  0.10148065085E+04  0.10739926888E+04  0.90583178634E+02 0.  0.
          3    1    3    3  502    0 -0.38833301656E-02  0.38408634874E+01 -0.28330619826E+01  0.47726813854E+01  0.00000000000E+00 0. -1.
         -4    1    3    3    0  502  0.18156251439E+03 -0.20452119956E+03  0.20951552848E+03  0.34451505682E+03  0.00000000000E+00 0.  1.
         13    1    5    5    0    0 -0.43877553810E+03  0.55301629944E+01  0.34568159606E+03  0.55861464481E+03  0.00000000000E+00 0. -1.
        -13    1    5    5    0    0 -0.36143148699E+02  0.23794952863E+02  0.56523753454E+02  0.71186105977E+02  0.00000000000E+00 0.  1.
          4    1    6    6  503    0  0.14169186949E+03  0.10475249045E+03  0.39669046931E+03  0.43406566159E+03  0.00000000000E+00 0.  1.
         -4    1    6    6    0  503  0.15166818625E+03  0.66602729769E+02  0.61811603916E+03  0.63992702724E+03  0.00000000000E+00 0. -1.
<mgrwt>
<rscale>  0 0.12564868E+04</rscale>
<asrwt>0</asrwt>
<pdfrwt beam="1">  1        1 0.28282887E+00 0.12564868E+04</pdfrwt>
<pdfrwt beam="2">  1       -2 0.33029759E-01 0.12564868E+04</pdfrwt>
<totfact> 0.28419817E+01</totfact>
</mgrwt>
</event>
<event>
12    5  0.5029243E-008  0.2363504E+04  0.7818608E-02  0.8453295E-01
         -2   -1    0    0    0  501 -0.00000000000E+00  0.00000000000E+00  0.49930752507E+03  0.49930752507E+03  0.00000000000E+00 0.  1.
          1   -1    0    0  501    0  0.00000000000E+00 -0.00000000000E+00 -0.27969492760E+04  0.27969492760E+04  0.00000000000E+00 0. -1.
        -24    2    1    2    0    0  0.33503523960E+03 -0.89903357536E+02 -0.23050137139E+04  0.23323121850E+04  0.79124468248E+02 0.  0.
        254    2    1    2    0    0 -0.33503523960E+03  0.89903357536E+02  0.73719629094E+01  0.96394461614E+03  0.89933511645E+03 0.  0.
         23    2    4    4    0    0 -0.33029409627E+03 -0.35789785128E+03 -0.69524556780E+02  0.50019541323E+03  0.90425247753E+02 0.  0.
         23    2    4    4    0    0 -0.47411433250E+01  0.44780120882E+03  0.76896519689E+02  0.46374920292E+03  0.92746144953E+02 0.  0.
          1    1    3    3  502    0  0.26305082985E+03 -0.80053868901E+02 -0.19972764636E+04  0.20161144891E+04  0.00000000000E+00 0. -1.
         -2    1    3    3    0  502  0.71984409745E+02 -0.98494886352E+01 -0.30773725024E+03  0.31619769584E+03  0.00000000000E+00 0.  1.
         13    1    5    5    0    0 -0.11740975675E+03 -0.74215865010E+02 -0.68882686618E+00  0.13890111620E+03  0.00000000000E+00 0. -1.
        -13    1    5    5    0    0 -0.21288433952E+03 -0.28368198627E+03 -0.68835729914E+02  0.36129429702E+03  0.00000000000E+00 0.  1.
          3    1    6    6  503    0  0.21067420437E+02  0.40178903363E+03  0.52941361499E+02  0.40580913187E+03  0.00000000000E+00 0. -1.
         -3    1    6    6    0  503 -0.25808563762E+02  0.46012175190E+02  0.23955158191E+02  0.57940071048E+02  0.00000000000E+00 0.  1.
<mgrwt>
<rscale>  0 0.23635040E+04</rscale>
<asrwt>0</asrwt>
<pdfrwt beam="1">  1        1 0.43029990E+00 0.23635040E+04</pdfrwt>
<pdfrwt beam="2">  1       -2 0.76816539E-01 0.23635040E+04</pdfrwt>
<totfact> 0.10021566E+00</totfact>
</mgrwt>
</event>
<event>
12    5  0.5029243E-008  0.1329666E+04  0.7818608E-02  0.9006365E-01
         -2   -1    0    0    0  501 -0.00000000000E+00  0.00000000000E+00  0.40554182567E+03  0.40554182567E+03  0.00000000000E+00 0.  1.
          1   -1    0    0  501    0  0.00000000000E+00 -0.00000000000E+00 -0.10899073293E+04  0.10899073293E+04  0.00000000000E+00 0. -1.
        -24    2    1    2    0    0 -0.18167365491E+03 -0.29189006292E+03 -0.11103913388E+03  0.36950065890E+03  0.77433338786E+02 0.  0.
        254    2    1    2    0    0  0.18167365491E+03  0.29189006292E+03 -0.57332636974E+03  0.11259484961E+04  0.90600869965E+03 0.  0.
         23    2    4    4    0    0  0.30011397907E+03 -0.68642762491E+02  0.11207143476E+03  0.33726420849E+03  0.80043179359E+02 0.  0.
         23    2    4    4    0    0 -0.11844032417E+03  0.36053282541E+03 -0.68539780450E+03  0.78868428758E+03  0.90778447201E+02 0.  0.
          3    1    3    3  502    0  0.17432595509E+01  0.29852428479E+01  0.23638070201E+01  0.41878648917E+01  0.00000000000E+00 0. -1.
         -4    1    3    3    0  502 -0.18341691446E+03 -0.29487530577E+03 -0.11340294090E+03  0.36531279401E+03  0.00000000000E+00 0.  1.
         13    1    5    5    0    0  0.90938691519E+02  0.72611978093E+01  0.79092196486E+01  0.91570335613E+02  0.00000000000E+00 0. -1.
        -13    1    5    5    0    0  0.20917528755E+03 -0.75903960301E+02  0.10416221511E+03  0.24569387288E+03  0.00000000000E+00 0.  1.
          3    1    6    6  503    0 -0.84890597810E+02  0.17221774423E+03 -0.26942802617E+03  0.33084260051E+03  0.00000000000E+00 0. -1.
         -3    1    6    6    0  503 -0.33549726356E+02  0.18831508118E+03 -0.41596977833E+03  0.45784168707E+03  0.00000000000E+00 0.  1.
<mgrwt>
<rscale>  0 0.13296661E+04</rscale>
<asrwt>0</asrwt>
<pdfrwt beam="1">  1        1 0.16767805E+00 0.13296661E+04</pdfrwt>
<pdfrwt beam="2">  1       -2 0.62391050E-01 0.13296661E+04</pdfrwt>
<totfact> 0.26438031E+01</totfact>
</mgrwt>
</event>
<event>
12    5  0.5029243E-008  0.1765295E+04  0.7818608E-02  0.8724976E-01
         -2   -1    0    0    0  501 -0.00000000000E+00  0.00000000000E+00  0.34656985241E+03  0.34656985241E+03  0.00000000000E+00 0.  1.
          1   -1    0    0  501    0  0.00000000000E+00 -0.00000000000E+00 -0.22479351326E+04  0.22479351326E+04  0.00000000000E+00 0. -1.
        -24    2    1    2    0    0 -0.50193833818E+03 -0.25105014007E+03 -0.20608374543E+03  0.60385378867E+03  0.84856465839E+02 0.  0.
        254    2    1    2    0    0  0.50193833818E+03  0.25105014007E+03 -0.16952815347E+04  0.19906511963E+04  0.87962744115E+03 0.  0.
         23    2    4    4    0    0  0.21334243008E+03  0.55484801811E+03 -0.11457680750E+04  0.12939997304E+04  0.90991784825E+02 0.  0.
         23    2    4    4    0    0  0.28859590809E+03 -0.30379787804E+03 -0.54951345975E+03  0.69665146593E+03  0.88189986187E+02 0.  0.
          1    1    3    3  502    0 -0.28866608817E+02 -0.12021154869E+02 -0.34914784993E+02  0.46870368892E+02  0.00000000000E+00 0. -1.
         -2    1    3    3    0  502 -0.47307172936E+03 -0.23902898520E+03 -0.17116896044E+03  0.55698341977E+03  0.00000000000E+00 0.  1.
         13    1    5    5    0    0  0.19032085978E+03  0.44132993361E+03 -0.98325083077E+03  0.10944296853E+04  0.00000000000E+00 0.  1.
        -13    1    5    5    0    0  0.23021570307E+02  0.11351808450E+03 -0.16251724422E+03  0.19957004504E+03  0.00000000000E+00 0. -1.
          3    1    6    6  503    0  0.84834622553E+02 -0.39618642669E+02 -0.14023463638E+03  0.16861881055E+03  0.00000000000E+00 0. -1.
         -3    1    6    6    0  503  0.20376128554E+03 -0.26417923537E+03 -0.40927882336E+03  0.52803265538E+03  0.00000000000E+00 0.  1.
<mgrwt>
<rscale>  0 0.17652949E+04</rscale>
<asrwt>0</asrwt>
<pdfrwt beam="1">  1        1 0.34583617E+00 0.17652949E+04</pdfrwt>
<pdfrwt beam="2">  1       -2 0.53318440E-01 0.17652949E+04</pdfrwt>
<totfact> 0.55709056E+00</totfact>
</mgrwt>
</event>
<event>
12    5  0.5029243E-008  0.2417722E+04  0.7818608E-02  0.8432898E-01
          3   -1    0    0  501    0  0.00000000000E+00  0.00000000000E+00  0.96219556116E+03  0.96219556116E+03  0.00000000000E+00 0. -1.
         -4   -1    0    0    0  501 -0.00000000000E+00 -0.00000000000E+00 -0.15187604248E+04  0.15187604248E+04  0.00000000000E+00 0.  1.
        -24    2    1    2    0    0 -0.90146446120E+03 -0.46339070729E+02 -0.78918041726E+03  0.12016022943E+04  0.79100306236E+02 0.  0.
        254    2    1    2    0    0  0.90146446120E+03  0.46339070729E+02  0.23261555362E+03  0.12793536916E+04  0.87627072770E+03 0.  0.
         23    2    4    4    0    0  0.99651224246E+03  0.23526948491E+03  0.18959430703E+03  0.10452629897E+04  0.90776299283E+02 0.  0.
         23    2    4    4    0    0 -0.95047781253E+02 -0.18893041418E+03  0.43021246587E+02  0.23409070192E+03  0.90657856508E+02 0.  0.
          1    1    3    3  502    0 -0.17573525361E+03  0.97749400116E+01 -0.18811500490E+03  0.25761537974E+03  0.00000000000E+00 0. -1.
         -4    1    3    3    0  502 -0.72572920759E+03 -0.56114010741E+02 -0.60106541236E+03  0.94398691458E+03  0.00000000000E+00 0.  1.
         13    1    5    5    0    0  0.87439432098E+03  0.20814004158E+03  0.13553600874E+03  0.90898719195E+03  0.00000000000E+00 0.  1.
        -13    1    5    5    0    0  0.12211792148E+03  0.27129443331E+02  0.54058298289E+02  0.13627579776E+03  0.00000000000E+00 0. -1.
          4    1    6    6  503    0 -0.79450207421E+02 -0.18334710545E+03  0.13547276845E+02  0.20027986730E+03  0.00000000000E+00 0.  1.
         -4    1    6    6    0  503 -0.15597573832E+02 -0.55833087329E+01  0.29473969742E+02  0.33810834627E+02  0.00000000000E+00 0. -1.
<mgrwt>
<rscale>  0 0.24177217E+04</rscale>
<asrwt>0</asrwt>
<pdfrwt beam="1">  1        3 0.14803009E+00 0.24177217E+04</pdfrwt>
<pdfrwt beam="2">  1       -4 0.23365545E+00 0.24177217E+04</pdfrwt>
<totfact> 0.54748516E-02</totfact>
</mgrwt>
</event>
<event>
12    5  0.5029243E-008  0.3851128E+04  0.7818608E-02  0.8035271E-01
         -2   -1    0    0    0  501 -0.00000000000E+00  0.00000000000E+00  0.20957159491E+04  0.20957159491E+04  0.00000000000E+00 0.  1.
          1   -1    0    0  501    0  0.00000000000E+00 -0.00000000000E+00 -0.17692269034E+04  0.17692269034E+04  0.00000000000E+00 0. -1.
        -24    2    1    2    0    0  0.86661553781E+03  0.13566067666E+04 -0.62478793147E+03  0.17285357354E+04  0.77919315150E+02 0.  0.
        254    2    1    2    0    0 -0.86661553781E+03 -0.13566067666E+04  0.95127697721E+03  0.21364071171E+04  0.10333939584E+04 0.  0.
         23    2    4    4    0    0 -0.10868931989E+04 -0.99720377147E+03  0.71250191983E+03  0.16410055437E+04  0.97406473270E+02 0.  0.
         23    2    4    4    0    0  0.22027766113E+03 -0.35940299511E+03  0.23877505739E+03  0.49540157340E+03  0.10352019132E+03 0.  0.
          3    1    3    3  502    0  0.72418322523E+03  0.10960744002E+04 -0.53343147892E+03  0.14178750217E+04  0.00000000000E+00 0. -1.
         -4    1    3    3    0  502  0.14243231258E+03  0.26053236636E+03 -0.91356452546E+02  0.31066071366E+03  0.00000000000E+00 0.  1.
         13    1    5    5    0    0 -0.25554775287E+02 -0.64979082602E+01  0.11766969998E+02  0.28874399295E+02  0.00000000000E+00 0.  1.
        -13    1    5    5    0    0 -0.10613384237E+04 -0.99070586321E+03  0.70073494983E+03  0.16121311444E+04  0.00000000000E+00 0. -1.
          4    1    6    6  503    0  0.21720625700E+02  0.16298752346E+01  0.15780746100E+02  0.26897472401E+02  0.00000000000E+00 0. -1.
         -4    1    6    6    0  503  0.19855703543E+03 -0.36103287034E+03  0.22299431129E+03  0.46850410100E+03  0.00000000000E+00 0.  1.
<mgrwt>
<rscale>  0 0.38511282E+04</rscale>
<asrwt>0</asrwt>
<pdfrwt beam="1">  1        1 0.27218875E+00 0.38511282E+04</pdfrwt>
<pdfrwt beam="2">  1       -2 0.32241784E+00 0.38511282E+04</pdfrwt>
<totfact> 0.68837721E-02</totfact>
</mgrwt>
</event>
<event>
12    5  0.5029243E-008  0.1150261E+04  0.7818608E-02  0.9157543E-01
          1   -1    0    0  501    0  0.00000000000E+00  0.00000000000E+00  0.35949266421E+03  0.35949266421E+03  0.00000000000E+00 0. -1.
         -2   -1    0    0    0  501 -0.00000000000E+00 -0.00000000000E+00 -0.92011583941E+03  0.92011583941E+03  0.00000000000E+00 0.  1.
        -24    2    1    2    0    0 -0.13371703612E+03  0.69930754790E+02  0.67709422327E+02  0.18286557495E+03  0.78004464089E+02 0.  0.
        254    2    1    2    0    0  0.13371703612E+03 -0.69930754790E+02 -0.62833259753E+03  0.10967429287E+04  0.88615610490E+03 0.  0.
         23    2    4    4    0    0  0.27529907311E+03  0.25915824914E+03 -0.61385950854E+03  0.72675214530E+03  0.91611171371E+02 0.  0.
         23    2    4    4    0    0 -0.14158203699E+03 -0.32908900393E+03 -0.14473088994E+02  0.36999078337E+03  0.91316284244E+02 0.  0.
          3    1    3    3  502    0 -0.13091372616E+03  0.64999384199E+02  0.35835570105E+02  0.15049090248E+03  0.00000000000E+00 0. -1.
         -4    1    3    3    0  502 -0.28033099586E+01  0.49313705911E+01  0.31873852222E+02  0.32374672479E+02  0.00000000000E+00 0.  1.
         13    1    5    5    0    0  0.36356576964E+02 -0.55562527458E-03 -0.63943916384E+02  0.73556951619E+02  0.00000000000E+00 0. -1.
        -13    1    5    5    0    0  0.23894249614E+03  0.25915880477E+03 -0.54991559215E+03  0.65319519368E+03  0.00000000000E+00 0.  1.
          3    1    6    6  503    0  0.89718972507E+01 -0.17629144659E+01  0.18602990543E+01  0.93307834753E+01  0.00000000000E+00 0. -1.
         -3    1    6    6    0  503 -0.15055393424E+03 -0.32732608946E+03 -0.16333388048E+02  0.36065999989E+03  0.00000000000E+00 0.  1.
<mgrwt>
<rscale>  0 0.11502607E+04</rscale>
<asrwt>0</asrwt>
<pdfrwt beam="1">  1        1 0.55306564E-01 0.11502607E+04</pdfrwt>
<pdfrwt beam="2">  1       -2 0.14155628E+00 0.11502607E+04</pdfrwt>
<totfact> 0.20904255E+01</totfact>
</mgrwt>
</event>
<event>
12    5  0.5029243E-008  0.2096475E+04  0.7818608E-02  0.8562798E-01
          1   -1    0    0  501    0  0.00000000000E+00  0.00000000000E+00  0.27909780965E+04  0.27909780965E+04  0.00000000000E+00 0. -1.
         -2   -1    0    0    0  501 -0.00000000000E+00 -0.00000000000E+00 -0.39369776577E+03  0.39369776577E+03  0.00000000000E+00 0.  1.
        -24    2    1    2    0    0 -0.26593671942E+03 -0.17368257439E+02  0.22475226385E+04  0.22646683178E+04  0.79627782962E+02 0.  0.
        254    2    1    2    0    0  0.26593671942E+03  0.17368257439E+02  0.14975769223E+03  0.92000754451E+03  0.86773413006E+03 0.  0.
         23    2    4    4    0    0  0.19221543935E+03 -0.26071539248E+03  0.40468007612E+03  0.52585501013E+03  0.88533816561E+02 0.  0.
         23    2    4    4    0    0  0.73721280072E+02  0.27808364992E+03 -0.25492238389E+03  0.39415253438E+03  0.87209260205E+02 0.  0.
          3    1    3    3  502    0 -0.16020572962E+03  0.28663577268E+02  0.13418216766E+04  0.13516556101E+04  0.00000000000E+00 0. -1.
         -4    1    3    3    0  502 -0.10573098980E+03 -0.46031834707E+02  0.90570096196E+03  0.91301270775E+03  0.00000000000E+00 0.  1.
         13    1    5    5    0    0  0.43836813639E+02 -0.51053095865E+02  0.35411814196E+02  0.76039998764E+02  0.00000000000E+00 0. -1.
        -13    1    5    5    0    0  0.14837862571E+03 -0.20966229661E+03  0.36926826192E+03  0.44981501137E+03  0.00000000000E+00 0.  1.
          4    1    6    6  503    0  0.47954566474E+02  0.49387074035E+02 -0.42116792796E+02  0.80700357886E+02  0.00000000000E+00 0.  1.
         -4    1    6    6    0  503  0.25766713597E+02  0.22869657588E+03 -0.21280559109E+03  0.31345217650E+03  0.00000000000E+00 0. -1.
<mgrwt>
<rscale>  0 0.20964750E+04</rscale>
<asrwt>0</asrwt>
<pdfrwt beam="1">  1        1 0.42938123E+00 0.20964750E+04</pdfrwt>
<pdfrwt beam="2">  1       -2 0.60568889E-01 0.20964750E+04</pdfrwt>
<totfact> 0.17371383E+00</totfact>
</mgrwt>
</event>
<event>
12    5  0.5029243E-008  0.1842104E+04  0.7818608E-02  0.8684224E-01
          1   -1    0    0  501    0  0.00000000000E+00  0.00000000000E+00  0.16607669645E+04  0.16607669645E+04  0.00000000000E+00 0. -1.
         -4   -1    0    0    0  501 -0.00000000000E+00 -0.00000000000E+00 -0.51081011367E+03  0.51081011367E+03  0.00000000000E+00 0.  1.
        -24    2    1    2    0    0 -0.63473207028E+03 -0.64088915851E+02  0.11330467071E+03  0.65296640612E+03  0.80839278498E+02 0.  0.
        254    2    1    2    0    0  0.63473207028E+03  0.64088915851E+02  0.10366521802E+04  0.15186106721E+04  0.90804099056E+03 0.  0.
         23    2    4    4    0    0  0.20055834759E+03  0.19854551057E+03  0.10123795600E+04  0.10549087494E+04  0.90973213374E+02 0.  0.
         23    2    4    4    0    0  0.43417372268E+03 -0.13445659471E+03  0.24272620173E+02  0.46370192267E+03  0.88571528519E+02 0.  0.
          3    1    3    3  502    0 -0.57369442878E+02  0.90180034065E+01  0.29023513699E+02  0.64922582427E+02  0.00000000000E+00 0. -1.
         -4    1    3    3    0  502 -0.57736262740E+03 -0.73106919258E+02  0.84281157010E+02  0.58804382370E+03  0.00000000000E+00 0.  1.
         13    1    5    5    0    0  0.15140368771E+03  0.87111344319E+02  0.60539546430E+03  0.63009136731E+03  0.00000000000E+00 0. -1.
        -13    1    5    5    0    0  0.49154659883E+02  0.11143416625E+03  0.40698409568E+03  0.42481738210E+03  0.00000000000E+00 0.  1.
          3    1    6    6  503    0  0.38780409544E+03 -0.14746039107E+03  0.22858098866E+02  0.41552265409E+03  0.00000000000E+00 0. -1.
         -3    1    6    6    0  503  0.46369627244E+02  0.13003796358E+02  0.14145213067E+01  0.48179268581E+02  0.00000000000E+00 0.  1.
<mgrwt>
<rscale>  0 0.18421038E+04</rscale>
<asrwt>0</asrwt>
<pdfrwt beam="1">  1        1 0.25550261E+00 0.18421038E+04</pdfrwt>
<pdfrwt beam="2">  1       -4 0.78586172E-01 0.18421038E+04</pdfrwt>
<totfact> 0.33820226E+00</totfact>
</mgrwt>
</event>
<event>
12    5  0.5029243E-008  0.2225759E+04  0.7818608E-02  0.8507782E-01
          1   -1    0    0  501    0  0.00000000000E+00  0.00000000000E+00  0.15360471168E+04  0.15360471168E+04  0.00000000000E+00 0. -1.
         -2   -1    0    0    0  501 -0.00000000000E+00 -0.00000000000E+00 -0.80629102188E+03  0.80629102188E+03  0.00000000000E+00 0.  1.
        -24    2    1    2    0    0  0.33549812263E+02 -0.20447388690E+03 -0.64837066501E+03  0.68518037416E+03  0.78437653988E+02 0.  0.
        254    2    1    2    0    0 -0.33549812263E+02  0.20447388690E+03  0.13781267599E+04  0.16571577645E+04  0.89666232759E+03 0.  0.
         23    2    4    4    0    0  0.32866469638E+03  0.29273126064E+03  0.38278085219E+03  0.59052157910E+03  0.92100385330E+02 0.  0.
         23    2    4    4    0    0 -0.36221450864E+03 -0.88257373742E+02  0.99534590773E+03  0.10666361854E+04  0.89501741305E+02 0.  0.
          3    1    3    3  502    0 -0.21601364159E+02 -0.10020550591E+03 -0.26776939440E+03  0.28671974282E+03  0.00000000000E+00 0. -1.
         -4    1    3    3    0  502  0.55151176422E+02 -0.10426838099E+03 -0.38060127061E+03  0.39846063134E+03  0.00000000000E+00 0.  1.
         13    1    5    5    0    0  0.17630829183E+03  0.19488718974E+03  0.17929576872E+03  0.31813928266E+03  0.00000000000E+00 0. -1.
        -13    1    5    5    0    0  0.15235640455E+03  0.97844070898E+02  0.20348508347E+03  0.27238229643E+03  0.00000000000E+00 0.  1.
          1    1    6    6  503    0 -0.26801013997E+03 -0.28970727487E+02  0.64608417455E+03  0.70006678166E+03  0.00000000000E+00 0. -1.
         -1    1    6    6    0  503 -0.94204368668E+02 -0.59286646255E+02  0.34926173318E+03  0.36656940375E+03  0.00000000000E+00 0.  1.
<mgrwt>
<rscale>  0 0.22257592E+04</rscale>
<asrwt>0</asrwt>
<pdfrwt beam="1">  1        1 0.23631494E+00 0.22257592E+04</pdfrwt>
<pdfrwt beam="2">  1       -2 0.12404477E+00 0.22257592E+04</pdfrwt>
<totfact> 0.24112023E+00</totfact>
</mgrwt>
</event>
<event>
12    5  0.5029243E-008  0.2794473E+04  0.7818608E-02  0.8304986E-01
         -2   -1    0    0    0  501 -0.00000000000E+00  0.00000000000E+00  0.67299085531E+03  0.67299085531E+03  0.00000000000E+00 0.  1.
          1   -1    0    0  501    0  0.00000000000E+00 -0.00000000000E+00 -0.29008859276E+04  0.29008859276E+04  0.00000000000E+00 0. -1.
        -24    2    1    2    0    0 -0.39833030116E+03  0.45138020389E+03 -0.24002272203E+04  0.24758834940E+04  0.80605516037E+02 0.  0.
        254    2    1    2    0    0  0.39833030116E+03 -0.45138020389E+03  0.17233214806E+03  0.10979932889E+04  0.90193113704E+03 0.  0.
         23    2    4    4    0    0 -0.82878536111E+02 -0.29040868173E+03 -0.27266549984E+03  0.41696557781E+03  0.91146936875E+02 0.  0.
         23    2    4    4    0    0  0.48120883727E+03 -0.16097152216E+03  0.44499764790E+03  0.68102771111E+03  0.91115644364E+02 0.  0.
          1    1    3    3  502    0 -0.13021423422E+03  0.20673043750E+03 -0.98739115496E+03  0.10171698548E+04  0.00000000000E+00 0. -1.
         -4    1    3    3    0  502 -0.26811606694E+03  0.24464976640E+03 -0.14128360654E+04  0.14587136392E+04  0.00000000000E+00 0.  1.
         13    1    5    5    0    0 -0.96240598385E+02 -0.20598648672E+03 -0.17317224771E+03  0.28579942769E+03  0.00000000000E+00 0.  1.
        -13    1    5    5    0    0  0.13362062274E+02 -0.84422195011E+02 -0.99493252128E+02  0.13116615012E+03  0.00000000000E+00 0. -1.
          3    1    6    6  503    0  0.14205030741E+03 -0.99239933024E+01  0.98148074911E+02  0.17294455784E+03  0.00000000000E+00 0. -1.
         -3    1    6    6    0  503  0.33915852986E+03 -0.15104752886E+03  0.34684957299E+03  0.50808315327E+03  0.00000000000E+00 0.  1.
<mgrwt>
<rscale>  0 0.27944729E+04</rscale>
<asrwt>0</asrwt>
<pdfrwt beam="1">  1        1 0.44629015E+00 0.27944729E+04</pdfrwt>
<pdfrwt beam="2">  1       -2 0.10353705E+00 0.27944729E+04</pdfrwt>
<totfact> 0.40845497E-01</totfact>
</mgrwt>
</event>
<event>
12    5  0.5029243E-008  0.1995114E+04  0.7818608E-02  0.8608909E-01
         -4   -1    0    0    0  501 -0.00000000000E+00  0.00000000000E+00  0.92023960850E+03  0.92023960850E+03  0.00000000000E+00 0.  1.
          1   -1    0    0  501    0  0.00000000000E+00 -0.00000000000E+00 -0.10813700683E+04  0.10813700683E+04  0.00000000000E+00 0. -1.
        -24    2    1    2    0    0 -0.58549397498E+03  0.42324307291E+03  0.25407905800E+03  0.77018477919E+03  0.81795677667E+02 0.  0.
        254    2    1    2    0    0  0.58549397498E+03 -0.42324307291E+03 -0.41520951783E+03  0.12314248976E+04  0.90668100305E+03 0.  0.
         23    2    4    4    0    0  0.18300734881E+03  0.17799486605E+03  0.14986442999E+03  0.30886969592E+03  0.88132171317E+02 0.  0.
         23    2    4    4    0    0  0.40248662616E+03 -0.60123793896E+03 -0.56507394782E+03  0.92255520171E+03  0.91197533990E+02 0.  0.
          3    1    3    3  502    0 -0.31393602319E+03  0.23646901625E+03  0.95681780030E+02  0.40451010535E+03  0.00000000000E+00 0. -1.
         -4    1    3    3    0  502 -0.27155795179E+03  0.18677405667E+03  0.15839727797E+03  0.36567467384E+03  0.00000000000E+00 0.  1.
         13    1    5    5    0    0  0.73295919044E+02  0.10645475023E+03  0.33137034228E+02  0.13342776560E+03  0.00000000000E+00 0.  1.
        -13    1    5    5    0    0  0.10971142977E+03  0.71540115822E+02  0.11672739576E+03  0.17544193032E+03  0.00000000000E+00 0. -1.
          1    1    6    6  503    0  0.24032504785E+03 -0.41255127445E+03 -0.41048095028E+03  0.62964219459E+03  0.00000000000E+00 0. -1.
         -1    1    6    6    0  503  0.16216157832E+03 -0.18868666452E+03 -0.15459299754E+03  0.29291300711E+03  0.00000000000E+00 0.  1.
<mgrwt>
<rscale>  0 0.19951136E+04</rscale>
<asrwt>0</asrwt>
<pdfrwt beam="1">  1        1 0.16636463E+00 0.19951136E+04</pdfrwt>
<pdfrwt beam="2">  1       -4 0.14157532E+00 0.19951136E+04</pdfrwt>
<totfact> 0.20480228E+00</totfact>
</mgrwt>
</event>
<event>
12    5  0.5029243E-008  0.1436017E+04  0.7818608E-02  0.8928153E-01
          1   -1    0    0  501    0  0.00000000000E+00  0.00000000000E+00  0.44183520613E+03  0.44183520613E+03  0.00000000000E+00 0. -1.
         -2   -1    0    0    0  501 -0.00000000000E+00 -0.00000000000E+00 -0.11668059803E+04  0.11668059803E+04  0.00000000000E+00 0.  1.
        -24    2    1    2    0    0 -0.21585908919E+03  0.20701528536E+03  0.14646104614E+03  0.34240023322E+03  0.79602807194E+02 0.  0.
        254    2    1    2    0    0  0.21585908919E+03 -0.20701528536E+03 -0.87143182029E+03  0.12662409532E+04  0.86863240750E+03 0.  0.
         23    2    4    4    0    0  0.54536737461E+03 -0.10877638839E+03 -0.55073126235E+03  0.78790937080E+03  0.90765507233E+02 0.  0.
         23    2    4    4    0    0 -0.32950828542E+03 -0.98238896973E+02 -0.32070055794E+03  0.47833158239E+03  0.87895755364E+02 0.  0.
          3    1    3    3  502    0 -0.16866913350E+03  0.17834680638E+03  0.14894935839E+03  0.28712849267E+03  0.00000000000E+00 0. -1.
         -4    1    3    3    0  502 -0.47189955691E+02  0.28668478988E+02 -0.24883122460E+01  0.55271740550E+02  0.00000000000E+00 0.  1.
         13    1    5    5    0    0  0.31370862405E+03 -0.23219869788E+02 -0.27579693317E+03  0.41834938928E+03  0.00000000000E+00 0.  1.
        -13    1    5    5    0    0  0.23165875056E+03 -0.85556518603E+02 -0.27493432918E+03  0.36955998153E+03  0.00000000000E+00 0. -1.
          3    1    6    6  503    0 -0.18148785668E+03 -0.21730807113E+02 -0.12568003452E+03  0.22182322055E+03  0.00000000000E+00 0. -1.
         -3    1    6    6    0  503 -0.14802042874E+03 -0.76508089860E+02 -0.19502052341E+03  0.25650836184E+03  0.00000000000E+00 0.  1.
<mgrwt>
<rscale>  0 0.14360167E+04</rscale>
<asrwt>0</asrwt>
<pdfrwt beam="1">  1        1 0.67974648E-01 0.14360167E+04</pdfrwt>
<pdfrwt beam="2">  1       -2 0.17950861E+00 0.14360167E+04</pdfrwt>
<totfact> 0.81449304E+00</totfact>
</mgrwt>
</event>
<event>
12    5  0.5029243E-008  0.2536435E+04  0.7818608E-02  0.8390119E-01
         -2   -1    0    0    0  501 -0.00000000000E+00  0.00000000000E+00  0.12027367346E+04  0.12027367346E+04  0.00000000000E+00 0.  1.
          1   -1    0    0  501    0  0.00000000000E+00 -0.00000000000E+00 -0.13372628072E+04  0.13372628072E+04  0.00000000000E+00 0. -1.
        -24    2    1    2    0    0  0.87907110876E+03  0.49416261050E+03  0.35911614420E+03  0.10736302792E+04  0.82188024976E+02 0.  0.
        254    2    1    2    0    0 -0.87907110876E+03 -0.49416261050E+03 -0.49364221674E+03  0.14663692626E+04  0.94318263146E+03 0.  0.
         23    2    4    4    0    0 -0.61803762611E+02 -0.19462320531E+02 -0.50439827877E+03  0.51674257675E+03  0.91688494378E+02 0.  0.
         23    2    4    4    0    0 -0.81726734615E+03 -0.47470028997E+03  0.10756062039E+02  0.94962668585E+03  0.91699886766E+02 0.  0.
          3    1    3    3  502    0  0.77199927879E+03  0.42631732474E+03  0.28501407108E+03  0.92680222731E+03  0.00000000000E+00 0. -1.
         -2    1    3    3    0  502  0.10707182997E+03  0.67845285768E+02  0.74102073119E+02  0.14682805186E+03  0.00000000000E+00 0.  1.
         13    1    5    5    0    0 -0.67204227031E+02 -0.48389195159E+02 -0.37767144874E+03  0.38664408120E+03  0.00000000000E+00 0. -1.
        -13    1    5    5    0    0  0.54004644206E+01  0.28926874628E+02 -0.12672683004E+03  0.13009849554E+03  0.00000000000E+00 0.  1.
          2    1    6    6  503    0 -0.69676107626E+02 -0.19055516100E+02 -0.14868318790E+02  0.73749166581E+02  0.00000000000E+00 0.  1.
         -2    1    6    6    0  503 -0.74759123852E+03 -0.45564477387E+03  0.25624380829E+02  0.87587751927E+03  0.00000000000E+00 0. -1.
<mgrwt>
<rscale>  0 0.25364346E+04</rscale>
<asrwt>0</asrwt>
<pdfrwt beam="1">  1        1 0.20573274E+00 0.25364346E+04</pdfrwt>
<pdfrwt beam="2">  1       -2 0.18503642E+00 0.25364346E+04</pdfrwt>
<totfact> 0.11076277E+00</totfact>
</mgrwt>
</event>
<event>
12    5  0.5029243E-008  0.1367019E+04  0.7818608E-02  0.8978044E-01
         -2   -1    0    0    0  501 -0.00000000000E+00  0.00000000000E+00  0.28483452614E+03  0.28483452614E+03  0.00000000000E+00 0.  1.
          1   -1    0    0  501    0  0.00000000000E+00 -0.00000000000E+00 -0.16401996312E+04  0.16401996312E+04  0.00000000000E+00 0. -1.
        -24    2    1    2    0    0 -0.26398890770E+03 -0.25729076075E+03 -0.56053579642E+03  0.67482290663E+03  0.72779786233E+02 0.  0.
        254    2    1    2    0    0  0.26398890770E+03  0.25729076075E+03 -0.79482930863E+03  0.12502112507E+04  0.89184407975E+03 0.  0.
         23    2    4    4    0    0  0.33761858885E+03  0.21818305235E+02  0.59611691641E+02  0.35611803903E+03  0.93830453256E+02 0.  0.
         23    2    4    4    0    0 -0.73629681154E+02  0.23547245551E+03 -0.85444100027E+03  0.89409321168E+03  0.92003483449E+02 0.  0.
          3    1    3    3  502    0 -0.14211919966E+03 -0.15710639037E+03 -0.38003887311E+03  0.43509749469E+03  0.00000000000E+00 0. -1.
         -4    1    3    3    0  502 -0.12186970803E+03 -0.10018437038E+03 -0.18049692331E+03  0.23972541194E+03  0.00000000000E+00 0.  1.
         13    1    5    5    0    0  0.27823459395E+03  0.10438523847E+02  0.11191241632E+02  0.27865515595E+03  0.00000000000E+00 0. -1.
        -13    1    5    5    0    0  0.59383994906E+02  0.11379781388E+02  0.48420450009E+02  0.77462883076E+02  0.00000000000E+00 0.  1.
          4    1    6    6  503    0 -0.80821277688E+02  0.22405073021E+03 -0.70714649955E+03  0.74618160019E+03  0.00000000000E+00 0. -1.
         -4    1    6    6    0  503  0.71915965338E+01  0.11421725301E+02 -0.14729450072E+03  0.14791161149E+03  0.00000000000E+00 0.  1.
<mgrwt>
<rscale>  0 0.13670194E+04</rscale>
<asrwt>0</asrwt>
<pdfrwt beam="1">  1        1 0.25233840E+00 0.13670194E+04</pdfrwt>
<pdfrwt beam="2">  1       -2 0.43820697E-01 0.13670194E+04</pdfrwt>
<totfact> 0.22188172E+01</totfact>
</mgrwt>
</event>
<event>
12    5  0.5029243E-008  0.2109215E+04  0.7818608E-02  0.8557195E-01
          1   -1    0    0  501    0  0.00000000000E+00  0.00000000000E+00  0.13338193555E+04  0.13338193555E+04  0.00000000000E+00 0. -1.
         -2   -1    0    0    0  501 -0.00000000000E+00 -0.00000000000E+00 -0.83384344004E+03  0.83384344004E+03  0.00000000000E+00 0.  1.
        -24    2    1    2    0    0  0.19517464783E+03 -0.67918328160E+03  0.70393388200E+03  0.99962965627E+03  0.65980802595E+02 0.  0.
        254    2    1    2    0    0 -0.19517464783E+03  0.67918328160E+03 -0.20395796652E+03  0.11680331393E+04  0.90736954390E+03 0.  0.
         23    2    4    4    0    0 -0.17565246542E+03  0.54766326962E+03 -0.54076332799E+03  0.79440412180E+03  0.88679683874E+02 0.  0.
         23    2    4    4    0    0 -0.19522182409E+02  0.13152001198E+03  0.33680536147E+03  0.37362901748E+03  0.92098653793E+02 0.  0.
          3    1    3    3  502    0  0.18941146821E+03 -0.66465826651E+03  0.69961610539E+03  0.98341751583E+03  0.00000000000E+00 0. -1.
         -4    1    3    3    0  502  0.57631796237E+01 -0.14525015093E+02  0.43177766115E+01  0.16212140441E+02  0.00000000000E+00 0.  1.
         13    1    5    5    0    0 -0.78347628342E+00  0.99046377275E+02 -0.11383772267E+03  0.15089673882E+03  0.00000000000E+00 0.  1.
        -13    1    5    5    0    0 -0.17486898914E+03  0.44861689234E+03 -0.42692560533E+03  0.64350738297E+03  0.00000000000E+00 0. -1.
          3    1    6    6  503    0 -0.80315054155E+01  0.12294365978E+03  0.19209948448E+03  0.22821450545E+03  0.00000000000E+00 0. -1.
         -3    1    6    6    0  503 -0.11490676994E+02  0.85763522070E+01  0.14470587699E+03  0.14541451203E+03  0.00000000000E+00 0.  1.
<mgrwt>
<rscale>  0 0.21092146E+04</rscale>
<asrwt>0</asrwt>
<pdfrwt beam="1">  1        1 0.20520298E+00 0.21092146E+04</pdfrwt>
<pdfrwt beam="2">  1       -2 0.12828361E+00 0.21092146E+04</pdfrwt>
<totfact> 0.30994022E+00</totfact>
</mgrwt>
</event>
<event>
12    5  0.5029243E-008  0.2170502E+04  0.7818608E-02  0.8530807E-01
          1   -1    0    0  501    0  0.00000000000E+00  0.00000000000E+00  0.64403021830E+03  0.64403021830E+03  0.00000000000E+00 0. -1.
         -2   -1    0    0    0  501 -0.00000000000E+00 -0.00000000000E+00 -0.18287499525E+04  0.18287499525E+04  0.00000000000E+00 0.  1.
        -24    2    1    2    0    0 -0.89457796108E+03  0.10251920528E+03 -0.45088957587E+03  0.10102141064E+04  0.80319457495E+02 0.  0.
        254    2    1    2    0    0  0.89457796108E+03 -0.10251920528E+03 -0.73383015832E+03  0.14625660644E+04  0.88871416973E+03 0.  0.
         23    2    4    4    0    0  0.64095807686E+03  0.33304984869E+03 -0.57024190205E+03  0.92476537315E+03  0.90915952956E+02 0.  0.
         23    2    4    4    0    0  0.25361988422E+03 -0.43556905397E+03 -0.16358825627E+03  0.53780069123E+03  0.91787904683E+02 0.  0.
          1    1    3    3  502    0 -0.62837046690E+03  0.86377248477E+02 -0.27904058044E+03  0.69294597066E+03  0.00000000000E+00 0. -1.
         -2    1    3    3    0  502 -0.26620749418E+03  0.16141956802E+02 -0.17184899543E+03  0.31726813574E+03  0.00000000000E+00 0.  1.
         13    1    5    5    0    0  0.44127761828E+03  0.25583199479E+03 -0.44384766667E+03  0.67614842835E+03  0.00000000000E+00 0.  1.
        -13    1    5    5    0    0  0.19968045858E+03  0.77217853900E+02 -0.12639423539E+03  0.24861694479E+03  0.00000000000E+00 0. -1.
          2    1    6    6  503    0  0.25210788174E+02 -0.88581012858E+02 -0.59147201948E+02  0.10945579554E+03  0.00000000000E+00 0. -1.
         -2    1    6    6    0  503  0.22840909605E+03 -0.34698804111E+03 -0.10444105432E+03  0.42834489569E+03  0.00000000000E+00 0.  1.
<mgrwt>
<rscale>  0 0.21705025E+04</rscale>
<asrwt>0</asrwt>
<pdfrwt beam="1">  1        1 0.99081573E-01 0.21705025E+04</pdfrwt>
<pdfrwt beam="2">  1       -2 0.28134614E+00 0.21705025E+04</pdfrwt>
<totfact> 0.10219765E+00</totfact>
</mgrwt>
</event>
<event>
12    5  0.5630253E-008  0.1408088E+04  0.7818608E-02  0.8947984E-01
          1   -1    0    0  501    0  0.00000000000E+00  0.00000000000E+00  0.22177225780E+04  0.22177225780E+04  0.00000000000E+00 0. -1.
         -2   -1    0    0    0  501 -0.00000000000E+00 -0.00000000000E+00 -0.22350779908E+03  0.22350779908E+03  0.00000000000E+00 0.  1.
        -24    2    1    2    0    0  0.12185125922E+03  0.11058101441E+03  0.12423635815E+04  0.12558729016E+04  0.81692019479E+02 0.  0.
        254    2    1    2    0    0 -0.12185125922E+03 -0.11058101441E+03  0.75185119734E+03  0.11853574755E+04  0.90150775460E+03 0.  0.
         23    2    4    4    0    0  0.16008256014E+03 -0.11400644463E+03 -0.13022344463E+03  0.25502104568E+03  0.97230101969E+02 0.  0.
         23    2    4    4    0    0 -0.28193381935E+03  0.34254302243E+01  0.88207464197E+03  0.93033642980E+03  0.89284861687E+02 0.  0.
          3    1    3    3  502    0  0.12093478533E+03  0.10914642405E+03  0.97586039596E+03  0.98936427902E+03  0.00000000000E+00 0. -1.
         -4    1    3    3    0  502  0.91647388817E+00  0.14345903609E+01  0.26650318558E+03  0.26650862256E+03  0.00000000000E+00 0.  1.
         13    1    5    5    0    0 -0.81079513869E+01  0.58319403681E+01  0.14588246404E+01  0.10093491640E+02  0.00000000000E+00 0. -1.
        -13    1    5    5    0    0  0.16819051152E+03 -0.11983838500E+03 -0.13168226927E+03  0.24492755404E+03  0.00000000000E+00 0.  1.
          1    1    6    6  503    0 -0.14253652045E+02 -0.21787895283E+02  0.59819315516E+02  0.65239784536E+02  0.00000000000E+00 0. -1.
         -1    1    6    6    0  503 -0.26768016731E+03  0.25213325508E+02  0.82225532646E+03  0.86509664526E+03  0.00000000000E+00 0.  1.
<mgrwt>
<rscale>  0 0.14080885E+04</rscale>
<asrwt>0</asrwt>
<pdfrwt beam="1">  1        1 0.34118807E+00 0.14080885E+04</pdfrwt>
<pdfrwt beam="2">  1       -2 0.34385817E-01 0.14080885E+04</pdfrwt>
<totfact> 0.14390123E+01</totfact>
</mgrwt>
</event>
<event>
12    5  0.5029243E-008  0.1310792E+04  0.7818608E-02  0.9021051E-01
          1   -1    0    0  501    0  0.00000000000E+00  0.00000000000E+00  0.17481572080E+03  0.17481572080E+03  0.00000000000E+00 0. -1.
         -2   -1    0    0    0  501 -0.00000000000E+00 -0.00000000000E+00 -0.24571238717E+04  0.24571238717E+04  0.00000000000E+00 0.  1.
        -24    2    1    2    0    0 -0.34604620455E+03 -0.31268359935E+02 -0.72748954514E+03  0.81031055739E+03  0.81464563600E+02 0.  0.
        254    2    1    2    0    0  0.34604620455E+03  0.31268359935E+02 -0.15548186057E+04  0.18216290351E+04  0.88325860240E+03 0.  0.
         23    2    4    4    0    0  0.71883815446E+02 -0.19506396298E+03 -0.14085870214E+04  0.14267143226E+04  0.90438536448E+02 0.  0.
         23    2    4    4    0    0  0.27416238910E+03  0.22633232291E+03 -0.14623158433E+03  0.39491471249E+03  0.90457823809E+02 0.  0.
          3    1    3    3  502    0 -0.32320462809E+03 -0.25732843127E+02 -0.71147714335E+03  0.78187156000E+03  0.00000000000E+00 0. -1.
         -4    1    3    3    0  502 -0.22841576463E+02 -0.55355168079E+01 -0.16012401791E+02  0.28438997394E+02  0.00000000000E+00 0.  1.
         13    1    5    5    0    0  0.82208862713E+02 -0.10757662619E+03 -0.96632721260E+03  0.97576601161E+03  0.00000000000E+00 0. -1.
        -13    1    5    5    0    0 -0.10325047268E+02 -0.87487336786E+02 -0.44225980881E+03  0.45094831100E+03  0.00000000000E+00 0.  1.
          1    1    6    6  503    0  0.30763561960E+02  0.39360081956E+02  0.93305238582E+01  0.50819990865E+02  0.00000000000E+00 0. -1.
         -1    1    6    6    0  503  0.24339882714E+03  0.18697224095E+03 -0.15556210819E+03  0.34409472162E+03  0.00000000000E+00 0.  1.
<mgrwt>
<rscale>  0 0.13107919E+04</rscale>
<asrwt>0</asrwt>
<pdfrwt beam="1">  1        1 0.26894729E-01 0.13107919E+04</pdfrwt>
<pdfrwt beam="2">  1       -2 0.37801902E+00 0.13107919E+04</pdfrwt>
<totfact> 0.15865672E+00</totfact>
</mgrwt>
</event>
<event>
12    5  0.5029243E-008  0.1932425E+04  0.7818608E-02  0.8638882E-01
          1   -1    0    0  501    0  0.00000000000E+00  0.00000000000E+00  0.72821569867E+03  0.72821569867E+03  0.00000000000E+00 0. -1.
         -2   -1    0    0    0  501 -0.00000000000E+00 -0.00000000000E+00 -0.12819922805E+04  0.12819922805E+04  0.00000000000E+00 0.  1.
        -24    2    1    2    0    0 -0.44824534920E+03  0.94369751353E+02  0.40191660658E+03  0.61493975827E+03  0.82367497220E+02 0.  0.
        254    2    1    2    0    0  0.44824534920E+03 -0.94369751353E+02 -0.95569318843E+03  0.13952682209E+04  0.90752101620E+03 0.  0.
         23    2    4    4    0    0  0.69603195569E+02  0.35924543679E+03 -0.18576233900E+03  0.42048043229E+03  0.91620186935E+02 0.  0.
         23    2    4    4    0    0  0.37864215363E+03 -0.45361518815E+03 -0.76993084944E+03  0.97478778864E+03  0.91000552395E+02 0.  0.
          1    1    3    3  502    0 -0.33488209041E+03  0.84351655432E+02  0.25594830881E+03  0.42984968656E+03  0.00000000000E+00 0. -1.
         -2    1    3    3    0  502 -0.11336325879E+03  0.10018095922E+02  0.14596829778E+03  0.18509007171E+03  0.00000000000E+00 0.  1.
         13    1    5    5    0    0 -0.18780208654E+02  0.24644694733E+02 -0.11966099194E+02  0.33215128263E+02  0.00000000000E+00 0. -1.
        -13    1    5    5    0    0  0.88383404223E+02  0.33460074206E+03 -0.17379623980E+03  0.38726530402E+03  0.00000000000E+00 0.  1.
          2    1    6    6  503    0  0.77805407577E+02 -0.60778430167E+02 -0.87973843501E+02  0.13223878464E+03  0.00000000000E+00 0. -1.
         -2    1    6    6    0  503  0.30083674605E+03 -0.39283675798E+03 -0.68195700593E+03  0.84254900400E+03  0.00000000000E+00 0.  1.
<mgrwt>
<rscale>  0 0.19324253E+04</rscale>
<asrwt>0</asrwt>
<pdfrwt beam="1">  1        1 0.11203319E+00 0.19324253E+04</pdfrwt>
<pdfrwt beam="2">  1       -2 0.19722958E+00 0.19324253E+04</pdfrwt>
<totfact> 0.29051404E+00</totfact>
</mgrwt>
</event>
<event>
12    5  0.5029243E-008  0.1789577E+04  0.7818608E-02  0.8711862E-01
         -2   -1    0    0    0  501 -0.00000000000E+00  0.00000000000E+00  0.25140838182E+03  0.25140838182E+03  0.00000000000E+00 0.  1.
          1   -1    0    0  501    0  0.00000000000E+00 -0.00000000000E+00 -0.31846459628E+04  0.31846459628E+04  0.00000000000E+00 0. -1.
        -24    2    1    2    0    0 -0.10618925204E+03 -0.34599564016E+03 -0.19606825122E+02  0.37115619014E+03  0.79895867416E+02 0.  0.
        254    2    1    2    0    0  0.10618925204E+03  0.34599564016E+03 -0.29136307558E+04  0.30648981544E+04  0.87941308586E+03 0.  0.
         23    2    4    4    0    0  0.21359080888E+03  0.46875963431E+03 -0.88898440086E+03  0.10313601298E+04  0.89743099367E+02 0.  0.
         23    2    4    4    0    0 -0.10740155685E+03 -0.12276399415E+03 -0.20246463550E+04  0.20335380247E+04  0.97354725164E+02 0.  0.
          1    1    3    3  502    0 -0.37260757958E+02 -0.44649543043E+02 -0.21556670206E+02  0.62021252873E+02  0.00000000000E+00 0. -1.
         -4    1    3    3    0  502 -0.68928494081E+02 -0.30134609711E+03  0.19498450842E+01  0.30913493726E+03  0.00000000000E+00 0.  1.
         13    1    5    5    0    0  0.51355701353E+02  0.64056225756E+02 -0.95205726054E+02  0.12571689780E+03  0.00000000000E+00 0. -1.
        -13    1    5    5    0    0  0.16223510753E+03  0.40470340855E+03 -0.79377867480E+03  0.90564323195E+03  0.00000000000E+00 0.  1.
          4    1    6    6  503    0 -0.11989147088E+03 -0.81756876077E+02 -0.14282501004E+04  0.14356031836E+04  0.00000000000E+00 0. -1.
         -4    1    6    6    0  503  0.12489914034E+02 -0.41007118075E+02 -0.59639625457E+03  0.59793484106E+03  0.00000000000E+00 0.  1.
<mgrwt>
<rscale>  0 0.17895773E+04</rscale>
<asrwt>0</asrwt>
<pdfrwt beam="1">  1        1 0.48994554E+00 0.17895773E+04</pdfrwt>
<pdfrwt beam="2">  1       -2 0.38678212E-01 0.17895773E+04</pdfrwt>
<totfact> 0.22969254E+00</totfact>
</mgrwt>
</event>
<event>
12    5  0.5029243E-008  0.1700523E+04  0.7818608E-02  0.8761066E-01
         -2   -1    0    0    0  501 -0.00000000000E+00  0.00000000000E+00  0.17415954385E+04  0.17415954385E+04  0.00000000000E+00 0.  1.
          1   -1    0    0  501    0  0.00000000000E+00 -0.00000000000E+00 -0.41510502282E+03  0.41510502282E+03  0.00000000000E+00 0. -1.
        -24    2    1    2    0    0  0.34942981410E+03  0.42626062494E+03  0.16201681948E+03  0.58000842121E+03  0.79755899649E+02 0.  0.
        254    2    1    2    0    0 -0.34942981410E+03 -0.42626062494E+03  0.11644735962E+04  0.15766920401E+04  0.90893328566E+03 0.  0.
         23    2    4    4    0    0  0.93797315841E+02 -0.20915513827E+03 -0.59810786545E+02  0.25362791113E+03  0.90586857748E+02 0.  0.
         23    2    4    4    0    0 -0.44322712994E+03 -0.21710548667E+03  0.12242843827E+04  0.13230641290E+04  0.89673622199E+02 0.  0.
          3    1    3    3  502    0  0.18610603746E+02  0.42751339190E+02  0.33693204158E+02  0.57526199082E+02  0.00000000000E+00 0. -1.
         -4    1    3    3    0  502  0.33081921035E+03  0.38350928575E+03  0.12832361532E+03  0.52248222213E+03  0.00000000000E+00 0.  1.
         13    1    5    5    0    0  0.10637212875E+03 -0.14504698947E+03 -0.55132013899E+02  0.18813079994E+03  0.00000000000E+00 0. -1.
        -13    1    5    5    0    0 -0.12574812906E+02 -0.64108148791E+02 -0.46787726469E+01  0.65497111192E+02  0.00000000000E+00 0.  1.
          4    1    6    6  503    0 -0.34899045396E+03 -0.12774368642E+03  0.89447759619E+03  0.96860877369E+03  0.00000000000E+00 0. -1.
         -4    1    6    6    0  503 -0.94236675985E+02 -0.89361800246E+02  0.32980678655E+03  0.35445535529E+03  0.00000000000E+00 0.  1.
<mgrwt>
<rscale>  0 0.17005235E+04</rscale>
<asrwt>0</asrwt>
<pdfrwt beam="1">  1        1 0.63862312E-01 0.17005235E+04</pdfrwt>
<pdfrwt beam="2">  1       -2 0.26793776E+00 0.17005235E+04</pdfrwt>
<totfact> 0.23722603E+00</totfact>
</mgrwt>
</event>
<event>
12    5  0.5029243E-008  0.1645498E+04  0.7818608E-02  0.8793074E-01
         -2   -1    0    0    0  501 -0.00000000000E+00  0.00000000000E+00  0.45755271465E+03  0.45755271465E+03  0.00000000000E+00 0.  1.
          1   -1    0    0  501    0  0.00000000000E+00 -0.00000000000E+00 -0.14794267000E+04  0.14794267000E+04  0.00000000000E+00 0. -1.
        -24    2    1    2    0    0 -0.14690068494E+03  0.36236722126E+03  0.14719966397E+03  0.42608910433E+03  0.83632347083E+02 0.  0.
        254    2    1    2    0    0  0.14690068494E+03 -0.36236722126E+03 -0.11690736493E+04  0.15108903103E+04  0.87359402356E+03 0.  0.
         23    2    4    4    0    0  0.25926061830E+03  0.21782407186E+03 -0.52562323062E+03  0.63254844356E+03  0.95782871147E+02 0.  0.
         23    2    4    4    0    0 -0.11235993336E+03 -0.58019129312E+03 -0.64345041872E+03  0.87834186677E+03  0.90605200384E+02 0.  0.
          3    1    3    3  502    0 -0.66244830186E+02  0.14685619807E+03  0.10456030716E+03  0.19206243326E+03  0.00000000000E+00 0. -1.
         -4    1    3    3    0  502 -0.80655854756E+02  0.21551102319E+03  0.42639356810E+02  0.23402667107E+03  0.00000000000E+00 0.  1.
         13    1    5    5    0    0  0.70871465122E+02  0.68435472436E+02 -0.23853306038E+03  0.25807789396E+03  0.00000000000E+00 0. -1.
        -13    1    5    5    0    0  0.18838915318E+03  0.14938859942E+03 -0.28709017024E+03  0.37447054960E+03  0.00000000000E+00 0.  1.
          4    1    6    6  503    0 -0.15842946285E+01 -0.49995428258E+02 -0.95854818552E+02  0.10812122398E+03  0.00000000000E+00 0. -1.
         -4    1    6    6    0  503 -0.11077563873E+03 -0.53019586486E+03 -0.54759560016E+03  0.77022064278E+03  0.00000000000E+00 0.  1.
<mgrwt>
<rscale>  0 0.16454977E+04</rscale>
<asrwt>0</asrwt>
<pdfrwt beam="1">  1        1 0.22760411E+00 0.16454977E+04</pdfrwt>
<pdfrwt beam="2">  1       -2 0.70392725E-01 0.16454977E+04</pdfrwt>
<totfact> 0.10413262E+01</totfact>
</mgrwt>
</event>
<event>
12    5  0.5029243E-008  0.1538641E+04  0.7818608E-02  0.8859156E-01
         -2   -1    0    0    0  501 -0.00000000000E+00  0.00000000000E+00  0.93484145503E+03  0.93484145503E+03  0.00000000000E+00 0.  1.
          1   -1    0    0  501    0  0.00000000000E+00 -0.00000000000E+00 -0.63310648564E+03  0.63310648564E+03  0.00000000000E+00 0. -1.
        -24    2    1    2    0    0  0.11122941857E+03  0.40870850109E+03 -0.11723379486E+03  0.44670420932E+03  0.79914113602E+02 0.  0.
        254    2    1    2    0    0 -0.11122941857E+03 -0.40870850109E+03  0.41896876424E+03  0.11212437313E+04  0.94986212539E+03 0.  0.
         23    2    4    4    0    0 -0.21057226068E+03  0.20380984876E+03  0.38615030233E+03  0.49313744925E+03  0.90517161033E+02 0.  0.
         23    2    4    4    0    0  0.99342842105E+02 -0.61251834985E+03  0.32818461915E+02  0.62810628210E+03  0.91611795045E+02 0.  0.
          1    1    3    3  502    0  0.11615991847E+03  0.31219169619E+03 -0.10517821785E+03  0.34931252388E+03  0.00000000000E+00 0. -1.
         -2    1    3    3    0  502 -0.49304998941E+01  0.96516804898E+02 -0.12055577011E+02  0.97391685446E+02  0.00000000000E+00 0.  1.
         13    1    5    5    0    0 -0.17716716422E+02  0.32086700921E+02  0.12078682869E+02  0.38591877340E+02  0.00000000000E+00 0.  1.
        -13    1    5    5    0    0 -0.19285554425E+03  0.17172314784E+03  0.37407161946E+03  0.45454557191E+03  0.00000000000E+00 0. -1.
          1    1    6    6  503    0  0.10489894954E+03 -0.43606251958E+03 -0.19737405592E+00  0.44850234063E+03  0.00000000000E+00 0. -1.
         -1    1    6    6    0  503 -0.55561074311E+01 -0.17645583027E+03  0.33015835970E+02  0.17960394147E+03  0.00000000000E+00 0.  1.
<mgrwt>
<rscale>  0 0.15386412E+04</rscale>
<asrwt>0</asrwt>
<pdfrwt beam="1">  1        1 0.97400997E-01 0.15386412E+04</pdfrwt>
<pdfrwt beam="2">  1       -2 0.14382176E+00 0.15386412E+04</pdfrwt>
<totfact> 0.89426070E+00</totfact>
</mgrwt>
</event>
<event>
12    5  0.5029243E-008  0.2932784E+04  0.7818608E-02  0.8263190E-01
          1   -1    0    0  501    0  0.00000000000E+00  0.00000000000E+00  0.31399991101E+04  0.31399991101E+04  0.00000000000E+00 0. -1.
         -2   -1    0    0    0  501 -0.00000000000E+00 -0.00000000000E+00 -0.68481099671E+03  0.68481099671E+03  0.00000000000E+00 0.  1.
        -24    2    1    2    0    0  0.14571197608E+03  0.12233638342E+04  0.46838287464E+03  0.13214708358E+04  0.95139905582E+02 0.  0.
        254    2    1    2    0    0 -0.14571197608E+03 -0.12233638342E+04  0.19868052387E+04  0.25033392710E+04  0.89524376474E+03 0.  0.
         23    2    4    4    0    0 -0.23588698525E+03 -0.13227388760E+04  0.18603967201E+04  0.22967998334E+04  0.94513038787E+02 0.  0.
         23    2    4    4    0    0  0.90175009164E+02  0.99375041789E+02  0.12640851858E+03  0.20653943760E+03  0.93126228888E+02 0.  0.
          3    1    3    3  502    0  0.40546947833E+02  0.60290633366E+03  0.26798641535E+03  0.66102709548E+03  0.00000000000E+00 0. -1.
         -4    1    3    3    0  502  0.10516502825E+03  0.62045750057E+03  0.20039645929E+03  0.66044374028E+03  0.00000000000E+00 0.  1.
         13    1    5    5    0    0 -0.12691286129E+03 -0.62870621454E+03  0.81149076082E+03  0.10343575946E+04  0.00000000000E+00 0.  1.
        -13    1    5    5    0    0 -0.10897412396E+03 -0.69403266148E+03  0.10489059593E+04  0.12624422388E+04  0.00000000000E+00 0. -1.
          3    1    6    6  503    0  0.18897919210E+02 -0.35968025200E+01 -0.97319675747E+01  0.21558746060E+02  0.00000000000E+00 0. -1.
         -3    1    6    6    0  503  0.71277089955E+02  0.10297184431E+03  0.13614048615E+03  0.18498069154E+03  0.00000000000E+00 0.  1.
<mgrwt>
<rscale>  0 0.29327843E+04</rscale>
<asrwt>0</asrwt>
<pdfrwt beam="1">  1        1 0.48307678E+00 0.29327843E+04</pdfrwt>
<pdfrwt beam="2">  1       -2 0.10535554E+00 0.29327843E+04</pdfrwt>
<totfact> 0.25868923E-01</totfact>
</mgrwt>
</event>
<event>
12    5  0.5029243E-008  0.1562950E+04  0.7818608E-02  0.8843638E-01
         -2   -1    0    0    0  501 -0.00000000000E+00  0.00000000000E+00  0.14959415728E+04  0.14959415728E+04  0.00000000000E+00 0.  1.
          1   -1    0    0  501    0  0.00000000000E+00 -0.00000000000E+00 -0.40823990893E+03  0.40823990893E+03  0.00000000000E+00 0. -1.
        -24    2    1    2    0    0 -0.51447863084E+03 -0.12024705017E+02  0.28108304165E+03  0.58976462397E+03  0.63101349121E+02 0.  0.
        254    2    1    2    0    0  0.51447863084E+03  0.12024705017E+02  0.80661862217E+03  0.13144168577E+04  0.90123538494E+03 0.  0.
         23    2    4    4    0    0  0.53582586816E+03 -0.29312772345E+03  0.77770151014E+03  0.99288113946E+03  0.89219364316E+02 0.  0.
         23    2    4    4    0    0 -0.21347237319E+02  0.30515242847E+03  0.28917112030E+02  0.32153571825E+03  0.94738110607E+02 0.  0.
          3    1    3    3  502    0 -0.92792275662E+02  0.18087597195E+02  0.36416444513E+02  0.10131004405E+03  0.00000000000E+00 0. -1.
         -4    1    3    3    0  502 -0.42168635518E+03 -0.30112302212E+02  0.24466659714E+03  0.48845457992E+03  0.00000000000E+00 0.  1.
         13    1    5    5    0    0  0.85375609794E+02 -0.19818378731E+02  0.14607064016E+03  0.17034786409E+03  0.00000000000E+00 0.  1.
        -13    1    5    5    0    0  0.45045025837E+03 -0.27330934472E+03  0.63163086998E+03  0.82253327537E+03  0.00000000000E+00 0. -1.
          4    1    6    6  503    0 -0.17772215704E+02  0.31107823091E+03  0.33275080783E+02  0.31335722171E+03  0.00000000000E+00 0. -1.
         -4    1    6    6    0  503 -0.35750216150E+01 -0.59258024374E+01 -0.43579687526E+01  0.81784965442E+01  0.00000000000E+00 0.  1.
<mgrwt>
<rscale>  0 0.15629498E+04</rscale>
<asrwt>0</asrwt>
<pdfrwt beam="1">  1        1 0.62806141E-01 0.15629498E+04</pdfrwt>
<pdfrwt beam="2">  1       -2 0.23014485E+00 0.15629498E+04</pdfrwt>
<totfact> 0.41897224E+00</totfact>
</mgrwt>
</event>
<event>
12    5  0.5029243E-008  0.2975236E+04  0.7818608E-02  0.8250838E-01
         -2   -1    0    0    0  501 -0.00000000000E+00  0.00000000000E+00  0.77131227305E+03  0.77131227305E+03  0.00000000000E+00 0.  1.
          1   -1    0    0  501    0  0.00000000000E+00 -0.00000000000E+00 -0.28691455329E+04  0.28691455329E+04  0.00000000000E+00 0. -1.
        -24    2    1    2    0    0  0.33955237247E+03 -0.49353301270E+03 -0.24389433483E+04  0.25127091568E+04  0.79949999665E+02 0.  0.
        254    2    1    2    0    0 -0.33955237247E+03  0.49353301270E+03  0.34111008848E+03  0.11277486491E+04  0.89251906127E+03 0.  0.
         23    2    4    4    0    0 -0.29531073331E+03 -0.77248409989E+02  0.43464721408E+03  0.54026256008E+03  0.98942847431E+02 0.  0.
         23    2    4    4    0    0 -0.44241639161E+02  0.57078142269E+03 -0.93537125601E+02  0.58748608899E+03  0.92962120091E+02 0.  0.
          1    1    3    3  502    0  0.33384025137E+03 -0.46268077994E+03 -0.23540074712E+04  0.24221630812E+04  0.00000000000E+00 0. -1.
         -2    1    3    3    0  502  0.57121210925E+01 -0.30852232758E+02 -0.84935877073E+02  0.90546075606E+02  0.00000000000E+00 0.  1.
         13    1    5    5    0    0 -0.29623990996E+03 -0.58315075407E+02  0.40863432144E+03  0.50807552680E+03  0.00000000000E+00 0.  1.
        -13    1    5    5    0    0  0.92917665048E+00 -0.18933334583E+02  0.26012892641E+02  0.32187033277E+02  0.00000000000E+00 0. -1.
          3    1    6    6  503    0  0.19425510431E+02  0.15931854478E+03 -0.53616274059E+02  0.16921718001E+03  0.00000000000E+00 0. -1.
         -3    1    6    6    0  503 -0.63667149592E+02  0.41146287791E+03 -0.39920851541E+02  0.41826890898E+03  0.00000000000E+00 0.  1.
<mgrwt>
<rscale>  0 0.29752359E+04</rscale>
<asrwt>0</asrwt>
<pdfrwt beam="1">  1        1 0.44140699E+00 0.29752359E+04</pdfrwt>
<pdfrwt beam="2">  1       -2 0.11866343E+00 0.29752359E+04</pdfrwt>
<totfact> 0.30451303E-01</totfact>
</mgrwt>
</event>
<event>
12    5  0.5029243E-008  0.1206316E+04  0.7818608E-02  0.9107346E-01
          1   -1    0    0  501    0  0.00000000000E+00  0.00000000000E+00  0.12771467740E+04  0.12771467740E+04  0.00000000000E+00 0. -1.
         -2   -1    0    0    0  501 -0.00000000000E+00 -0.00000000000E+00 -0.28485333702E+03  0.28485333702E+03  0.00000000000E+00 0.  1.
        -24    2    1    2    0    0 -0.26648215949E+03  0.24051141213E+02  0.15093158175E+03  0.31733731342E+03  0.79570279622E+02 0.  0.
        254    2    1    2    0    0  0.26648215949E+03 -0.24051141213E+02  0.84136185526E+03  0.12446627976E+04  0.87732805128E+03 0.  0.
         23    2    4    4    0    0 -0.25660998725E+03  0.13308474882E+03  0.10442638544E+03  0.32308549049E+03  0.99594820474E+02 0.  0.
         23    2    4    4    0    0  0.52309214674E+03 -0.15713589003E+03  0.73693546981E+03  0.92157730712E+03  0.88959341354E+02 0.  0.
          1    1    3    3  502    0 -0.23816310377E+03 -0.36128373218E+01  0.13991522897E+03  0.27624443504E+03  0.00000000000E+00 0. -1.
         -2    1    3    3    0  502 -0.28319055719E+02  0.27663978535E+02  0.11016352780E+02  0.41092878383E+02  0.00000000000E+00 0.  1.
         13    1    5    5    0    0 -0.34586909829E+02  0.47179528118E+02 -0.93323027776E+01  0.59238957452E+02  0.00000000000E+00 0. -1.
        -13    1    5    5    0    0 -0.22202307742E+03  0.85905220701E+02  0.11375868822E+03  0.26384653304E+03  0.00000000000E+00 0.  1.
          2    1    6    6  503    0  0.50092017881E+03 -0.13096694076E+03  0.70510991768E+03  0.87478760915E+03  0.00000000000E+00 0. -1.
         -2    1    6    6    0  503  0.22171967936E+02 -0.26168949267E+02  0.31825552132E+02  0.46789697973E+02  0.00000000000E+00 0.  1.
<mgrwt>
<rscale>  0 0.12063159E+04</rscale>
<asrwt>0</asrwt>
<pdfrwt beam="1">  1        1 0.19648412E+00 0.12063159E+04</pdfrwt>
<pdfrwt beam="2">  1       -2 0.43823591E-01 0.12063159E+04</pdfrwt>
<totfact> 0.40240100E+01</totfact>
</mgrwt>
</event>
<event>
12    5  0.5029243E-008  0.1773715E+04  0.7818608E-02  0.8720404E-01
          1   -1    0    0  501    0  0.00000000000E+00  0.00000000000E+00  0.12624723942E+04  0.12624723942E+04  0.00000000000E+00 0. -1.
         -2   -1    0    0    0  501 -0.00000000000E+00 -0.00000000000E+00 -0.62299679520E+03  0.62299679520E+03  0.00000000000E+00 0.  1.
        -24    2    1    2    0    0 -0.60412975347E+03  0.15223385425E+03  0.41544807439E+03  0.75302647360E+03  0.79396864077E+02 0.  0.
        254    2    1    2    0    0  0.60412975347E+03 -0.15223385425E+03  0.22402752462E+03  0.11324427158E+04  0.91874385297E+03 0.  0.
         23    2    4    4    0    0  0.24519646622E+03 -0.48937921781E+03 -0.57516529199E+02  0.55781020903E+03  0.90723493643E+02 0.  0.
         23    2    4    4    0    0  0.35893328725E+03  0.33714536356E+03  0.28154405382E+03  0.57463250677E+03  0.91844230784E+02 0.  0.
          1    1    3    3  502    0 -0.57734249352E+03  0.14592831501E+03  0.37376562473E+03  0.70307906395E+03  0.00000000000E+00 0. -1.
         -2    1    3    3    0  502 -0.26787259956E+02  0.63055392413E+01  0.41682449663E+02  0.49947409652E+02  0.00000000000E+00 0.  1.
         13    1    5    5    0    0  0.30060766906E+02 -0.10791742951E+03 -0.41838986755E+02  0.11958395424E+03  0.00000000000E+00 0.  1.
        -13    1    5    5    0    0  0.21513569931E+03 -0.38146178829E+03 -0.15677542444E+02  0.43822625479E+03  0.00000000000E+00 0. -1.
          3    1    6    6  503    0  0.32857341918E+03  0.32328092270E+03  0.23509732102E+03  0.51743772294E+03  0.00000000000E+00 0. -1.
         -3    1    6    6    0  503  0.30359868067E+02  0.13864440864E+02  0.46446732792E+02  0.57194783823E+02  0.00000000000E+00 0.  1.
<mgrwt>
<rscale>  0 0.17737150E+04</rscale>
<asrwt>0</asrwt>
<pdfrwt beam="1">  1        1 0.19422652E+00 0.17737150E+04</pdfrwt>
<pdfrwt beam="2">  1       -2 0.95845661E-01 0.17737150E+04</pdfrwt>
<totfact> 0.72894731E+00</totfact>
</mgrwt>
</event>
<event>
12    5  0.5029243E-008  0.1546133E+04  0.7818608E-02  0.8854341E-01
          1   -1    0    0  501    0  0.00000000000E+00  0.00000000000E+00  0.13023334741E+04  0.13023334741E+04  0.00000000000E+00 0. -1.
         -2   -1    0    0    0  501 -0.00000000000E+00 -0.00000000000E+00 -0.45889329081E+03  0.45889329081E+03  0.00000000000E+00 0.  1.
        -24    2    1    2    0    0 -0.39540776080E+03 -0.28007604256E+03  0.44793681691E+03  0.66490490440E+03  0.81616499785E+02 0.  0.
        254    2    1    2    0    0  0.39540776080E+03  0.28007604256E+03  0.39550336641E+03  0.10963218605E+04  0.90039370395E+03 0.  0.
         23    2    4    4    0    0 -0.71709015256E+02 -0.40424560063E+01  0.51641676222E+03  0.52922904921E+03  0.90766678390E+02 0.  0.
         23    2    4    4    0    0  0.46711677606E+03  0.28411849857E+03 -0.12091339581E+03  0.56709281132E+03  0.89737415047E+02 0.  0.
          3    1    3    3  502    0 -0.35429251987E+03 -0.27760586306E+03  0.41383071119E+03  0.61142788812E+03  0.00000000000E+00 0. -1.
         -4    1    3    3    0  502 -0.41115240932E+02 -0.24701795009E+01  0.34106105715E+02  0.53477016285E+02  0.00000000000E+00 0.  1.
         13    1    5    5    0    0  0.83294289535E+01  0.70155324964E+01  0.26338304073E+03  0.26360808642E+03  0.00000000000E+00 0. -1.
        -13    1    5    5    0    0 -0.80038444209E+02 -0.11057988503E+02  0.25303372149E+03  0.26562096279E+03  0.00000000000E+00 0.  1.
          2    1    6    6  503    0  0.39805840529E+03  0.21191653834E+03 -0.12204062130E+03  0.46717558421E+03  0.00000000000E+00 0. -1.
         -2    1    6    6    0  503  0.69058370774E+02  0.72201960231E+02  0.11272254878E+01  0.99917227105E+02  0.00000000000E+00 0.  1.
<mgrwt>
<rscale>  0 0.15461334E+04</rscale>
<asrwt>0</asrwt>
<pdfrwt beam="1">  1        1 0.20035900E+00 0.15461334E+04</pdfrwt>
<pdfrwt beam="2">  1       -2 0.70598968E-01 0.15461334E+04</pdfrwt>
<totfact> 0.13899522E+01</totfact>
</mgrwt>
</event>
<event>
12    5  0.5029243E-008  0.1407373E+04  0.7818608E-02  0.8948499E-01
          1   -1    0    0  501    0  0.00000000000E+00  0.00000000000E+00  0.33543024276E+04  0.33543024276E+04  0.00000000000E+00 0. -1.
         -2   -1    0    0    0  501 -0.00000000000E+00 -0.00000000000E+00 -0.14762369703E+03  0.14762369703E+03  0.00000000000E+00 0.  1.
        -24    2    1    2    0    0 -0.28764426459E+03 -0.74445878969E+02  0.15079221955E+04  0.15390548514E+04  0.81111504914E+02 0.  0.
        254    2    1    2    0    0  0.28764426459E+03  0.74445878969E+02  0.16987565351E+04  0.19628712732E+04  0.93744784273E+03 0.  0.
         23    2    4    4    0    0  0.43030612716E+03 -0.32114831058E+03  0.10578702668E+04  0.11900611983E+04  0.94109264460E+02 0.  0.
         23    2    4    4    0    0 -0.14266186257E+03  0.39559418955E+03  0.64088626825E+03  0.77281007496E+03  0.98249851367E+02 0.  0.
          1    1    3    3  502    0 -0.28790414192E+03 -0.80393750048E+02  0.14301298721E+04  0.14610350444E+04  0.00000000000E+00 0. -1.
         -2    1    3    3    0  502  0.25987733141E+00  0.59478710786E+01  0.77792323417E+02  0.78019807031E+02  0.00000000000E+00 0.  1.
         13    1    5    5    0    0  0.41895837299E+03 -0.29310761030E+03  0.10245974792E+04  0.11450930896E+04  0.00000000000E+00 0. -1.
        -13    1    5    5    0    0  0.11347754165E+02 -0.28040700272E+02  0.33272787660E+02  0.44968108644E+02  0.00000000000E+00 0.  1.
          1    1    6    6  503    0 -0.38539033070E+02  0.24590140368E+02  0.83452620637E+02  0.95153938249E+02  0.00000000000E+00 0. -1.
         -1    1    6    6    0  503 -0.10412282950E+03  0.37100404918E+03  0.55743364761E+03  0.67765613671E+03  0.00000000000E+00 0.  1.
<mgrwt>
<rscale>  0 0.14073728E+04</rscale>
<asrwt>0</asrwt>
<pdfrwt beam="1">  1        1 0.51604647E+00 0.14073728E+04</pdfrwt>
<pdfrwt beam="2">  1       -2 0.22711341E-01 0.14073728E+04</pdfrwt>
<totfact> 0.47946717E+00</totfact>
</mgrwt>
</event>
<event>
12    5  0.5029243E-008  0.2680328E+04  0.7818608E-02  0.8341416E-01
          1   -1    0    0  501    0  0.00000000000E+00  0.00000000000E+00  0.27759609495E+04  0.27759609495E+04  0.00000000000E+00 0. -1.
         -2   -1    0    0    0  501 -0.00000000000E+00 -0.00000000000E+00 -0.64699724776E+03  0.64699724776E+03  0.00000000000E+00 0.  1.
        -24    2    1    2    0    0  0.70724137612E+03  0.40798774193E+03  0.20481142321E+04  0.22063926213E+04  0.82171343018E+02 0.  0.
        254    2    1    2    0    0 -0.70724137612E+03 -0.40798774193E+03  0.80849469641E+02  0.12165655760E+04  0.89824874195E+03 0.  0.
         23    2    4    4    0    0 -0.48254085317E+03 -0.54293550513E+03  0.36609174258E+03  0.81877266419E+03  0.93492641020E+02 0.  0.
         23    2    4    4    0    0 -0.22470052294E+03  0.13494776320E+03 -0.28524227294E+03  0.39779291186E+03  0.90414725849E+02 0.  0.
          3    1    3    3  502    0  0.38617433397E+03  0.26836617389E+03  0.11481977226E+04  0.12407695312E+04  0.00000000000E+00 0. -1.
         -4    1    3    3    0  502  0.32106704215E+03  0.13962156804E+03  0.89991650958E+03  0.96562309004E+03  0.00000000000E+00 0.  1.
         13    1    5    5    0    0 -0.18511093424E+03 -0.25810082326E+03  0.12331166377E+03  0.34071668490E+03  0.00000000000E+00 0.  1.
        -13    1    5    5    0    0 -0.29742991893E+03 -0.28483468187E+03  0.24278007881E+03  0.47805597929E+03  0.00000000000E+00 0. -1.
          4    1    6    6  503    0 -0.21927122121E+03  0.14643079951E+03 -0.26451739395E+03  0.37348534001E+03  0.00000000000E+00 0. -1.
         -4    1    6    6    0  503 -0.54293017298E+01 -0.11483036313E+02 -0.20724878987E+02  0.24307571851E+02  0.00000000000E+00 0.  1.
<mgrwt>
<rscale>  0 0.26803277E+04</rscale>
<asrwt>0</asrwt>
<pdfrwt beam="1">  1        1 0.42707091E+00 0.26803277E+04</pdfrwt>
<pdfrwt beam="2">  1       -2 0.99538039E-01 0.26803277E+04</pdfrwt>
<totfact> 0.55671287E-01</totfact>
</mgrwt>
</event>
<event>
12    5  0.5029243E-008  0.1497148E+04  0.7818608E-02  0.8886352E-01
          1   -1    0    0  501    0  0.00000000000E+00  0.00000000000E+00  0.36585030803E+03  0.36585030803E+03  0.00000000000E+00 0. -1.
         -2   -1    0    0    0  501 -0.00000000000E+00 -0.00000000000E+00 -0.15316731964E+04  0.15316731964E+04  0.00000000000E+00 0.  1.
        -24    2    1    2    0    0  0.43001996721E+03  0.73151195990E+02 -0.17933935377E+03  0.47844217467E+03  0.80473853002E+02 0.  0.
        254    2    1    2    0    0 -0.43001996721E+03 -0.73151195990E+02 -0.98648353462E+03  0.14190813298E+04  0.92215713780E+03 0.  0.
         23    2    4    4    0    0 -0.36617259552E+03  0.36519675234E+03 -0.32383267113E+03  0.61701050563E+03  0.91560512992E+02 0.  0.
         23    2    4    4    0    0 -0.63847371693E+02 -0.43834794833E+03 -0.66265086349E+03  0.80207082416E+03  0.89364586949E+02 0.  0.
          1    1    3    3  502    0  0.36117276989E+03  0.88021256334E+02 -0.16423036452E+03  0.40640512289E+03  0.00000000000E+00 0. -1.
         -2    1    3    3    0  502  0.68847197322E+02 -0.14870060344E+02 -0.15108989248E+02  0.72037051785E+02  0.00000000000E+00 0.  1.
         13    1    5    5    0    0 -0.13260253591E+03  0.73918833491E+02 -0.96370149256E+02  0.17981833094E+03  0.00000000000E+00 0.  1.
        -13    1    5    5    0    0 -0.23357005961E+03  0.29127791885E+03 -0.22746252187E+03  0.43719217469E+03  0.00000000000E+00 0. -1.
          1    1    6    6  503    0 -0.24762421701E+02 -0.36182759492E+03 -0.49451343936E+03  0.61325029774E+03  0.00000000000E+00 0. -1.
         -1    1    6    6    0  503 -0.39084949992E+02 -0.76520353411E+02 -0.16813742413E+03  0.18882052641E+03  0.00000000000E+00 0.  1.
<mgrwt>
<rscale>  0 0.14971481E+04</rscale>
<asrwt>0</asrwt>
<pdfrwt beam="1">  1        1 0.56284661E-01 0.14971481E+04</pdfrwt>
<pdfrwt beam="2">  1       -2 0.23564204E+00 0.14971481E+04</pdfrwt>
<totfact> 0.45026004E+00</totfact>
</mgrwt>
</event>
<event>
12    5  0.5029243E-008  0.2822274E+04  0.7818608E-02  0.8296386E-01
          3   -1    0    0  501    0  0.00000000000E+00  0.00000000000E+00  0.29199793522E+04  0.29199793522E+04  0.00000000000E+00 0. -1.
         -4   -1    0    0    0  501 -0.00000000000E+00 -0.00000000000E+00 -0.68195946829E+03  0.68195946829E+03  0.00000000000E+00 0.  1.
        -24    2    1    2    0    0  0.66941216625E+03 -0.33952707818E+03 -0.29520298583E+03  0.81039247733E+03  0.78739312433E+02 0.  0.
        254    2    1    2    0    0 -0.66941216625E+03  0.33952707818E+03  0.25332228697E+04  0.27915463432E+04  0.90117789205E+03 0.  0.
         23    2    4    4    0    0  0.64205162606E+02  0.39947732840E+03  0.11454776558E+04  0.12180771785E+04  0.88817306687E+02 0.  0.
         23    2    4    4    0    0 -0.73361732885E+03 -0.59950250220E+02  0.13877452139E+04  0.15734691647E+04  0.90443439353E+02 0.  0.
          3    1    3    3  502    0  0.30286156190E+02 -0.29036527366E+02 -0.28747140211E+01  0.42055144263E+02  0.00000000000E+00 0. -1.
         -4    1    3    3    0  502  0.63912601006E+03 -0.31049055082E+03 -0.29232827181E+03  0.76833733307E+03  0.00000000000E+00 0.  1.
         13    1    5    5    0    0  0.76244003379E+02  0.24420166806E+03  0.64325057663E+03  0.69225638825E+03  0.00000000000E+00 0. -1.
        -13    1    5    5    0    0 -0.12038840773E+02  0.15527566034E+03  0.50222707918E+03  0.52582079023E+03  0.00000000000E+00 0.  1.
          3    1    6    6  503    0 -0.43357069062E+02  0.23406820613E+01  0.13470728664E+03  0.14153221295E+03  0.00000000000E+00 0. -1.
         -3    1    6    6    0  503 -0.69026025979E+03 -0.62290932282E+02  0.12530379273E+04  0.14319369517E+04  0.00000000000E+00 0.  1.
<mgrwt>
<rscale>  0 0.28222740E+04</rscale>
<asrwt>0</asrwt>
<pdfrwt beam="1">  1        3 0.44922758E+00 0.28222740E+04</pdfrwt>
<pdfrwt beam="2">  1       -4 0.10491684E+00 0.28222740E+04</pdfrwt>
<totfact> 0.89907327E-03</totfact>
</mgrwt>
</event>
<event>
12    5  0.5029243E-008  0.1616946E+04  0.7818608E-02  0.8810205E-01
         -4   -1    0    0    0  501 -0.00000000000E+00  0.00000000000E+00  0.74777909811E+03  0.74777909811E+03  0.00000000000E+00 0.  1.
          3   -1    0    0  501    0  0.00000000000E+00 -0.00000000000E+00 -0.87409301163E+03  0.87409301163E+03  0.00000000000E+00 0. -1.
        -24    2    1    2    0    0  0.93055096016E+02  0.52368147633E+03  0.74894399750E+02  0.54324756511E+03  0.81284723889E+02 0.  0.
        254    2    1    2    0    0 -0.93055096016E+02 -0.52368147633E+03 -0.20120831327E+03  0.10786245446E+04  0.91653946092E+03 0.  0.
         23    2    4    4    0    0 -0.54892432123E+02 -0.49156405051E+03 -0.53219253039E+03  0.73249222488E+03  0.93099813427E+02 0.  0.
         23    2    4    4    0    0 -0.38162663894E+02 -0.32117425826E+02  0.33098421712E+03  0.34613231975E+03  0.88142571103E+02 0.  0.
          1    1    3    3  502    0  0.58445367211E+02  0.14746585376E+03  0.41536606127E+02  0.16397356074E+03  0.00000000000E+00 0. -1.
         -2    1    3    3    0  502  0.34609728805E+02  0.37621562258E+03  0.33357793623E+02  0.37927400437E+03  0.00000000000E+00 0.  1.
         13    1    5    5    0    0  0.84933771608E+01 -0.80240116179E+02 -0.47465783485E+02  0.93614177889E+02  0.00000000000E+00 0.  1.
        -13    1    5    5    0    0 -0.63385809283E+02 -0.41132393433E+03 -0.48472674690E+03  0.63887804699E+03  0.00000000000E+00 0. -1.
          3    1    6    6  503    0 -0.59627729249E+02 -0.21738094696E+02  0.30202243446E+03  0.30861879686E+03  0.00000000000E+00 0. -1.
         -3    1    6    6    0  503  0.21465065355E+02 -0.10379331131E+02  0.28961782655E+02  0.37513522894E+02  0.00000000000E+00 0.  1.
<mgrwt>
<rscale>  0 0.16169459E+04</rscale>
<asrwt>0</asrwt>
<pdfrwt beam="1">  1        3 0.13447585E+00 0.16169459E+04</pdfrwt>
<pdfrwt beam="2">  1       -4 0.11504294E+00 0.16169459E+04</pdfrwt>
<totfact> 0.55095554E-01</totfact>
</mgrwt>
</event>
<event>
12    5  0.5029243E-008  0.1316638E+04  0.7818608E-02  0.9016475E-01
          1   -1    0    0  501    0  0.00000000000E+00  0.00000000000E+00  0.15779846170E+04  0.15779846170E+04  0.00000000000E+00 0. -1.
         -2   -1    0    0    0  501 -0.00000000000E+00 -0.00000000000E+00 -0.27464373184E+03  0.27464373184E+03  0.00000000000E+00 0.  1.
        -24    2    1    2    0    0  0.97806975785E+02  0.22548265940E+03  0.69940933676E+03  0.74590520061E+03  0.82416707964E+02 0.  0.
        254    2    1    2    0    0 -0.97806975785E+02 -0.22548265940E+03  0.60393154839E+03  0.11067231482E+04  0.89425621465E+03 0.  0.
         23    2    4    4    0    0  0.35624336814E+03  0.34679387856E+02  0.38160700004E+03  0.53079897927E+03  0.89507857908E+02 0.  0.
         23    2    4    4    0    0 -0.45405034393E+03 -0.26016204725E+03  0.22232454835E+03  0.57592416894E+03  0.91730245387E+02 0.  0.
          3    1    3    3  502    0  0.95109396716E+02  0.23038147480E+03  0.69617134687E+03  0.73944301030E+03  0.00000000000E+00 0. -1.
         -4    1    3    3    0  502  0.26975790690E+01 -0.48988153978E+01  0.32379898868E+01  0.64621903130E+01  0.00000000000E+00 0.  1.
         13    1    5    5    0    0  0.16530551483E+03  0.84770582018E+01  0.24042078383E+03  0.29189026542E+03  0.00000000000E+00 0. -1.
        -13    1    5    5    0    0  0.19093785331E+03  0.26202329654E+02  0.14118621621E+03  0.23890871385E+03  0.00000000000E+00 0.  1.
          3    1    6    6  503    0 -0.11518806103E+03 -0.84601072645E+02  0.10264284128E+03  0.17595790338E+03  0.00000000000E+00 0. -1.
         -3    1    6    6    0  503 -0.33886228290E+03 -0.17556097461E+03  0.11968170706E+03  0.39996626556E+03  0.00000000000E+00 0.  1.
<mgrwt>
<rscale>  0 0.13166375E+04</rscale>
<asrwt>0</asrwt>
<pdfrwt beam="1">  1        1 0.24276686E+00 0.13166375E+04</pdfrwt>
<pdfrwt beam="2">  1       -2 0.42252883E-01 0.13166375E+04</pdfrwt>
<totfact> 0.26417178E+01</totfact>
</mgrwt>
</event>
<event>
12    5  0.5029243E-008  0.1411682E+04  0.7818608E-02  0.8945406E-01
         -4   -1    0    0    0  501 -0.00000000000E+00  0.00000000000E+00  0.16770758135E+04  0.16770758135E+04  0.00000000000E+00 0.  1.
          3   -1    0    0  501    0  0.00000000000E+00 -0.00000000000E+00 -0.29707135107E+03  0.29707135107E+03  0.00000000000E+00 0. -1.
        -24    2    1    2    0    0 -0.24951154303E+03 -0.33699161297E+02  0.82673017135E+03  0.86645165268E+03  0.62161456292E+02 0.  0.
        254    2    1    2    0    0  0.24951154303E+03  0.33699161297E+02  0.55327429112E+03  0.11076955119E+04  0.92600500125E+03 0.  0.
         23    2    4    4    0    0  0.92961488244E+02 -0.79381829934E+02  0.78107272332E+03  0.79524998756E+03  0.86050161992E+02 0.  0.
         23    2    4    4    0    0  0.15655005479E+03  0.11308099123E+03 -0.22779843221E+03  0.31244552436E+03  0.91841438068E+02 0.  0.
          3    1    3    3  502    0 -0.37655073131E+02 -0.22509935527E+02  0.96028120470E+02  0.10557462598E+03  0.00000000000E+00 0. -1.
         -4    1    3    3    0  502 -0.21185646990E+03 -0.11189225771E+02  0.73070205088E+03  0.76087702670E+03  0.00000000000E+00 0.  1.
         13    1    5    5    0    0  0.13219660951E+02 -0.21715705610E+01  0.11329533613E+02  0.17545184133E+02  0.00000000000E+00 0.  1.
        -13    1    5    5    0    0  0.79741827292E+02 -0.77210259373E+02  0.76974318971E+03  0.77770480343E+03  0.00000000000E+00 0. -1.
          2    1    6    6  503    0  0.12428663056E+03  0.11022724949E+03 -0.22534963886E+03  0.27996369908E+03  0.00000000000E+00 0. -1.
         -2    1    6    6    0  503  0.32263424228E+02  0.28537417442E+01 -0.24487933407E+01  0.32481825283E+02  0.00000000000E+00 0.  1.
<mgrwt>
<rscale>  0 0.14116815E+04</rscale>
<asrwt>0</asrwt>
<pdfrwt beam="1">  1        3 0.45703286E-01 0.14116815E+04</pdfrwt>
<pdfrwt beam="2">  1       -4 0.25801166E+00 0.14116815E+04</pdfrwt>
<totfact> 0.59845788E-01</totfact>
</mgrwt>
</event>
<event>
12    5  0.6219630E-008  0.1521808E+04  0.7818608E-02  0.8870079E-01
         -2   -1    0    0    0  501 -0.00000000000E+00  0.00000000000E+00  0.52551613897E+03  0.52551613897E+03  0.00000000000E+00 0.  1.
          1   -1    0    0  501    0  0.00000000000E+00 -0.00000000000E+00 -0.11017264136E+04  0.11017264136E+04  0.00000000000E+00 0. -1.
        -24    2    1    2    0    0  0.45595241436E+03  0.15778436238E+03 -0.68067872406E+02  0.49381722091E+03  0.80210368707E+02 0.  0.
        254    2    1    2    0    0 -0.45595241436E+03 -0.15778436238E+03 -0.50814240221E+03  0.11334253316E+04  0.89087360064E+03 0.  0.
         23    2    4    4    0    0 -0.64872414546E+03 -0.28876193615E+03 -0.51736073613E+03  0.88323808451E+03  0.90669233792E+02 0.  0.
         23    2    4    4    0    0  0.19277173110E+03  0.13097757377E+03  0.92183339248E+01  0.25018724714E+03  0.90513069812E+02 0.  0.
          3    1    3    3  502    0  0.12354354783E+03  0.33029028945E+02  0.16202637291E+02  0.12890481146E+03  0.00000000000E+00 0. -1.
         -4    1    3    3    0  502  0.33240886653E+03  0.12475533343E+03 -0.84270509696E+02  0.36491240945E+03  0.00000000000E+00 0.  1.
         13    1    5    5    0    0 -0.60641158717E+03 -0.27390377366E+03 -0.50867054063E+03  0.83755836166E+03  0.00000000000E+00 0. -1.
        -13    1    5    5    0    0 -0.42312558289E+02 -0.14858162482E+02 -0.86901955066E+01  0.45679722845E+02  0.00000000000E+00 0.  1.
          4    1    6    6  503    0  0.13440331719E+03  0.92860363354E+02  0.48189006065E+02  0.17032169286E+03  0.00000000000E+00 0. -1.
         -4    1    6    6    0  503  0.58368413915E+02  0.38117210417E+02 -0.38970672140E+02  0.79865554277E+02  0.00000000000E+00 0.  1.
<mgrwt>
<rscale>  0 0.15218081E+04</rscale>
<asrwt>0</asrwt>
<pdfrwt beam="1">  1        1 0.16949637E+00 0.15218081E+04</pdfrwt>
<pdfrwt beam="2">  1       -2 0.80848637E-01 0.15218081E+04</pdfrwt>
<totfact> 0.14448427E+01</totfact>
</mgrwt>
</event>
<event>
12    5  0.5029243E-008  0.1297312E+04  0.7818608E-02  0.9031699E-01
         -2   -1    0    0    0  501 -0.00000000000E+00  0.00000000000E+00  0.91701231706E+03  0.91701231706E+03  0.00000000000E+00 0.  1.
          1   -1    0    0  501    0  0.00000000000E+00 -0.00000000000E+00 -0.45883203096E+03  0.45883203096E+03  0.00000000000E+00 0. -1.
        -24    2    1    2    0    0  0.14355931061E+03 -0.53600164718E+02  0.42264212536E+03  0.45663014150E+03  0.80015415256E+02 0.  0.
        254    2    1    2    0    0 -0.14355931061E+03  0.53600164718E+02  0.35538160739E+02  0.91921420652E+03  0.90565420734E+03 0.  0.
         23    2    4    4    0    0 -0.20496562659E+03 -0.37238897222E+03  0.15857808865E+03  0.46264087101E+03  0.90582065616E+02 0.  0.
         23    2    4    4    0    0  0.61406315986E+02  0.42598913694E+03 -0.12303992791E+03  0.45657333551E+03  0.89904985454E+02 0.  0.
          1    1    3    3  502    0 -0.85488639937E+01 -0.32069403463E+01  0.52559949562E+02  0.53347125883E+02  0.00000000000E+00 0. -1.
         -4    1    3    3    0  502  0.15210817460E+03 -0.50393224371E+02  0.37008217580E+03  0.40328301562E+03  0.00000000000E+00 0.  1.
         13    1    5    5    0    0 -0.78605811637E+02 -0.23008716169E+03  0.72111649487E+02  0.25361203755E+03  0.00000000000E+00 0. -1.
        -13    1    5    5    0    0 -0.12635981495E+03 -0.14230181053E+03  0.86466439160E+02  0.20902883345E+03  0.00000000000E+00 0.  1.
          3    1    6    6  503    0 -0.18975464014E+02  0.14991845636E+03 -0.27610863340E+02  0.15361631283E+03  0.00000000000E+00 0. -1.
         -3    1    6    6    0  503  0.80381780000E+02  0.27607068058E+03 -0.95429064568E+02  0.30295702268E+03  0.00000000000E+00 0.  1.
<mgrwt>
<rscale>  0 0.12973120E+04</rscale>
<asrwt>0</asrwt>
<pdfrwt beam="1">  1        1 0.70589543E-01 0.12973120E+04</pdfrwt>
<pdfrwt beam="2">  1       -2 0.14107882E+00 0.12973120E+04</pdfrwt>
<totfact> 0.15070771E+01</totfact>
</mgrwt>
</event>
<event>
12    5  0.5029243E-008  0.1992822E+04  0.7818608E-02  0.8609984E-01
         -2   -1    0    0    0  501 -0.00000000000E+00  0.00000000000E+00  0.64966588020E+03  0.64966588020E+03  0.00000000000E+00 0.  1.
          1   -1    0    0  501    0  0.00000000000E+00 -0.00000000000E+00 -0.15282242910E+04  0.15282242910E+04  0.00000000000E+00 0. -1.
        -24    2    1    2    0    0  0.89623675067E+02  0.23011824623E+03 -0.11771149999E+04  0.12054452793E+04  0.80695651198E+02 0.  0.
        254    2    1    2    0    0 -0.89623675067E+02 -0.23011824623E+03  0.29855658906E+03  0.97244489190E+03  0.89192276602E+03 0.  0.
         23    2    4    4    0    0  0.27985506234E+03  0.99370745749E+02  0.34832686158E+03  0.46674623403E+03  0.91252635343E+02 0.  0.
         23    2    4    4    0    0 -0.36947873740E+03 -0.32948899198E+03 -0.49770272521E+02  0.50569865787E+03  0.90424108080E+02 0.  0.
          1    1    3    3  502    0  0.80685214879E+02  0.15765425816E+03 -0.96497742628E+03  0.98109449201E+03  0.00000000000E+00 0. -1.
         -2    1    3    3    0  502  0.89384601880E+01  0.72463988066E+02 -0.21213757361E+03  0.22435078733E+03  0.00000000000E+00 0.  1.
         13    1    5    5    0    0  0.20914901507E+03  0.93854907536E+02  0.31170989483E+03  0.38693037191E+03  0.00000000000E+00 0.  1.
        -13    1    5    5    0    0  0.70706047268E+02  0.55158382127E+01  0.36616966744E+02  0.79815862114E+02  0.00000000000E+00 0. -1.
          2    1    6    6  503    0 -0.67055994004E+02 -0.11261358365E+03 -0.15346484688E+02  0.13196151009E+03  0.00000000000E+00 0.  1.
         -2    1    6    6    0  503 -0.30242274340E+03 -0.21687540833E+03 -0.34423787834E+02  0.37373714778E+03  0.00000000000E+00 0. -1.
<mgrwt>
<rscale>  0 0.19928223E+04</rscale>
<asrwt>0</asrwt>
<pdfrwt beam="1">  1        1 0.23511143E+00 0.19928223E+04</pdfrwt>
<pdfrwt beam="2">  1       -2 0.99948598E-01 0.19928223E+04</pdfrwt>
<totfact> 0.42138497E+00</totfact>
</mgrwt>
</event>
<event>
12    5  0.5029243E-008  0.1043847E+04  0.7818608E-02  0.9261720E-01
          1   -1    0    0  501    0  0.00000000000E+00  0.00000000000E+00  0.72883761540E+03  0.72883761540E+03  0.00000000000E+00 0. -1.
         -2   -1    0    0    0  501 -0.00000000000E+00 -0.00000000000E+00 -0.37375127440E+03  0.37375127440E+03  0.00000000000E+00 0.  1.
        -24    2    1    2    0    0 -0.28387006325E+02 -0.10101275081E+03  0.66414047624E+02  0.14599636661E+03  0.76777049870E+02 0.  0.
        254    2    1    2    0    0  0.28387006325E+02  0.10101275081E+03  0.28867229338E+03  0.95659252320E+03  0.90594048619E+03 0.  0.
         23    2    4    4    0    0  0.33751987598E+03 -0.24501396368E+03  0.53957616758E+02  0.42936362506E+03  0.86545878222E+02 0.  0.
         23    2    4    4    0    0 -0.30913286965E+03  0.34602671449E+03  0.23471467662E+03  0.52722889814E+03  0.87073034675E+02 0.  0.
          1    1    3    3  502    0 -0.22342817474E+02 -0.13487765168E+02  0.50480458726E+02  0.56827792629E+02  0.00000000000E+00 0. -1.
         -2    1    3    3    0  502 -0.60441888514E+01 -0.87524985640E+02  0.15933588898E+02  0.89168573978E+02  0.00000000000E+00 0.  1.
         13    1    5    5    0    0  0.16800209971E+03 -0.17433841574E+03  0.24393681320E+02  0.24333853044E+03  0.00000000000E+00 0.  1.
        -13    1    5    5    0    0  0.16951777627E+03 -0.70675547942E+02  0.29563935438E+02  0.18602509462E+03  0.00000000000E+00 0. -1.
          3    1    6    6  503    0 -0.21832143381E+03  0.19820209272E+03  0.17929791905E+03  0.34510297274E+03  0.00000000000E+00 0. -1.
         -3    1    6    6    0  503 -0.90811435848E+02  0.14782462177E+03  0.55416757575E+02  0.18212592540E+03  0.00000000000E+00 0.  1.
<mgrwt>
<rscale>  0 0.10438467E+04</rscale>
<asrwt>0</asrwt>
<pdfrwt beam="1">  1        1 0.11212886E+00 0.10438467E+04</pdfrwt>
<pdfrwt beam="2">  1       -2 0.57500196E-01 0.10438467E+04</pdfrwt>
<totfact> 0.63562100E+01</totfact>
</mgrwt>
</event>
<event>
12    5  0.5029243E-008  0.1918999E+04  0.7818608E-02  0.8645457E-01
          1   -1    0    0  501    0  0.00000000000E+00  0.00000000000E+00  0.14120046782E+04  0.14120046782E+04  0.00000000000E+00 0. -1.
         -2   -1    0    0    0  501 -0.00000000000E+00 -0.00000000000E+00 -0.65200857291E+03  0.65200857291E+03  0.00000000000E+00 0.  1.
        -24    2    1    2    0    0  0.44214646817E+03 -0.30428582070E+03 -0.26344307950E+03  0.60346561558E+03  0.81762662974E+02 0.  0.
        254    2    1    2    0    0 -0.44214646817E+03  0.30428582070E+03  0.10234391848E+04  0.14605476355E+04  0.89313396010E+03 0.  0.
         23    2    4    4    0    0 -0.55956385858E+03  0.11249523665E+03  0.21538895832E+03  0.61694769983E+03  0.92006363192E+02 0.  0.
         23    2    4    4    0    0  0.11741739041E+03  0.19179058405E+03  0.80805022643E+03  0.84359993567E+03  0.90250824471E+02 0.  0.
          3    1    3    3  502    0  0.42590726234E+03 -0.29850767912E+03 -0.26874839354E+03  0.58543106309E+03  0.00000000000E+00 0. -1.
         -4    1    3    3    0  502  0.16239205832E+02 -0.57781415818E+01  0.53053140446E+01  0.18034552484E+02  0.00000000000E+00 0.  1.
         13    1    5    5    0    0 -0.36760421025E+03  0.68247319458E+02  0.18659360285E+03  0.41786089148E+03  0.00000000000E+00 0.  1.
        -13    1    5    5    0    0 -0.19195964833E+03  0.44247917194E+02  0.28795355469E+02  0.19908680835E+03  0.00000000000E+00 0. -1.
          4    1    6    6  503    0 -0.10211809497E+02  0.46969290984E+02  0.19727919136E+03  0.20305042402E+03  0.00000000000E+00 0. -1.
         -4    1    6    6    0  503  0.12762919990E+03  0.14482129307E+03  0.61077103507E+03  0.64054951165E+03  0.00000000000E+00 0.  1.
<mgrwt>
<rscale>  0 0.19189989E+04</rscale>
<asrwt>0</asrwt>
<pdfrwt beam="1">  1        1 0.21723149E+00 0.19189989E+04</pdfrwt>
<pdfrwt beam="2">  1       -2 0.10030901E+00 0.19189989E+04</pdfrwt>
<totfact> 0.50648110E+00</totfact>
</mgrwt>
</event>
<event>
12    5  0.5029243E-008  0.2771136E+04  0.7818608E-02  0.8312286E-01
          1   -1    0    0  501    0  0.00000000000E+00  0.00000000000E+00  0.17199382956E+04  0.17199382956E+04  0.00000000000E+00 0. -1.
         -2   -1    0    0    0  501 -0.00000000000E+00 -0.00000000000E+00 -0.11162020047E+04  0.11162020047E+04  0.00000000000E+00 0.  1.
        -24    2    1    2    0    0 -0.12040504849E+04  0.19321427820E+03  0.18068121603E+03  0.12352952590E+04  0.78989540639E+02 0.  0.
        254    2    1    2    0    0  0.12040504849E+04 -0.19321427820E+03  0.42305507482E+03  0.16008450413E+04  0.94692128630E+03 0.  0.
         23    2    4    4    0    0  0.46332383313E+03 -0.54294590429E+03  0.18382988604E+03  0.74268437778E+03  0.91254746068E+02 0.  0.
         23    2    4    4    0    0  0.74072665181E+03  0.34973162609E+03  0.23922518878E+03  0.85816066355E+03  0.90679934509E+02 0.  0.
          3    1    3    3  502    0 -0.37149880491E+03  0.22940273250E+02  0.51940858403E+02  0.37581307982E+03  0.00000000000E+00 0. -1.
         -4    1    3    3    0  502 -0.83255168002E+03  0.17027400495E+03  0.12874035763E+03  0.85948217919E+03  0.00000000000E+00 0.  1.
         13    1    5    5    0    0  0.41834163818E+03 -0.48001678185E+03  0.13402126797E+03  0.65068236288E+03  0.00000000000E+00 0.  1.
        -13    1    5    5    0    0  0.44982194941E+02 -0.62929122435E+02  0.49808618067E+02  0.92002014901E+02  0.00000000000E+00 0. -1.
          1    1    6    6  503    0  0.31656628414E+03  0.10124284120E+03  0.87399538439E+02  0.34366117684E+03  0.00000000000E+00 0. -1.
         -1    1    6    6    0  503  0.42416036767E+03  0.24848878489E+03  0.15182565035E+03  0.51449948671E+03  0.00000000000E+00 0.  1.
<mgrwt>
<rscale>  0 0.27711359E+04</rscale>
<asrwt>0</asrwt>
<pdfrwt beam="1">  1        1 0.26460589E+00 0.27711359E+04</pdfrwt>
<pdfrwt beam="2">  1       -2 0.17172339E+00 0.27711359E+04</pdfrwt>
<totfact> 0.72983895E-01</totfact>
</mgrwt>
</event>
<event>
12    5  0.5029243E-008  0.3537656E+04  0.7818608E-02  0.8104923E-01
         -2   -1    0    0    0  501 -0.00000000000E+00  0.00000000000E+00  0.10819416751E+04  0.10819416751E+04  0.00000000000E+00 0.  1.
          1   -1    0    0  501    0  0.00000000000E+00 -0.00000000000E+00 -0.28917944695E+04  0.28917944695E+04  0.00000000000E+00 0. -1.
        -24    2    1    2    0    0 -0.47141272877E+03  0.48386769378E+03 -0.25413460685E+04  0.26308766092E+04  0.81938923951E+02 0.  0.
        254    2    1    2    0    0  0.47141272877E+03 -0.48386769378E+03  0.73149327410E+03  0.13428595354E+04  0.90101687873E+03 0.  0.
         23    2    4    4    0    0  0.71929677708E+03 -0.24438134764E+03  0.44393292859E+03  0.88485971209E+03  0.93755897953E+02 0.  0.
         23    2    4    4    0    0 -0.24788404832E+03 -0.23948634613E+03  0.28756034552E+03  0.45799982328E+03  0.90954243513E+02 0.  0.
          1    1    3    3  502    0 -0.38551467420E+03  0.34592739942E+03 -0.19449342931E+04  0.20127237103E+04  0.00000000000E+00 0. -1.
         -2    1    3    3    0  502 -0.85898054567E+02  0.13794029435E+03 -0.59641177541E+03  0.61815289891E+03  0.00000000000E+00 0.  1.
         13    1    5    5    0    0  0.31572804254E+03 -0.83229373818E+02  0.23756612856E+03  0.40379325273E+03  0.00000000000E+00 0.  1.
        -13    1    5    5    0    0  0.40356873454E+03 -0.16115197383E+03  0.20636680003E+03  0.48106645936E+03  0.00000000000E+00 0. -1.
          3    1    6    6  503    0 -0.58405203783E+00 -0.19579551464E+02  0.40593689169E+02  0.45072691872E+02  0.00000000000E+00 0. -1.
         -3    1    6    6    0  503 -0.24729999628E+03 -0.21990679467E+03  0.24696665635E+03  0.41292713140E+03  0.00000000000E+00 0.  1.
<mgrwt>
<rscale>  0 0.35376563E+04</rscale>
<asrwt>0</asrwt>
<pdfrwt beam="1">  1        1 0.44489146E+00 0.35376563E+04</pdfrwt>
<pdfrwt beam="2">  1       -2 0.16645256E+00 0.35376563E+04</pdfrwt>
<totfact> 0.11582186E-01</totfact>
</mgrwt>
</event>
<event>
12    5  0.5029243E-008  0.1697171E+04  0.7818608E-02  0.8762979E-01
          1   -1    0    0  501    0  0.00000000000E+00  0.00000000000E+00  0.35832399238E+04  0.35832399238E+04  0.00000000000E+00 0. -1.
         -2   -1    0    0    0  501 -0.00000000000E+00 -0.00000000000E+00 -0.20096263315E+03  0.20096263315E+03  0.00000000000E+00 0.  1.
        -24    2    1    2    0    0  0.34682431128E+03  0.24322826592E+03  0.25300279269E+03  0.49982507967E+03  0.79797273880E+02 0.  0.
        254    2    1    2    0    0 -0.34682431128E+03 -0.24322826592E+03  0.31292744979E+04  0.32843774772E+04  0.90295594437E+03 0.  0.
         23    2    4    4    0    0 -0.64028419791E+03 -0.11032354076E+03  0.22379118950E+04  0.23321784294E+04  0.93120563507E+02 0.  0.
         23    2    4    4    0    0  0.29345988662E+03 -0.13290472516E+03  0.89136260295E+03  0.95219904781E+03  0.91506096453E+02 0.  0.
          3    1    3    3  502    0  0.37994383089E+02  0.28725632093E+02  0.61691744671E+02  0.77939761650E+02  0.00000000000E+00 0. -1.
         -4    1    3    3    0  502  0.30882992819E+03  0.21450263383E+03  0.19131104802E+03  0.42188531802E+03  0.00000000000E+00 0.  1.
         13    1    5    5    0    0 -0.17952711099E+03 -0.17024950912E+02  0.48921877438E+03  0.52139700972E+03  0.00000000000E+00 0.  1.
        -13    1    5    5    0    0 -0.46075708691E+03 -0.93298589844E+02  0.17486931206E+04  0.18107814197E+04  0.00000000000E+00 0. -1.
          3    1    6    6  503    0  0.22117770803E+03 -0.81833453466E+02  0.74208855997E+03  0.77866021053E+03  0.00000000000E+00 0. -1.
         -3    1    6    6    0  503  0.72282178594E+02 -0.51071271698E+02  0.14927404298E+03  0.17353883728E+03  0.00000000000E+00 0.  1.
<mgrwt>
<rscale>  0 0.16971710E+04</rscale>
<asrwt>0</asrwt>
<pdfrwt beam="1">  1        1 0.55126763E+00 0.16971710E+04</pdfrwt>
<pdfrwt beam="2">  1       -2 0.30917331E-01 0.16971710E+04</pdfrwt>
<totfact> 0.17541054E+00</totfact>
</mgrwt>
</event>
<event>
12    5  0.5029243E-008  0.1443343E+04  0.7818608E-02  0.8923029E-01
         -2   -1    0    0    0  501 -0.00000000000E+00  0.00000000000E+00  0.32873622343E+03  0.32873622343E+03  0.00000000000E+00 0.  1.
          1   -1    0    0  501    0  0.00000000000E+00 -0.00000000000E+00 -0.15842784446E+04  0.15842784446E+04  0.00000000000E+00 0. -1.
        -24    2    1    2    0    0 -0.13409441191E+03 -0.11828715858E+02 -0.94485574022E+03  0.95749639984E+03  0.76978932580E+02 0.  0.
        254    2    1    2    0    0  0.13409441191E+03  0.11828715858E+02 -0.31068648094E+03  0.95551826817E+03  0.89351432084E+03 0.  0.
         23    2    4    4    0    0  0.10642582179E+03 -0.42307288740E+03 -0.77087298700E+02  0.45219963927E+03  0.90691446875E+02 0.  0.
         23    2    4    4    0    0  0.27668590119E+02  0.43490160326E+03 -0.23359918224E+03  0.50331862891E+03  0.94106901271E+02 0.  0.
          1    1    3    3  502    0 -0.85142596333E+02 -0.36711650584E+02 -0.72415342463E+03  0.73006519531E+03  0.00000000000E+00 0. -1.
         -2    1    3    3    0  502 -0.48951815573E+02  0.24882934726E+02 -0.22070231559E+03  0.22743120453E+03  0.00000000000E+00 0.  1.
         13    1    5    5    0    0  0.16749204026E+02 -0.12989296404E+03  0.15631696832E+02  0.13189794497E+03  0.00000000000E+00 0. -1.
        -13    1    5    5    0    0  0.89676617761E+02 -0.29317992336E+03 -0.92718995532E+02  0.32030169429E+03  0.00000000000E+00 0.  1.
          2    1    6    6  503    0  0.22489846808E+02  0.27203155054E+03 -0.19612435377E+03  0.33611265945E+03  0.00000000000E+00 0. -1.
         -2    1    6    6    0  503  0.51787433117E+01  0.16287005271E+03 -0.37474828469E+02  0.16720596945E+03  0.00000000000E+00 0.  1.
<mgrwt>
<rscale>  0 0.14433429E+04</rscale>
<asrwt>0</asrwt>
<pdfrwt beam="1">  1        1 0.24373513E+00 0.14433429E+04</pdfrwt>
<pdfrwt beam="2">  1       -2 0.50574806E-01 0.14433429E+04</pdfrwt>
<totfact> 0.18035052E+01</totfact>
</mgrwt>
</event>
<event>
12    5  0.5029243E-008  0.1668612E+04  0.7818608E-02  0.8779471E-01
          1   -1    0    0  501    0  0.00000000000E+00  0.00000000000E+00  0.18534674125E+04  0.18534674125E+04  0.00000000000E+00 0. -1.
         -2   -1    0    0    0  501 -0.00000000000E+00 -0.00000000000E+00 -0.37554838349E+03  0.37554838349E+03  0.00000000000E+00 0.  1.
        -24    2    1    2    0    0  0.44520224817E+02 -0.54132834558E+03  0.81592069358E+03  0.98333524997E+03  0.78760443587E+02 0.  0.
        254    2    1    2    0    0 -0.44520224817E+02  0.54132834558E+03  0.66199833542E+03  0.12456805460E+04  0.90468768005E+03 0.  0.
         23    2    4    4    0    0  0.17238153621E+03  0.26559769981E+02 -0.15564293628E+03  0.25117689614E+03  0.91892840490E+02 0.  0.
         23    2    4    4    0    0 -0.21690176102E+03  0.51476857560E+03  0.81764127170E+03  0.99450364986E+03  0.92017389884E+02 0.  0.
          3    1    3    3  502    0 -0.44792541474E+01 -0.49452249426E+02  0.42059414889E+02  0.65073674184E+02  0.00000000000E+00 0. -1.
         -4    1    3    3    0  502  0.48999478964E+02 -0.49187609615E+03  0.77386127869E+03  0.91826157578E+03  0.00000000000E+00 0.  1.
         13    1    5    5    0    0  0.82083599222E+02  0.27997334287E+02 -0.13179749933E+03  0.15777245899E+03  0.00000000000E+00 0.  1.
        -13    1    5    5    0    0  0.90297936984E+02 -0.14375643065E+01 -0.23845436956E+02  0.93404437145E+02  0.00000000000E+00 0. -1.
          3    1    6    6  503    0 -0.10242937793E+03  0.28489275182E+03  0.36627361215E+03  0.47519681865E+03  0.00000000000E+00 0. -1.
         -3    1    6    6    0  503 -0.11447238309E+03  0.22987582378E+03  0.45136765955E+03  0.51930683121E+03  0.00000000000E+00 0.  1.
<mgrwt>
<rscale>  0 0.16686122E+04</rscale>
<asrwt>0</asrwt>
<pdfrwt beam="1">  1        1 0.28514883E+00 0.16686122E+04</pdfrwt>
<pdfrwt beam="2">  1       -2 0.57776676E-01 0.16686122E+04</pdfrwt>
<totfact> 0.88033093E+00</totfact>
</mgrwt>
</event>
<event>
12    5  0.5029243E-008  0.1706478E+04  0.7818608E-02  0.8757678E-01
         -2   -1    0    0    0  501 -0.00000000000E+00  0.00000000000E+00  0.20259431361E+03  0.20259431361E+03  0.00000000000E+00 0.  1.
          1   -1    0    0  501    0  0.00000000000E+00 -0.00000000000E+00 -0.35934730124E+04  0.35934730124E+04  0.00000000000E+00 0. -1.
        -24    2    1    2    0    0 -0.59958603575E+03  0.11896237475E+03 -0.12149192680E+04  0.13623298517E+04  0.79109646794E+02 0.  0.
        254    2    1    2    0    0  0.59958603575E+03 -0.11896237475E+03 -0.21759594308E+04  0.24337374743E+04  0.90256478355E+03 0.  0.
         23    2    4    4    0    0 -0.13343033404E+03 -0.28478649389E+03 -0.77490000130E+03  0.84126971287E+03  0.91420548154E+02 0.  0.
         23    2    4    4    0    0  0.73301636979E+03  0.16582411914E+03 -0.14010594295E+04  0.15924677614E+04  0.90417970442E+02 0.  0.
          1    1    3    3  502    0 -0.13442134960E+03 -0.55665420436E+01 -0.28289233527E+03  0.31325414438E+03  0.00000000000E+00 0. -1.
         -2    1    3    3    0  502 -0.46516468616E+03  0.12452891679E+03 -0.93202693275E+03  0.10490757073E+04  0.00000000000E+00 0.  1.
         13    1    5    5    0    0 -0.86811485384E+02 -0.16098762670E+03 -0.55801080385E+03  0.58722168485E+03  0.00000000000E+00 0. -1.
        -13    1    5    5    0    0 -0.46618848658E+02 -0.12379886719E+03 -0.21688919745E+03  0.25404802802E+03  0.00000000000E+00 0.  1.
          2    1    6    6  503    0  0.59628060639E+03  0.98571362976E+02 -0.11335964991E+04  0.12846431014E+04  0.00000000000E+00 0. -1.
         -2    1    6    6    0  503  0.13673576340E+03  0.67252756165E+02 -0.26746293039E+03  0.30782466006E+03  0.00000000000E+00 0.  1.
<mgrwt>
<rscale>  0 0.17064785E+04</rscale>
<asrwt>0</asrwt>
<pdfrwt beam="1">  1        1 0.55284201E+00 0.17064785E+04</pdfrwt>
<pdfrwt beam="2">  1       -2 0.31168356E-01 0.17064785E+04</pdfrwt>
<totfact> 0.16939156E+00</totfact>
</mgrwt>
</event>
<event>
12    5  0.5029243E-008  0.3260867E+04  0.7818608E-02  0.8172925E-01
          1   -1    0    0  501    0  0.00000000000E+00  0.00000000000E+00  0.18868553446E+04  0.18868553446E+04  0.00000000000E+00 0. -1.
         -2   -1    0    0    0  501 -0.00000000000E+00 -0.00000000000E+00 -0.14088592281E+04  0.14088592281E+04  0.00000000000E+00 0.  1.
        -24    2    1    2    0    0 -0.37221992757E+02  0.11336174236E+04  0.12188390928E+04  0.16672561857E+04  0.87752576377E+02 0.  0.
        254    2    1    2    0    0  0.37221992757E+02 -0.11336174236E+04 -0.74084297626E+03  0.16284583870E+04  0.90363403153E+03 0.  0.
         23    2    4    4    0    0  0.16705464750E+03 -0.60991575925E+03  0.77971027642E+02  0.64369924111E+03  0.91458970123E+02 0.  0.
         23    2    4    4    0    0 -0.12983265474E+03 -0.52370166437E+03 -0.81881400391E+03  0.98475914593E+03  0.90411564523E+02 0.  0.
          3    1    3    3  502    0  0.14807360221E+00  0.84132762085E+03  0.94086198979E+03  0.12621622207E+04  0.00000000000E+00 0. -1.
         -4    1    3    3    0  502 -0.37370066360E+02  0.29228980277E+03  0.27797710302E+03  0.40509396498E+03  0.00000000000E+00 0.  1.
         13    1    5    5    0    0  0.42944613498E+02 -0.31323911867E+03  0.18940588719E+02  0.31673605920E+03  0.00000000000E+00 0. -1.
        -13    1    5    5    0    0  0.12411003400E+03 -0.29667664058E+03  0.59030438923E+02  0.32696318191E+03  0.00000000000E+00 0.  1.
          2    1    6    6  503    0  0.60257337972E+01 -0.74950132994E+02 -0.15230064766E+03  0.16985087336E+03  0.00000000000E+00 0. -1.
         -2    1    6    6    0  503 -0.13585838854E+03 -0.44875153138E+03 -0.66651335625E+03  0.81490827257E+03  0.00000000000E+00 0.  1.
<mgrwt>
<rscale>  0 0.32608671E+04</rscale>
<asrwt>0</asrwt>
<pdfrwt beam="1">  1        1 0.29028544E+00 0.32608671E+04</pdfrwt>
<pdfrwt beam="2">  1       -2 0.21674757E+00 0.32608671E+04</pdfrwt>
<totfact> 0.26972999E-01</totfact>
</mgrwt>
</event>
<event>
12    5  0.5029243E-008  0.2302241E+04  0.7818608E-02  0.8477038E-01
          1   -1    0    0  501    0  0.00000000000E+00  0.00000000000E+00  0.29838519689E+04  0.29838519689E+04  0.00000000000E+00 0. -1.
         -2   -1    0    0    0  501 -0.00000000000E+00 -0.00000000000E+00 -0.44408299028E+03  0.44408299028E+03  0.00000000000E+00 0.  1.
        -24    2    1    2    0    0  0.51875180078E+03 -0.56368380770E+03  0.18596243892E+03  0.79245164231E+03  0.80961168752E+02 0.  0.
        254    2    1    2    0    0 -0.51875180078E+03  0.56368380770E+03  0.23538065397E+04  0.26354833169E+04  0.90472328439E+03 0.  0.
         23    2    4    4    0    0  0.21067505610E+03  0.19522432035E+03  0.30946266917E+03  0.43196178176E+03  0.91254165795E+02 0.  0.
         23    2    4    4    0    0 -0.72942685688E+03  0.36845948735E+03  0.20443438706E+04  0.22035215351E+04  0.91320103863E+02 0.  0.
          3    1    3    3  502    0  0.38646363542E+03 -0.41102142097E+03  0.10023786891E+03  0.57300993042E+03  0.00000000000E+00 0. -1.
         -4    1    3    3    0  502  0.13228816535E+03 -0.15266238673E+03  0.85724570004E+02  0.21944171189E+03  0.00000000000E+00 0.  1.
         13    1    5    5    0    0  0.20491295793E+03  0.18057864865E+03  0.24937007826E+03  0.36984240510E+03  0.00000000000E+00 0. -1.
        -13    1    5    5    0    0  0.57620981696E+01  0.14645671692E+02  0.60092590911E+02  0.62119376663E+02  0.00000000000E+00 0.  1.
          2    1    6    6  503    0 -0.57803411673E+03  0.32474907678E+03  0.17050807839E+04  0.18294496119E+04  0.00000000000E+00 0. -1.
         -2    1    6    6    0  503 -0.15139274015E+03  0.43710410568E+02  0.33926308670E+03  0.37407192325E+03  0.00000000000E+00 0.  1.
<mgrwt>
<rscale>  0 0.23022406E+04</rscale>
<asrwt>0</asrwt>
<pdfrwt beam="1">  1        1 0.45905414E+00 0.23022406E+04</pdfrwt>
<pdfrwt beam="2">  1       -2 0.68320462E-01 0.23022406E+04</pdfrwt>
<totfact> 0.95675034E-01</totfact>
</mgrwt>
</event>
<event>
12    5  0.5029243E-008  0.2461758E+04  0.7818608E-02  0.8416737E-01
         -2   -1    0    0    0  501 -0.00000000000E+00  0.00000000000E+00  0.12418412444E+04  0.12418412444E+04  0.00000000000E+00 0.  1.
          1   -1    0    0  501    0  0.00000000000E+00 -0.00000000000E+00 -0.12200139768E+04  0.12200139768E+04  0.00000000000E+00 0. -1.
        -24    2    1    2    0    0  0.60750282374E+03 -0.86098892073E+03 -0.14957443583E+03  0.10672639201E+04  0.79486859351E+02 0.  0.
        254    2    1    2    0    0 -0.60750282374E+03  0.86098892073E+03  0.17140170337E+03  0.13945913011E+04  0.89729858500E+03 0.  0.
         23    2    4    4    0    0 -0.52171148182E+03  0.66174230629E+02 -0.10195090100E+03  0.54485678080E+03  0.99564181827E+02 0.  0.
         23    2    4    4    0    0 -0.85791341917E+02  0.79481469010E+03  0.27335260437E+03  0.84973452028E+03  0.90755510485E+02 0.  0.
          3    1    3    3  502    0  0.19716099664E+03 -0.28324915518E+03 -0.86756501300E+02  0.35585001479E+03  0.00000000000E+00 0. -1.
         -4    1    3    3    0  502  0.41034182710E+03 -0.57773976555E+03 -0.62817934525E+02  0.71141390531E+03  0.00000000000E+00 0.  1.
         13    1    5    5    0    0 -0.24832786132E+03  0.79899874178E+01 -0.33834668660E+01  0.24847940449E+03  0.00000000000E+00 0. -1.
        -13    1    5    5    0    0 -0.27338362050E+03  0.58184243211E+02 -0.98567434134E+02  0.29637737631E+03  0.00000000000E+00 0.  1.
          2    1    6    6  503    0 -0.53051610412E+02  0.73010151589E+03  0.24715877309E+03  0.77262549530E+03  0.00000000000E+00 0. -1.
         -2    1    6    6    0  503 -0.32739731506E+02  0.64713174213E+02  0.26193831289E+02  0.77109024980E+02  0.00000000000E+00 0.  1.
<mgrwt>
<rscale>  0 0.24617585E+04</rscale>
<asrwt>0</asrwt>
<pdfrwt beam="1">  1        1 0.18769446E+00 0.24617585E+04</pdfrwt>
<pdfrwt beam="2">  1       -2 0.19105250E+00 0.24617585E+04</pdfrwt>
<totfact> 0.12323327E+00</totfact>
</mgrwt>
</event>
<event>
12    5  0.5029243E-008  0.1710176E+04  0.7818608E-02  0.8755582E-01
         -2   -1    0    0    0  501 -0.00000000000E+00  0.00000000000E+00  0.85430457796E+03  0.85430457796E+03  0.00000000000E+00 0.  1.
          1   -1    0    0  501    0  0.00000000000E+00 -0.00000000000E+00 -0.85587192377E+03  0.85587192377E+03  0.00000000000E+00 0. -1.
        -24    2    1    2    0    0 -0.19145317565E+02 -0.61471303907E+03  0.25307659531E+02  0.62069055634E+03  0.79860037030E+02 0.  0.
        254    2    1    2    0    0  0.19145317565E+02  0.61471303907E+03 -0.26875005339E+02  0.10894859454E+04  0.89889860145E+03 0.  0.
         23    2    4    4    0    0  0.41484889412E+03  0.40620103795E+03  0.13952754210E+03  0.60327866378E+03  0.85897165173E+02 0.  0.
         23    2    4    4    0    0 -0.39570357656E+03  0.20851200112E+03 -0.16640254744E+03  0.48620728160E+03  0.93000740710E+02 0.  0.
          3    1    3    3  502    0 -0.16814445639E+02 -0.57096416355E+03  0.44327662200E+02  0.57292909097E+03  0.00000000000E+00 0. -1.
         -4    1    3    3    0  502 -0.23308719265E+01 -0.43748875515E+02 -0.19020002669E+02  0.47761465370E+02  0.00000000000E+00 0.  1.
         13    1    5    5    0    0  0.18510919945E+03  0.14169110332E+03  0.87944808020E+02  0.24915070487E+03  0.00000000000E+00 0. -1.
        -13    1    5    5    0    0  0.22973969467E+03  0.26450993463E+03  0.51582734084E+02  0.35412795891E+03  0.00000000000E+00 0.  1.
          4    1    6    6  503    0 -0.12464212624E+03  0.11132685229E+03 -0.81883445083E+02  0.18610273038E+03  0.00000000000E+00 0. -1.
         -4    1    6    6    0  503 -0.27106145032E+03  0.97185148831E+02 -0.84519102361E+02  0.30010455122E+03  0.00000000000E+00 0.  1.
<mgrwt>
<rscale>  0 0.17101758E+04</rscale>
<asrwt>0</asrwt>
<pdfrwt beam="1">  1        1 0.13167260E+00 0.17101758E+04</pdfrwt>
<pdfrwt beam="2">  1       -2 0.13143147E+00 0.17101758E+04</pdfrwt>
<totfact> 0.69663440E+00</totfact>
</mgrwt>
</event>
<event>
12    5  0.5029243E-008  0.1589311E+04  0.7818608E-02  0.8827142E-01
          1   -1    0    0  501    0  0.00000000000E+00  0.00000000000E+00  0.27823682660E+04  0.27823682660E+04  0.00000000000E+00 0. -1.
         -2   -1    0    0    0  501 -0.00000000000E+00 -0.00000000000E+00 -0.22695670205E+03  0.22695670205E+03  0.00000000000E+00 0.  1.
        -24    2    1    2    0    0  0.22886496184E+02 -0.41474081540E+03  0.22596680519E+03  0.47948808497E+03  0.79461254154E+02 0.  0.
        254    2    1    2    0    0 -0.22886496184E+02  0.41474081540E+03  0.23294447588E+04  0.25298368831E+04  0.89511342033E+03 0.  0.
         23    2    4    4    0    0  0.16376907871E+02 -0.75226914598E+02  0.17910470390E+04  0.17950491918E+04  0.91786782020E+02 0.  0.
         23    2    4    4    0    0 -0.39263404055E+02  0.48996773000E+03  0.53839771980E+03  0.73478769131E+03  0.91819688912E+02 0.  0.
          3    1    3    3  502    0 -0.18822007945E+02 -0.90570202387E+02  0.76730221697E+02  0.12018634059E+03  0.00000000000E+00 0. -1.
         -4    1    3    3    0  502  0.41708504129E+02 -0.32417061302E+03  0.14923658350E+03  0.35930174438E+03  0.00000000000E+00 0.  1.
         13    1    5    5    0    0 -0.36659816623E+01 -0.84442564381E+02  0.96120980468E+03  0.96491879177E+03  0.00000000000E+00 0. -1.
        -13    1    5    5    0    0  0.20042889533E+02  0.92156497836E+01  0.82983723429E+03  0.83013040002E+03  0.00000000000E+00 0.  1.
          3    1    6    6  503    0 -0.78780798593E+01  0.44448205955E+03  0.48561276590E+03  0.65836625355E+03  0.00000000000E+00 0. -1.
         -3    1    6    6    0  503 -0.31385324196E+02  0.45485670448E+02  0.52784953902E+02  0.76421437761E+02  0.00000000000E+00 0.  1.
<mgrwt>
<rscale>  0 0.15893107E+04</rscale>
<asrwt>0</asrwt>
<pdfrwt beam="1">  1        1 0.42805663E+00 0.15893107E+04</pdfrwt>
<pdfrwt beam="2">  1       -2 0.34916417E-01 0.15893107E+04</pdfrwt>
<totfact> 0.55881545E+00</totfact>
</mgrwt>
</event>
<event>
12    5  0.5029243E-008  0.1382893E+04  0.7818608E-02  0.8966296E-01
         -2   -1    0    0    0  501 -0.00000000000E+00  0.00000000000E+00  0.17428782384E+04  0.17428782384E+04  0.00000000000E+00 0.  1.
          1   -1    0    0  501    0  0.00000000000E+00 -0.00000000000E+00 -0.27431521982E+03  0.27431521982E+03  0.00000000000E+00 0. -1.
        -24    2    1    2    0    0  0.10699534586E+01 -0.30875411033E+03  0.79840060555E+03  0.85976734012E+03  0.80163001122E+02 0.  0.
        254    2    1    2    0    0 -0.10699534586E+01  0.30875411033E+03  0.67016241303E+03  0.11574261181E+04  0.89173275905E+03 0.  0.
         23    2    4    4    0    0 -0.23318061236E+03  0.40346336886E+03  0.44276785822E+02  0.47688138079E+03  0.91101754049E+02 0.  0.
         23    2    4    4    0    0  0.23211065890E+03 -0.94709258530E+02  0.62588562721E+03  0.68054473730E+03  0.92537124978E+02 0.  0.
          3    1    3    3  502    0 -0.23641026804E+02 -0.21304180207E+03  0.61713244814E+03  0.65329791529E+03  0.00000000000E+00 0. -1.
         -2    1    3    3    0  502  0.24710980263E+02 -0.95712308260E+02  0.18126815741E+03  0.20646942482E+03  0.00000000000E+00 0.  1.
         13    1    5    5    0    0 -0.22128410965E+03  0.33390192561E+03  0.58705838724E+02  0.40485000754E+03  0.00000000000E+00 0. -1.
        -13    1    5    5    0    0 -0.11896502706E+02  0.69561443253E+02 -0.14429052902E+02  0.72031373246E+02  0.00000000000E+00 0.  1.
          3    1    6    6  503    0  0.10817152102E+03 -0.66710927892E+02  0.41809819950E+03  0.43698687656E+03  0.00000000000E+00 0. -1.
         -3    1    6    6    0  503  0.12393913787E+03 -0.27998330637E+02  0.20778742770E+03  0.24355786074E+03  0.00000000000E+00 0.  1.
<mgrwt>
<rscale>  0 0.13828927E+04</rscale>
<asrwt>0</asrwt>
<pdfrwt beam="1">  1        1 0.42202343E-01 0.13828927E+04</pdfrwt>
<pdfrwt beam="2">  1       -2 0.26813511E+00 0.13828927E+04</pdfrwt>
<totfact> 0.41885323E+00</totfact>
</mgrwt>
</event>
<event>
12    5  0.5029243E-008  0.2015182E+04  0.7818608E-02  0.8599555E-01
         -2   -1    0    0    0  501 -0.00000000000E+00  0.00000000000E+00  0.55887748929E+03  0.55887748929E+03  0.00000000000E+00 0.  1.
          1   -1    0    0  501    0  0.00000000000E+00 -0.00000000000E+00 -0.18165699869E+04  0.18165699869E+04  0.00000000000E+00 0. -1.
        -24    2    1    2    0    0  0.38109149201E+03 -0.37454015292E+03  0.19781675281E+03  0.57751984804E+03  0.94269060419E+02 0.  0.
        254    2    1    2    0    0 -0.38109149201E+03  0.37454015292E+03 -0.14555092504E+04  0.17979276281E+04  0.91023377579E+03 0.  0.
         23    2    4    4    0    0  0.22465262086E+03  0.36827378279E+03 -0.65413787050E+03  0.78939138413E+03  0.95645306100E+02 0.  0.
         23    2    4    4    0    0 -0.60574411287E+03  0.62663701267E+01 -0.80137137989E+03  0.10085362440E+04  0.89353619204E+02 0.  0.
          3    1    3    3  502    0  0.96349197295E+02 -0.98183177669E+02  0.96359355922E+02  0.16795305794E+03  0.00000000000E+00 0. -1.
         -2    1    3    3    0  502  0.28474229472E+03 -0.27635697525E+03  0.10145739689E+03  0.40956679010E+03  0.00000000000E+00 0.  1.
         13    1    5    5    0    0  0.47708041659E+02  0.22535768097E+02 -0.93617163239E+02  0.10746204602E+03  0.00000000000E+00 0.  1.
        -13    1    5    5    0    0  0.17694457920E+03  0.34573801469E+03 -0.56052070726E+03  0.68192933811E+03  0.00000000000E+00 0. -1.
          1    1    6    6  503    0 -0.38709460919E+03 -0.79406866101E+01 -0.44161182187E+03  0.58730425861E+03  0.00000000000E+00 0. -1.
         -1    1    6    6    0  503 -0.21864950369E+03  0.14207056737E+02 -0.35975955802E+03  0.42123198538E+03  0.00000000000E+00 0.  1.
<mgrwt>
<rscale>  0 0.20151824E+04</rscale>
<asrwt>0</asrwt>
<pdfrwt beam="1">  1        1 0.27947230E+00 0.20151824E+04</pdfrwt>
<pdfrwt beam="2">  1       -2 0.85981154E-01 0.20151824E+04</pdfrwt>
<totfact> 0.37902962E+00</totfact>
</mgrwt>
</event>
<event>
12    5  0.5029243E-008  0.1670970E+04  0.7818608E-02  0.8778097E-01
         -2   -1    0    0    0  501 -0.00000000000E+00  0.00000000000E+00  0.44496137219E+03  0.44496137219E+03  0.00000000000E+00 0.  1.
          1   -1    0    0  501    0  0.00000000000E+00 -0.00000000000E+00 -0.15687537639E+04  0.15687537639E+04  0.00000000000E+00 0. -1.
        -24    2    1    2    0    0  0.23118883997E+03 -0.21287434369E+03 -0.10424515673E+04  0.10917281223E+04  0.80007855439E+02 0.  0.
        254    2    1    2    0    0 -0.23118883997E+03  0.21287434369E+03 -0.81340824356E+02  0.92198701373E+03  0.86294840973E+03 0.  0.
         23    2    4    4    0    0 -0.16937468486E+03  0.42279362991E+03  0.23979159519E+03  0.52278015018E+03  0.91415747744E+02 0.  0.
         23    2    4    4    0    0 -0.61814155104E+02 -0.20991928622E+03 -0.32113241954E+03  0.39920686355E+03  0.91394707327E+02 0.  0.
          3    1    3    3  502    0  0.17136548179E+03 -0.19184451551E+03 -0.89467110133E+03  0.93091719612E+03  0.00000000000E+00 0. -1.
         -4    1    3    3    0  502  0.59823358180E+02 -0.21029828176E+02 -0.14778046602E+03  0.16081092623E+03  0.00000000000E+00 0.  1.
         13    1    5    5    0    0 -0.14218402669E+03  0.33541910136E+03  0.22979150304E+03  0.43072776306E+03  0.00000000000E+00 0. -1.
        -13    1    5    5    0    0 -0.27190658175E+02  0.87374528551E+02  0.10000092147E+02  0.92052387120E+02  0.00000000000E+00 0.  1.
          1    1    6    6  503    0 -0.65938632853E+01 -0.57672096779E+02 -0.16229540993E+03  0.17236400397E+03  0.00000000000E+00 0. -1.
         -1    1    6    6    0  503 -0.55220291819E+02 -0.15224718944E+03 -0.15883700962E+03  0.22684285959E+03  0.00000000000E+00 0.  1.
<mgrwt>
<rscale>  0 0.16709696E+04</rscale>
<asrwt>0</asrwt>
<pdfrwt beam="1">  1        1 0.24134673E+00 0.16709696E+04</pdfrwt>
<pdfrwt beam="2">  1       -2 0.68455596E-01 0.16709696E+04</pdfrwt>
<totfact> 0.95795100E+00</totfact>
</mgrwt>
</event>
<event>
12    5  0.5029243E-008  0.1142812E+04  0.7818608E-02  0.9164441E-01
          1   -1    0    0  501    0  0.00000000000E+00  0.00000000000E+00  0.56706833281E+03  0.56706833281E+03  0.00000000000E+00 0. -1.
         -2   -1    0    0    0  501 -0.00000000000E+00 -0.00000000000E+00 -0.57577649127E+03  0.57577649127E+03  0.00000000000E+00 0.  1.
        -24    2    1    2    0    0  0.24331839012E+02 -0.12909497335E+02  0.20469823319E+03  0.22177829768E+03  0.80780895875E+02 0.  0.
        254    2    1    2    0    0 -0.24331839012E+02  0.12909497335E+02 -0.21340639165E+03  0.92106652639E+03  0.89557945741E+03 0.  0.
         23    2    4    4    0    0  0.17318107087E+02 -0.25730850471E+03 -0.46450522339E+03  0.53881390476E+03  0.89709185555E+02 0.  0.
         23    2    4    4    0    0 -0.41649946099E+02  0.27021800204E+03  0.25109883174E+03  0.38225262164E+03  0.91180901552E+02 0.  0.
          1    1    3    3  502    0 -0.43045012087E+01  0.39042201355E+01  0.18073252811E+03  0.18082593393E+03  0.00000000000E+00 0. -1.
         -2    1    3    3    0  502  0.28636340221E+02 -0.16813717471E+02  0.23965705084E+02  0.40952363748E+02  0.00000000000E+00 0.  1.
         13    1    5    5    0    0  0.51995346475E+00 -0.16888304477E+03 -0.21389288841E+03  0.27252875238E+03  0.00000000000E+00 0.  1.
        -13    1    5    5    0    0  0.16798153622E+02 -0.88425459939E+02 -0.25061233498E+03  0.26628515238E+03  0.00000000000E+00 0. -1.
          4    1    6    6  503    0  0.13147865944E+02  0.10943790233E+03  0.56214475218E+02  0.12373192017E+03  0.00000000000E+00 0.  1.
         -4    1    6    6    0  503 -0.54797812044E+02  0.16078009971E+03  0.19488435652E+03  0.25852070146E+03  0.00000000000E+00 0. -1.
<mgrwt>
<rscale>  0 0.11428116E+04</rscale>
<asrwt>0</asrwt>
<pdfrwt beam="1">  1        1 0.87241282E-01 0.11428116E+04</pdfrwt>
<pdfrwt beam="2">  1       -2 0.88580999E-01 0.11428116E+04</pdfrwt>
<totfact> 0.35412376E+01</totfact>
</mgrwt>
</event>
<event>
12    5  0.5029243E-008  0.1512701E+04  0.7818608E-02  0.8876050E-01
          1   -1    0    0  501    0  0.00000000000E+00  0.00000000000E+00  0.15089566190E+04  0.15089566190E+04  0.00000000000E+00 0. -1.
         -2   -1    0    0    0  501 -0.00000000000E+00 -0.00000000000E+00 -0.37911376195E+03  0.37911376195E+03  0.00000000000E+00 0.  1.
        -24    2    1    2    0    0 -0.15525918694E+03 -0.90975101873E+02 -0.19342092061E+03  0.27557951020E+03  0.78425312381E+02 0.  0.
        254    2    1    2    0    0  0.15525918694E+03  0.90975101873E+02  0.13232637776E+04  0.16124908707E+04  0.90372445950E+03 0.  0.
         23    2    4    4    0    0  0.46594728339E+03  0.25486254874E+03  0.62497374948E+03  0.82562095218E+03  0.94847137552E+02 0.  0.
         23    2    4    4    0    0 -0.31068809645E+03 -0.16388744687E+03  0.69829002814E+03  0.78686991853E+03  0.90383166435E+02 0.  0.
          1    1    3    3  502    0 -0.30373826766E+02 -0.42857163495E+02 -0.98070091738E+02  0.11125218519E+03  0.00000000000E+00 0. -1.
         -2    1    3    3    0  502 -0.12488536017E+03 -0.48117938378E+02 -0.95350828872E+02  0.16432732501E+03  0.00000000000E+00 0.  1.
         13    1    5    5    0    0  0.42156900315E+02  0.42141136004E+02  0.36573712189E+02  0.69933654353E+02  0.00000000000E+00 0.  1.
        -13    1    5    5    0    0  0.42379038307E+03  0.21272141274E+03  0.58840003729E+03  0.75568729783E+03  0.00000000000E+00 0. -1.
          3    1    6    6  503    0 -0.26316971824E+03 -0.14849295047E+03  0.51705486120E+03  0.59887743857E+03  0.00000000000E+00 0. -1.
         -3    1    6    6    0  503 -0.47518378214E+02 -0.15394496401E+02  0.18123516694E+03  0.18799247996E+03  0.00000000000E+00 0.  1.
<mgrwt>
<rscale>  0 0.15127012E+04</rscale>
<asrwt>0</asrwt>
<pdfrwt beam="1">  1        1 0.23214717E+00 0.15127012E+04</pdfrwt>
<pdfrwt beam="2">  1       -2 0.58325195E-01 0.15127012E+04</pdfrwt>
<totfact> 0.15034458E+01</totfact>
</mgrwt>
</event>
<event>
12    5  0.5029243E-008  0.3230156E+04  0.7818608E-02  0.8180898E-01
          1   -1    0    0  501    0  0.00000000000E+00  0.00000000000E+00  0.20269907520E+04  0.20269907520E+04  0.00000000000E+00 0. -1.
         -2   -1    0    0    0  501 -0.00000000000E+00 -0.00000000000E+00 -0.12868714261E+04  0.12868714261E+04  0.00000000000E+00 0.  1.
        -24    2    1    2    0    0 -0.44076250956E+02 -0.59722714445E+03 -0.10557939008E+04  0.12165509041E+04  0.81684535946E+02 0.  0.
        254    2    1    2    0    0  0.44076250956E+02  0.59722714445E+03  0.17959132267E+04  0.20973112739E+04  0.90265568386E+03 0.  0.
         23    2    4    4    0    0 -0.35673645240E+03  0.21336636294E+03  0.36686106517E+03  0.56161333088E+03  0.89645920033E+02 0.  0.
         23    2    4    4    0    0  0.40081270336E+03  0.38386078151E+03  0.14290521616E+04  0.15356979430E+04  0.90433229009E+02 0.  0.
          3    1    3    3  502    0 -0.36121113272E+02 -0.15254388308E+03 -0.32970069247E+03  0.36507111321E+03  0.00000000000E+00 0. -1.
         -4    1    3    3    0  502 -0.79551376843E+01 -0.44468326136E+03 -0.72609320835E+03  0.85147979093E+03  0.00000000000E+00 0.  1.
         13    1    5    5    0    0 -0.20672960842E+03  0.10466895960E+03  0.25785497308E+03  0.34667262546E+03  0.00000000000E+00 0. -1.
        -13    1    5    5    0    0 -0.15000684398E+03  0.10869740334E+03  0.10900609210E+03  0.21494070543E+03  0.00000000000E+00 0.  1.
          1    1    6    6  503    0  0.30493623273E+03  0.23715289303E+03  0.94587571561E+03  0.10217183908E+04  0.00000000000E+00 0. -1.
         -1    1    6    6    0  503  0.95876470630E+02  0.14670788848E+03  0.48317644595E+03  0.51397955220E+03  0.00000000000E+00 0.  1.
<mgrwt>
<rscale>  0 0.32301557E+04</rscale>
<asrwt>0</asrwt>
<pdfrwt beam="1">  1        1 0.31184473E+00 0.32301557E+04</pdfrwt>
<pdfrwt beam="2">  1       -2 0.19798022E+00 0.32301557E+04</pdfrwt>
<totfact> 0.28747733E-01</totfact>
</mgrwt>
</event>
<event>
12    5  0.5029243E-008  0.2409534E+04  0.7818608E-02  0.8435943E-01
         -2   -1    0    0    0  501 -0.00000000000E+00  0.00000000000E+00  0.17219025977E+04  0.17219025977E+04  0.00000000000E+00 0.  1.
          1   -1    0    0  501    0  0.00000000000E+00 -0.00000000000E+00 -0.84294151530E+03  0.84294151530E+03  0.00000000000E+00 0. -1.
        -24    2    1    2    0    0  0.26364593905E+03  0.49231664557E+03 -0.54152899682E+03  0.78259760361E+03  0.85559885973E+02 0.  0.
        254    2    1    2    0    0 -0.26364593905E+03 -0.49231664557E+03  0.14204900792E+04  0.17822465094E+04  0.92017699079E+03 0.  0.
         23    2    4    4    0    0 -0.56512937677E+03 -0.11283266847E+03  0.78463204742E+03  0.97777366816E+03  0.91057524388E+02 0.  0.
         23    2    4    4    0    0  0.30148343772E+03 -0.37948397711E+03  0.63585803182E+03  0.80447284125E+03  0.89223111167E+02 0.  0.
          1    1    3    3  502    0  0.17830238531E+03  0.39949506029E+03 -0.39656324880E+03  0.59046630226E+03  0.00000000000E+00 0. -1.
         -2    1    3    3    0  502  0.85343553734E+02  0.92821585287E+02 -0.14496574802E+03  0.19213130135E+03  0.00000000000E+00 0.  1.
         13    1    5    5    0    0 -0.41320626748E+03 -0.12014469324E+03  0.55373377540E+03  0.70128115675E+03  0.00000000000E+00 0. -1.
        -13    1    5    5    0    0 -0.15192310929E+03  0.73120247730E+01  0.23089827202E+03  0.27649251140E+03  0.00000000000E+00 0.  1.
          4    1    6    6  503    0 -0.64001089613E+01 -0.75124320573E+01  0.10811937274E+02  0.14638853020E+02  0.00000000000E+00 0. -1.
         -4    1    6    6    0  503  0.30788354668E+03 -0.37197154505E+03  0.62504609455E+03  0.78983398823E+03  0.00000000000E+00 0.  1.
<mgrwt>
<rscale>  0 0.24095337E+04</rscale>
<asrwt>0</asrwt>
<pdfrwt beam="1">  1        1 0.12968331E+00 0.24095337E+04</pdfrwt>
<pdfrwt beam="2">  1       -2 0.26490809E+00 0.24095337E+04</pdfrwt>
<totfact> 0.82991745E-01</totfact>
</mgrwt>
</event>
<event>
12    5  0.5029243E-008  0.2228088E+04  0.7818608E-02  0.8506827E-01
          1   -1    0    0  501    0  0.00000000000E+00  0.00000000000E+00  0.23834938395E+04  0.23834938395E+04  0.00000000000E+00 0. -1.
         -2   -1    0    0    0  501 -0.00000000000E+00 -0.00000000000E+00 -0.52070386655E+03  0.52070386655E+03  0.00000000000E+00 0.  1.
        -24    2    1    2    0    0 -0.75641641693E+03 -0.49177815305E+03  0.10866751896E+04  0.14146754357E+04  0.80200207482E+02 0.  0.
        254    2    1    2    0    0  0.75641641693E+03  0.49177815305E+03  0.77611478338E+03  0.14895222703E+04  0.89571808574E+03 0.  0.
         23    2    4    4    0    0  0.43126103294E+03  0.13453939236E+03 -0.11097497380E+03  0.47515725844E+03  0.96809342556E+02 0.  0.
         23    2    4    4    0    0  0.32515538399E+03  0.35723876068E+03  0.88708975718E+03  0.10143650119E+04  0.93073004330E+02 0.  0.
          3    1    3    3  502    0 -0.22453206056E+03 -0.18452264645E+03  0.31988273850E+03  0.43219002726E+03  0.00000000000E+00 0. -1.
         -4    1    3    3    0  502 -0.53188435637E+03 -0.30725550660E+03  0.76679245106E+03  0.98248540848E+03  0.00000000000E+00 0.  1.
         13    1    5    5    0    0  0.43564171885E+03  0.13196587493E+03 -0.11399353694E+03  0.46924751018E+03  0.00000000000E+00 0. -1.
        -13    1    5    5    0    0 -0.43806859080E+01  0.25735174318E+01  0.30185631430E+01  0.59097482556E+01  0.00000000000E+00 0.  1.
          1    1    6    6  503    0  0.30354192037E+03  0.33393750210E+03  0.86505870388E+03  0.97569386280E+03  0.00000000000E+00 0. -1.
         -1    1    6    6    0  503  0.21613463617E+02  0.23301258583E+02  0.22031053293E+02  0.38671149069E+02  0.00000000000E+00 0.  1.
<mgrwt>
<rscale>  0 0.22280884E+04</rscale>
<asrwt>0</asrwt>
<pdfrwt beam="1">  1        1 0.36669135E+00 0.22280884E+04</pdfrwt>
<pdfrwt beam="2">  1       -2 0.80108289E-01 0.22280884E+04</pdfrwt>
<totfact> 0.17960745E+00</totfact>
</mgrwt>
</event>
<event>
12    5  0.5029243E-008  0.1057390E+04  0.7818608E-02  0.9247748E-01
         -4   -1    0    0    0  501 -0.00000000000E+00  0.00000000000E+00  0.35750062493E+03  0.35750062493E+03  0.00000000000E+00 0.  1.
          1   -1    0    0  501    0  0.00000000000E+00 -0.00000000000E+00 -0.78186782054E+03  0.78186782054E+03  0.00000000000E+00 0. -1.
        -24    2    1    2    0    0 -0.54965130190E+02  0.43277721206E+02  0.73289779927E+02  0.12983048184E+03  0.81181497174E+02 0.  0.
        254    2    1    2    0    0  0.54965130190E+02 -0.43277721206E+02 -0.49765697554E+03  0.10095379636E+04  0.87556285212E+03 0.  0.
         23    2    4    4    0    0 -0.26481755794E+03  0.15605599731E+03  0.66057065474E+02  0.32519051086E+03  0.83087418815E+02 0.  0.
         23    2    4    4    0    0  0.31978268813E+03 -0.19933371852E+03 -0.56371404101E+03  0.68434745276E+03  0.92536571708E+02 0.  0.
          1    1    3    3  502    0 -0.20778967692E+02 -0.17738130568E+02 -0.15913762036E+01  0.27366754514E+02  0.00000000000E+00 0. -1.
         -2    1    3    3    0  502 -0.34186162497E+02  0.61015851774E+02  0.74881156130E+02  0.10246372733E+03  0.00000000000E+00 0.  1.
         13    1    5    5    0    0 -0.26365491386E+02  0.36688432705E+02 -0.13079856269E+02  0.47034698579E+02  0.00000000000E+00 0. -1.
        -13    1    5    5    0    0 -0.23845206655E+03  0.11936756461E+03  0.79136921744E+02  0.27815581228E+03  0.00000000000E+00 0.  1.
          3    1    6    6  503    0  0.15180584601E+03 -0.14103974583E+03 -0.34540324500E+03  0.40279104563E+03  0.00000000000E+00 0. -1.
         -3    1    6    6    0  503  0.16797684212E+03 -0.58293972695E+02 -0.21831079601E+03  0.28155640713E+03  0.00000000000E+00 0.  1.
<mgrwt>
<rscale>  0 0.10573897E+04</rscale>
<asrwt>0</asrwt>
<pdfrwt beam="1">  1        1 0.12028735E+00 0.10573897E+04</pdfrwt>
<pdfrwt beam="2">  1       -4 0.55000097E-01 0.10573897E+04</pdfrwt>
<totfact> 0.35116723E+01</totfact>
</mgrwt>
</event>
<event>
12    5  0.5029243E-008  0.1824400E+04  0.7818608E-02  0.8693430E-01
          1   -1    0    0  501    0  0.00000000000E+00  0.00000000000E+00  0.14275637532E+04  0.14275637532E+04  0.00000000000E+00 0. -1.
         -2   -1    0    0    0  501 -0.00000000000E+00 -0.00000000000E+00 -0.58288751561E+03  0.58288751561E+03  0.00000000000E+00 0.  1.
        -24    2    1    2    0    0 -0.41060228881E+03  0.47614246860E+03  0.58179893317E+03  0.86022843599E+03  0.78721493012E+02 0.  0.
        254    2    1    2    0    0  0.41060228881E+03 -0.47614246860E+03  0.26287730443E+03  0.11502228328E+04  0.92660789874E+03 0.  0.
         23    2    4    4    0    0  0.77849253582E+01 -0.62023824936E+03 -0.22900042839E+02  0.62745039271E+03  0.91725090999E+02 0.  0.
         23    2    4    4    0    0  0.40281736346E+03  0.14409578076E+03  0.28577734727E+03  0.52277244012E+03  0.92719521170E+02 0.  0.
          1    1    3    3  502    0 -0.77557929686E+02  0.50453813393E+02  0.71906836940E+02  0.11718111171E+03  0.00000000000E+00 0. -1.
         -2    1    3    3    0  502 -0.33304435913E+03  0.42568865521E+03  0.50989209623E+03  0.74304732428E+03  0.00000000000E+00 0.  1.
         13    1    5    5    0    0  0.29708691383E+02 -0.57857758018E+03 -0.13814571065E+02  0.57950449955E+03  0.00000000000E+00 0.  1.
        -13    1    5    5    0    0 -0.21923766025E+02 -0.41660669187E+02 -0.90854717742E+01  0.47945893163E+02  0.00000000000E+00 0. -1.
          4    1    6    6  503    0  0.18217819469E+03  0.26027803812E+02  0.88952202739E+02  0.20439871713E+03  0.00000000000E+00 0. -1.
         -4    1    6    6    0  503  0.22063916877E+03  0.11806797695E+03  0.19682514453E+03  0.31837372299E+03  0.00000000000E+00 0.  1.
<mgrwt>
<rscale>  0 0.18244003E+04</rscale>
<asrwt>0</asrwt>
<pdfrwt beam="1">  1        1 0.21962519E+00 0.18244003E+04</pdfrwt>
<pdfrwt beam="2">  1       -2 0.89675003E-01 0.18244003E+04</pdfrwt>
<totfact> 0.64705822E+00</totfact>
</mgrwt>
</event>
<event>
12    5  0.5029243E-008  0.2200805E+04  0.7818608E-02  0.8518093E-01
          1   -1    0    0  501    0  0.00000000000E+00  0.00000000000E+00  0.12053734746E+04  0.12053734746E+04  0.00000000000E+00 0. -1.
         -2   -1    0    0    0  501 -0.00000000000E+00 -0.00000000000E+00 -0.10045733039E+04  0.10045733039E+04  0.00000000000E+00 0.  1.
        -24    2    1    2    0    0  0.49260440022E+03  0.74799669654E+03  0.24758312194E+03  0.93272702834E+03  0.80772235172E+02 0.  0.
        254    2    1    2    0    0 -0.49260440022E+03 -0.74799669654E+03 -0.46782951222E+02  0.12772197502E+04  0.90936433434E+03 0.  0.
         23    2    4    4    0    0 -0.70600486609E+03 -0.47848934019E+03 -0.21228085387E+03  0.88481724549E+03  0.10219333340E+03 0.  0.
         23    2    4    4    0    0  0.21340046587E+03 -0.26950735635E+03  0.16549790264E+03  0.39240250469E+03  0.91739827469E+02 0.  0.
          1    1    3    3  502    0  0.23792937057E+03  0.40002713427E+03  0.16403730419E+03  0.49349805541E+03  0.00000000000E+00 0. -1.
         -2    1    3    3    0  502  0.25467502965E+03  0.34796956227E+03  0.83545817753E+02  0.43922897292E+03  0.00000000000E+00 0.  1.
         13    1    5    5    0    0 -0.44950428894E+03 -0.26731417280E+03 -0.89362787048E+02  0.53056260748E+03  0.00000000000E+00 0. -1.
        -13    1    5    5    0    0 -0.25650057715E+03 -0.21117516739E+03 -0.12291806682E+03  0.35425463801E+03  0.00000000000E+00 0.  1.
          2    1    6    6  503    0  0.38559482396E+02 -0.40865205397E+02 -0.73436927160E+01  0.56663290740E+02  0.00000000000E+00 0. -1.
         -2    1    6    6    0  503  0.17484098347E+03 -0.22864215096E+03  0.17284159536E+03  0.33573921395E+03  0.00000000000E+00 0.  1.
<mgrwt>
<rscale>  0 0.22008053E+04</rscale>
<asrwt>0</asrwt>
<pdfrwt beam="1">  1        1 0.18544207E+00 0.22008053E+04</pdfrwt>
<pdfrwt beam="2">  1       -2 0.15454974E+00 0.22008053E+04</pdfrwt>
<totfact> 0.23432414E+00</totfact>
</mgrwt>
</event>
<event>
12    5  0.5029243E-008  0.1337362E+04  0.7818608E-02  0.9000450E-01
          1   -1    0    0  501    0  0.00000000000E+00  0.00000000000E+00  0.72513828983E+03  0.72513828983E+03  0.00000000000E+00 0. -1.
         -2   -1    0    0    0  501 -0.00000000000E+00 -0.00000000000E+00 -0.61661975509E+03  0.61661975509E+03  0.00000000000E+00 0.  1.
        -24    2    1    2    0    0  0.10623700868E+03 -0.30083663266E+03 -0.51214311282E+02  0.33290885213E+03  0.80102537926E+02 0.  0.
        254    2    1    2    0    0 -0.10623700868E+03  0.30083663266E+03  0.15973284602E+03  0.10088491928E+04  0.94364883835E+03 0.  0.
         23    2    4    4    0    0  0.27377099558E+03  0.88663207661E+02 -0.26042068698E+03  0.39754618695E+03  0.86094797404E+02 0.  0.
         23    2    4    4    0    0 -0.38000800426E+03  0.21217342500E+03  0.42015353300E+03  0.61130300583E+03  0.87970040765E+02 0.  0.
          3    1    3    3  502    0  0.14827267474E+02 -0.89232218057E+02 -0.47955893113E+02  0.10238165990E+03  0.00000000000E+00 0. -1.
         -2    1    3    3    0  502  0.91409741206E+02 -0.21160441460E+03 -0.32584181691E+01  0.23052719223E+03  0.00000000000E+00 0.  1.
         13    1    5    5    0    0  0.18224970599E+03  0.72507189378E+02 -0.22397327181E+03  0.29771844808E+03  0.00000000000E+00 0. -1.
        -13    1    5    5    0    0  0.91521289591E+02  0.16156018283E+02 -0.36447415172E+02  0.99827738870E+02  0.00000000000E+00 0.  1.
          3    1    6    6  503    0 -0.35115739558E+03  0.21502372231E+03  0.40862329977E+03  0.58010319663E+03  0.00000000000E+00 0. -1.
         -3    1    6    6    0  503 -0.28850608680E+02 -0.28502973116E+01  0.11530233230E+02  0.31199809203E+02  0.00000000000E+00 0.  1.
<mgrwt>
<rscale>  0 0.13373625E+04</rscale>
<asrwt>0</asrwt>
<pdfrwt beam="1">  1        1 0.11155974E+00 0.13373625E+04</pdfrwt>
<pdfrwt beam="2">  1       -2 0.94864578E-01 0.13373625E+04</pdfrwt>
<totfact> 0.20711213E+01</totfact>
</mgrwt>
</event>
<event>
12    5  0.5029243E-008  0.1480719E+04  0.7818608E-02  0.8897377E-01
          1   -1    0    0  501    0  0.00000000000E+00  0.00000000000E+00  0.10325463020E+04  0.10325463020E+04  0.00000000000E+00 0. -1.
         -2   -1    0    0    0  501 -0.00000000000E+00 -0.00000000000E+00 -0.53085472991E+03  0.53085472991E+03  0.00000000000E+00 0.  1.
        -24    2    1    2    0    0  0.76785770815E+02 -0.37593807044E+03  0.42565237392E+03  0.57835138498E+03  0.78005728491E+02 0.  0.
        254    2    1    2    0    0 -0.76785770815E+02  0.37593807044E+03  0.76039198185E+02  0.98504964696E+03  0.90405495403E+03 0.  0.
         23    2    4    4    0    0 -0.27863267638E+03 -0.14378605070E+03  0.23099506577E+03  0.39899826471E+03  0.86777290265E+02 0.  0.
         23    2    4    4    0    0  0.20184690557E+03  0.51972412113E+03 -0.15495586759E+03  0.58605138225E+03  0.92679913479E+02 0.  0.
          3    1    3    3  502    0 -0.10727672064E+02 -0.12634930028E+03  0.14786772774E+03  0.19479243706E+03  0.00000000000E+00 0. -1.
         -4    1    3    3    0  502  0.87513442878E+02 -0.24958877016E+03  0.27778464618E+03  0.38355894792E+03  0.00000000000E+00 0.  1.
         13    1    5    5    0    0 -0.20009850078E+03 -0.59801934620E+02  0.16702309850E+03  0.26741801890E+03  0.00000000000E+00 0. -1.
        -13    1    5    5    0    0 -0.78534175602E+02 -0.83984116077E+02  0.63971967271E+02  0.13158024581E+03  0.00000000000E+00 0.  1.
          4    1    6    6  503    0  0.55437366418E+02  0.26612403406E+03 -0.61939421373E+02  0.27880422346E+03  0.00000000000E+00 0. -1.
         -4    1    6    6    0  503  0.14640953915E+03  0.25360008707E+03 -0.93016446213E+02  0.30724715879E+03  0.00000000000E+00 0.  1.
<mgrwt>
<rscale>  0 0.14807189E+04</rscale>
<asrwt>0</asrwt>
<pdfrwt beam="1">  1        1 0.15885328E+00 0.14807189E+04</pdfrwt>
<pdfrwt beam="2">  1       -2 0.81669959E-01 0.14807189E+04</pdfrwt>
<totfact> 0.15997761E+01</totfact>
</mgrwt>
</event>
<event>
12    5  0.5029243E-008  0.1601846E+04  0.7818608E-02  0.8819415E-01
          1   -1    0    0  501    0  0.00000000000E+00  0.00000000000E+00  0.15832856122E+04  0.15832856122E+04  0.00000000000E+00 0. -1.
         -2   -1    0    0    0  501 -0.00000000000E+00 -0.00000000000E+00 -0.40515615538E+03  0.40515615538E+03  0.00000000000E+00 0.  1.
        -24    2    1    2    0    0  0.25081808416E+03 -0.35035646675E+03  0.85122672177E+03  0.95719890081E+03  0.77352690428E+02 0.  0.
        254    2    1    2    0    0 -0.25081808416E+03  0.35035646675E+03  0.32690273509E+03  0.10312428668E+04  0.87803023125E+03 0.  0.
         23    2    4    4    0    0 -0.33608072100E+03  0.51046884242E+03 -0.32222967818E+02  0.61859478041E+03  0.89958282458E+02 0.  0.
         23    2    4    4    0    0  0.85262636834E+02 -0.16011237567E+03  0.35912570291E+03  0.41264808640E+03  0.91659601985E+02 0.  0.
          1    1    3    3  502    0  0.12891166823E+03 -0.20176326072E+03  0.55029572806E+03  0.60012666989E+03  0.00000000000E+00 0. -1.
         -2    1    3    3    0  502  0.12190641593E+03 -0.14859320602E+03  0.30093099371E+03  0.35707223092E+03  0.00000000000E+00 0.  1.
         13    1    5    5    0    0 -0.30312570212E+03  0.41832165879E+03 -0.50410326975E+02  0.51905626146E+03  0.00000000000E+00 0.  1.
        -13    1    5    5    0    0 -0.32955018878E+02  0.92147183634E+02  0.18187359156E+02  0.99538518946E+02  0.00000000000E+00 0. -1.
          1    1    6    6  503    0  0.72063711978E+01 -0.16516240391E+02 -0.65963969773E-01  0.18020053655E+02  0.00000000000E+00 0. -1.
         -1    1    6    6    0  503  0.78056265636E+02 -0.14359613528E+03  0.35919166688E+03  0.39462803274E+03  0.00000000000E+00 0.  1.
<mgrwt>
<rscale>  0 0.16018463E+04</rscale>
<asrwt>0</asrwt>
<pdfrwt beam="1">  1        1 0.24358240E+00 0.16018463E+04</pdfrwt>
<pdfrwt beam="2">  1       -2 0.62331717E-01 0.16018463E+04</pdfrwt>
<totfact> 0.11521690E+01</totfact>
</mgrwt>
</event>
<event>
12    5  0.5098149E-008  0.2595130E+04  0.7818608E-02  0.8369857E-01
         -2   -1    0    0    0  501 -0.00000000000E+00  0.00000000000E+00  0.94210161917E+03  0.94210161917E+03  0.00000000000E+00 0.  1.
          1   -1    0    0  501    0  0.00000000000E+00 -0.00000000000E+00 -0.17871477914E+04  0.17871477914E+04  0.00000000000E+00 0. -1.
        -24    2    1    2    0    0 -0.94331432874E+00  0.44500511311E+02 -0.15888354524E+04  0.15915723119E+04  0.81994778664E+02 0.  0.
        254    2    1    2    0    0  0.94331432874E+00 -0.44500511311E+02  0.74378928017E+03  0.11376770987E+04  0.85971245327E+03 0.  0.
         23    2    4    4    0    0 -0.29586125598E+03  0.75305431596E+02 -0.45016882935E+01  0.31868265501E+03  0.91288436230E+02 0.  0.
         23    2    4    4    0    0  0.29680457031E+03 -0.11980594291E+03  0.74829096846E+03  0.81899444371E+03  0.91466433345E+02 0.  0.
          3    1    3    3  502    0 -0.22911431918E+02  0.39565672083E+02 -0.14645743123E+04  0.14652877848E+04  0.00000000000E+00 0. -1.
         -4    1    3    3    0  502  0.21968117590E+02  0.49348392285E+01 -0.12426114012E+03  0.12628452705E+03  0.00000000000E+00 0.  1.
         13    1    5    5    0    0 -0.20617946445E+03  0.39725796905E+02 -0.43822537501E+02  0.21449597966E+03  0.00000000000E+00 0. -1.
        -13    1    5    5    0    0 -0.89681791535E+02  0.35579634691E+02  0.39320849207E+02  0.10418667535E+03  0.00000000000E+00 0.  1.
          1    1    6    6  503    0  0.15522111336E+03 -0.57293383970E+02  0.49749256170E+03  0.52428520370E+03  0.00000000000E+00 0. -1.
         -1    1    6    6    0  503  0.14158345695E+03 -0.62512558936E+02  0.25079840677E+03  0.29470924000E+03  0.00000000000E+00 0.  1.
<mgrwt>
<rscale>  0 0.25951299E+04</rscale>
<asrwt>0</asrwt>
<pdfrwt beam="1">  1        1 0.27494581E+00 0.25951299E+04</pdfrwt>
<pdfrwt beam="2">  1       -2 0.14493871E+00 0.25951299E+04</pdfrwt>
<totfact> 0.10556668E+00</totfact>
</mgrwt>
</event>
<event>
12    5  0.5029243E-008  0.3153129E+04  0.7818608E-02  0.8201307E-01
         -2   -1    0    0    0  501 -0.00000000000E+00  0.00000000000E+00  0.11967177665E+04  0.11967177665E+04  0.00000000000E+00 0.  1.
          1   -1    0    0  501    0  0.00000000000E+00 -0.00000000000E+00 -0.20769767454E+04  0.20769767454E+04  0.00000000000E+00 0. -1.
        -24    2    1    2    0    0  0.29726409185E+03  0.10400293173E+04  0.61475679445E+03  0.12476304295E+04  0.92891609422E+02 0.  0.
        254    2    1    2    0    0 -0.29726409185E+03 -0.10400293173E+04 -0.14950157733E+04  0.20260640824E+04  0.83656236030E+03 0.  0.
         23    2    4    4    0    0  0.72770154301E+02 -0.32403829413E+03 -0.21270092889E+02  0.34388801322E+03  0.86661625679E+02 0.  0.
         23    2    4    4    0    0 -0.37003424615E+03 -0.71599102314E+03 -0.14737456804E+04  0.16821760692E+04  0.90672536069E+02 0.  0.
          3    1    3    3  502    0  0.11897190077E+03  0.56992469311E+03  0.35171420720E+03  0.68019949466E+03  0.00000000000E+00 0. -1.
         -4    1    3    3    0  502  0.17829219109E+03  0.47010462416E+03  0.26304258724E+03  0.56743093480E+03  0.00000000000E+00 0.  1.
         13    1    5    5    0    0  0.72639319738E+02 -0.29711871510E+03  0.55063727204E+01  0.30591881566E+03  0.00000000000E+00 0. -1.
        -13    1    5    5    0    0  0.13083456334E+00 -0.26919579032E+02 -0.26776465609E+02  0.37969197562E+02  0.00000000000E+00 0.  1.
          3    1    6    6  503    0 -0.34686431972E+03 -0.62666457276E+03 -0.12598490474E+04  0.14492215032E+04  0.00000000000E+00 0. -1.
         -3    1    6    6    0  503 -0.23169926437E+02 -0.89326450374E+02 -0.21389663295E+03  0.23295456599E+03  0.00000000000E+00 0.  1.
<mgrwt>
<rscale>  0 0.31531286E+04</rscale>
<asrwt>0</asrwt>
<pdfrwt beam="1">  1        1 0.31953488E+00 0.31531286E+04</pdfrwt>
<pdfrwt beam="2">  1       -2 0.18411043E+00 0.31531286E+04</pdfrwt>
<totfact> 0.33156934E-01</totfact>
</mgrwt>
</event>
<event>
12    5  0.5029243E-008  0.1592129E+04  0.7818608E-02  0.8825398E-01
          1   -1    0    0  501    0  0.00000000000E+00  0.00000000000E+00  0.96032786511E+03  0.96032786511E+03  0.00000000000E+00 0. -1.
         -2   -1    0    0    0  501 -0.00000000000E+00 -0.00000000000E+00 -0.65989844556E+03  0.65989844556E+03  0.00000000000E+00 0.  1.
        -24    2    1    2    0    0  0.55231386108E+03 -0.16114915261E+02  0.23619321596E+03  0.60631098661E+03  0.80718557902E+02 0.  0.
        254    2    1    2    0    0 -0.55231386108E+03  0.16114915261E+02  0.64236203592E+02  0.10139153241E+04  0.84769552487E+03 0.  0.
         23    2    4    4    0    0  0.19293030248E+03 -0.66503718563E+02 -0.94371277310E+02  0.24201379810E+03  0.89553862521E+02 0.  0.
         23    2    4    4    0    0 -0.74524416355E+03  0.82618633825E+02  0.15860748090E+03  0.77190152596E+03  0.91983318160E+02 0.  0.
          1    1    3    3  502    0  0.37502651462E+03 -0.10640318000E+02  0.11851202634E+03  0.39345038241E+03  0.00000000000E+00 0. -1.
         -2    1    3    3    0  502  0.17728734646E+03 -0.54745972609E+01  0.11768118962E+03  0.21286060420E+03  0.00000000000E+00 0.  1.
         13    1    5    5    0    0  0.13619414136E+03 -0.18825267840E+02 -0.96332182633E+02  0.16787830193E+03  0.00000000000E+00 0.  1.
        -13    1    5    5    0    0  0.56736161119E+02 -0.47678450723E+02  0.19609053225E+01  0.74135496164E+02  0.00000000000E+00 0. -1.
          1    1    6    6  503    0 -0.83354505454E+02  0.38102826055E+02  0.11154736004E+02  0.92326740808E+02  0.00000000000E+00 0. -1.
         -1    1    6    6    0  503 -0.66188965810E+03  0.44515807770E+02  0.14745274490E+03  0.67957478515E+03  0.00000000000E+00 0.  1.
<mgrwt>
<rscale>  0 0.15921292E+04</rscale>
<asrwt>0</asrwt>
<pdfrwt beam="1">  1        1 0.14774275E+00 0.15921292E+04</pdfrwt>
<pdfrwt beam="2">  1       -2 0.10152284E+00 0.15921292E+04</pdfrwt>
<totfact> 0.10906083E+01</totfact>
</mgrwt>
</event>
<event>
12    5  0.5029243E-008  0.1584171E+04  0.7818608E-02  0.8830332E-01
         -2   -1    0    0    0  501 -0.00000000000E+00  0.00000000000E+00  0.19997578902E+03  0.19997578902E+03  0.00000000000E+00 0.  1.
          1   -1    0    0  501    0  0.00000000000E+00 -0.00000000000E+00 -0.31373751566E+04  0.31373751566E+04  0.00000000000E+00 0. -1.
        -24    2    1    2    0    0 -0.33246768085E+03 -0.13753753689E+03 -0.17219549085E+03  0.40691160369E+03  0.80463863205E+02 0.  0.
        254    2    1    2    0    0  0.33246768085E+03  0.13753753689E+03 -0.27652038767E+04  0.29304393419E+04  0.90092781289E+03 0.  0.
         23    2    4    4    0    0 -0.17207375020E+02  0.21989497787E+03 -0.23921033576E+04  0.24042656290E+04  0.98411617623E+02 0.  0.
         23    2    4    4    0    0  0.34967505587E+03 -0.82357440974E+02 -0.37310051918E+03  0.52617371295E+03  0.92732874462E+02 0.  0.
          1    1    3    3  502    0 -0.83670047826E+02 -0.29659907800E+02 -0.82759895955E+02  0.12136551163E+03  0.00000000000E+00 0. -1.
         -2    1    3    3    0  502 -0.24879763303E+03 -0.10787762909E+03 -0.89435594899E+02  0.28554609206E+03  0.00000000000E+00 0.  1.
         13    1    5    5    0    0 -0.94758299163E+01 -0.56092728475E+01 -0.26492122764E+03  0.26514998048E+03  0.00000000000E+00 0. -1.
        -13    1    5    5    0    0 -0.77315451036E+01  0.22550425072E+03 -0.21271821299E+04  0.21391156485E+04  0.00000000000E+00 0.  1.
          4    1    6    6  503    0  0.22720155929E+01 -0.12155196946E+02 -0.11817967832E+01  0.12422057450E+02  0.00000000000E+00 0. -1.
         -4    1    6    6    0  503  0.34740304028E+03 -0.70202244029E+02 -0.37191872239E+03  0.51375165550E+03  0.00000000000E+00 0.  1.
<mgrwt>
<rscale>  0 0.15841705E+04</rscale>
<asrwt>0</asrwt>
<pdfrwt beam="1">  1        1 0.48267312E+00 0.15841705E+04</pdfrwt>
<pdfrwt beam="2">  1       -2 0.30765505E-01 0.15841705E+04</pdfrwt>
<totfact> 0.39323737E+00</totfact>
</mgrwt>
</event>
<event>
12    5  0.5029243E-008  0.1859639E+04  0.7818608E-02  0.8675212E-01
         -2   -1    0    0    0  501 -0.00000000000E+00  0.00000000000E+00  0.43099623679E+03  0.43099623679E+03  0.00000000000E+00 0.  1.
          1   -1    0    0  501    0  0.00000000000E+00 -0.00000000000E+00 -0.20059674612E+04  0.20059674612E+04  0.00000000000E+00 0. -1.
        -24    2    1    2    0    0 -0.54414832489E+03 -0.31581508314E+03 -0.10292323110E+04  0.12089896980E+04  0.80624893949E+02 0.  0.
        254    2    1    2    0    0  0.54414832489E+03  0.31581508314E+03 -0.54573891345E+03  0.12279740001E+04  0.90235947215E+03 0.  0.
         23    2    4    4    0    0  0.73774663750E+03  0.69216861642E+02 -0.24965588878E+03  0.78701983773E+03  0.89504676367E+02 0.  0.
         23    2    4    4    0    0 -0.19359831261E+03  0.24659822150E+03 -0.29608302467E+03  0.44095416235E+03  0.92110945621E+02 0.  0.
          3    1    3    3  502    0 -0.30949768361E+03 -0.19868478118E+03 -0.53071153242E+03  0.64569279776E+03  0.00000000000E+00 0. -1.
         -4    1    3    3    0  502 -0.23465064128E+03 -0.11713030196E+03 -0.49852077858E+03  0.56329690019E+03  0.00000000000E+00 0.  1.
         13    1    5    5    0    0  0.73775854529E+03  0.64708887134E+02 -0.24392220700E+03  0.77972620470E+03  0.00000000000E+00 0.  1.
        -13    1    5    5    0    0 -0.11907792769E-01  0.45079745080E+01 -0.57336817797E+01  0.72936330255E+01  0.00000000000E+00 0. -1.
          3    1    6    6  503    0  0.54144172480E+00  0.49015245411E+02 -0.34320389047E+02  0.59838754551E+02  0.00000000000E+00 0. -1.
         -3    1    6    6    0  503 -0.19413975433E+03  0.19758297609E+03 -0.26176263562E+03  0.38111540780E+03  0.00000000000E+00 0.  1.
<mgrwt>
<rscale>  0 0.18596391E+04</rscale>
<asrwt>0</asrwt>
<pdfrwt beam="1">  1        1 0.30861037E+00 0.18596391E+04</pdfrwt>
<pdfrwt beam="2">  1       -2 0.66307115E-01 0.18596391E+04</pdfrwt>
<totfact> 0.50905049E+00</totfact>
</mgrwt>
</event>
<event>
12    5  0.5029243E-008  0.2061138E+04  0.7818608E-02  0.8578558E-01
          1   -1    0    0  501    0  0.00000000000E+00  0.00000000000E+00  0.23843363195E+04  0.23843363195E+04  0.00000000000E+00 0. -1.
         -2   -1    0    0    0  501 -0.00000000000E+00 -0.00000000000E+00 -0.44543755720E+03  0.44543755720E+03  0.00000000000E+00 0.  1.
        -24    2    1    2    0    0  0.78163437575E+03  0.27119850270E+03  0.70714735648E+03  0.10911546251E+04  0.77846688142E+02 0.  0.
        254    2    1    2    0    0 -0.78163437575E+03 -0.27119850270E+03  0.12317514058E+04  0.17386192516E+04  0.90613710392E+03 0.  0.
         23    2    4    4    0    0  0.14276729081E+03  0.12052184164E+03  0.12717636664E+03  0.24283146770E+03  0.88799098171E+02 0.  0.
         23    2    4    4    0    0 -0.92440166656E+03 -0.39172034434E+03  0.11045750392E+04  0.14957877839E+04  0.96601283617E+02 0.  0.
          3    1    3    3  502    0  0.13806380436E+03  0.20150799753E+02  0.13560841529E+03  0.19456955338E+03  0.00000000000E+00 0. -1.
         -4    1    3    3    0  502  0.64357057139E+03  0.25104770295E+03  0.57153894119E+03  0.89658507171E+03  0.00000000000E+00 0.  1.
         13    1    5    5    0    0  0.55241619484E+02  0.22743945077E+01  0.58441757425E+02  0.80450285298E+02  0.00000000000E+00 0.  1.
        -13    1    5    5    0    0  0.87525671328E+02  0.11824744713E+03  0.68734609213E+02  0.16238118240E+03  0.00000000000E+00 0. -1.
          3    1    6    6  503    0 -0.54874007915E+03 -0.28363327124E+03  0.67681892835E+03  0.91632274270E+03  0.00000000000E+00 0. -1.
         -3    1    6    6    0  503 -0.37566158741E+03 -0.10808707310E+03  0.42775611080E+03  0.57946504118E+03  0.00000000000E+00 0.  1.
<mgrwt>
<rscale>  0 0.20611385E+04</rscale>
<asrwt>0</asrwt>
<pdfrwt beam="1">  1        1 0.36682097E+00 0.20611385E+04</pdfrwt>
<pdfrwt beam="2">  1       -2 0.68528856E-01 0.20611385E+04</pdfrwt>
<totfact> 0.25712511E+00</totfact>
</mgrwt>
</event>
<event>
12    5  0.5029243E-008  0.2300364E+04  0.7818608E-02  0.8477778E-01
         -2   -1    0    0    0  501 -0.00000000000E+00  0.00000000000E+00  0.35888081001E+03  0.35888081001E+03  0.00000000000E+00 0.  1.
          1   -1    0    0  501    0  0.00000000000E+00 -0.00000000000E+00 -0.36862336990E+04  0.36862336990E+04  0.00000000000E+00 0. -1.
        -24    2    1    2    0    0 -0.12329328088E+03  0.33048948850E+02 -0.30810845218E+04  0.30847128848E+04  0.77963354702E+02 0.  0.
        254    2    1    2    0    0  0.12329328088E+03 -0.33048948850E+02 -0.24626836720E+03  0.96040162427E+03  0.91947251460E+03 0.  0.
         23    2    4    4    0    0 -0.34354988369E+03  0.52461730580E+02 -0.30683810587E+03  0.47319921465E+03  0.94810958071E+02 0.  0.
         23    2    4    4    0    0  0.46684316457E+03 -0.85510679430E+02  0.60569738675E+02  0.48720240963E+03  0.91885135385E+02 0.  0.
          3    1    3    3  502    0 -0.69548213278E+02  0.48643489769E+01 -0.23756523762E+04  0.23766751626E+04  0.00000000000E+00 0. -1.
         -4    1    3    3    0  502 -0.53745067602E+02  0.28184599873E+02 -0.70543214560E+03  0.70803772216E+03  0.00000000000E+00 0.  1.
         13    1    5    5    0    0 -0.31612193226E+03  0.69638803663E+02 -0.29717039018E+03  0.43942334921E+03  0.00000000000E+00 0. -1.
        -13    1    5    5    0    0 -0.27427951429E+02 -0.17177073084E+02 -0.96677156901E+01  0.33775865437E+02  0.00000000000E+00 0.  1.
          1    1    6    6  503    0  0.41819606154E+03 -0.92066116461E+02  0.29750501795E+02  0.42924259813E+03  0.00000000000E+00 0. -1.
         -1    1    6    6    0  503  0.48647103023E+02  0.65554370312E+01  0.30819236880E+02  0.57959811500E+02  0.00000000000E+00 0.  1.
<mgrwt>
<rscale>  0 0.23003639E+04</rscale>
<asrwt>0</asrwt>
<pdfrwt beam="1">  1        1 0.56711289E+00 0.23003639E+04</pdfrwt>
<pdfrwt beam="2">  1       -2 0.55212431E-01 0.23003639E+04</pdfrwt>
<totfact> 0.43510801E-01</totfact>
</mgrwt>
</event>
<event>
12    5  0.5029243E-008  0.3271671E+04  0.7818608E-02  0.8170141E-01
          1   -1    0    0  501    0  0.00000000000E+00  0.00000000000E+00  0.90181264219E+03  0.90181264219E+03  0.00000000000E+00 0. -1.
         -2   -1    0    0    0  501 -0.00000000000E+00 -0.00000000000E+00 -0.29673092232E+04  0.29673092232E+04  0.00000000000E+00 0.  1.
        -24    2    1    2    0    0  0.13300871533E+04  0.67908745332E+03 -0.12346930860E+04  0.19391952949E+04  0.75629164692E+02 0.  0.
        254    2    1    2    0    0 -0.13300871533E+04 -0.67908745332E+03 -0.83080349505E+03  0.19299265705E+04  0.89671094313E+03 0.  0.
         23    2    4    4    0    0 -0.61552431464E+03 -0.10428668100E+03 -0.78476547958E+03  0.10070155138E+04  0.92073304207E+02 0.  0.
         23    2    4    4    0    0 -0.71456283867E+03 -0.57480077233E+03 -0.46038015466E+02  0.92291105671E+03  0.93001835754E+02 0.  0.
          3    1    3    3  502    0  0.85007081707E+03  0.43550849158E+03 -0.83628920254E+03  0.12695147382E+04  0.00000000000E+00 0. -1.
         -4    1    3    3    0  502  0.48001633625E+03  0.24357896174E+03 -0.39840388344E+03  0.66968055669E+03  0.00000000000E+00 0.  1.
         13    1    5    5    0    0 -0.32002573978E+03 -0.79868678343E+02 -0.47422217446E+03  0.57765227487E+03  0.00000000000E+00 0.  1.
        -13    1    5    5    0    0 -0.29549857486E+03 -0.24418002654E+02 -0.31054330512E+03  0.42936323894E+03  0.00000000000E+00 0. -1.
          4    1    6    6  503    0 -0.32791428421E+03 -0.24650706361E+03  0.23688136837E+02  0.41091925974E+03  0.00000000000E+00 0.  1.
         -4    1    6    6    0  503 -0.38664855446E+03 -0.32829370872E+03 -0.69726152304E+02  0.51199179697E+03  0.00000000000E+00 0. -1.
<mgrwt>
<rscale>  0 0.32716705E+04</rscale>
<asrwt>0</asrwt>
<pdfrwt beam="1">  1        1 0.13874040E+00 0.32716705E+04</pdfrwt>
<pdfrwt beam="2">  1       -2 0.45650912E+00 0.32716705E+04</pdfrwt>
<totfact> 0.41537499E-02</totfact>
</mgrwt>
</event>
<event>
12    5  0.5029243E-008  0.1297257E+04  0.7818608E-02  0.9031743E-01
          1   -1    0    0  501    0  0.00000000000E+00  0.00000000000E+00  0.20904667528E+04  0.20904667528E+04  0.00000000000E+00 0. -1.
         -2   -1    0    0    0  501 -0.00000000000E+00 -0.00000000000E+00 -0.20125608988E+03  0.20125608988E+03  0.00000000000E+00 0.  1.
        -24    2    1    2    0    0  0.31550286991E+02  0.28913745724E+03  0.21435263092E+03  0.37089493779E+03  0.83786124796E+02 0.  0.
        254    2    1    2    0    0 -0.31550286991E+02 -0.28913745724E+03  0.16748580321E+04  0.19208279049E+04  0.89433468179E+03 0.  0.
         23    2    4    4    0    0 -0.33262018208E+03 -0.25103434522E+03  0.14979329206E+04  0.15576586188E+04  0.94036748026E+02 0.  0.
         23    2    4    4    0    0  0.30106989508E+03 -0.38103112022E+02  0.17692511146E+03  0.36316928618E+03  0.92165646992E+02 0.  0.
          3    1    3    3  502    0  0.38132485173E+02  0.58254996299E+02  0.68796380341E+02  0.97880912170E+02  0.00000000000E+00 0. -1.
         -4    1    3    3    0  502 -0.65821981817E+01  0.23088246094E+03  0.14555625058E+03  0.27301402562E+03  0.00000000000E+00 0.  1.
         13    1    5    5    0    0 -0.18345965743E+02  0.63484487842E+01  0.45032812661E+02  0.49039081121E+02  0.00000000000E+00 0.  1.
        -13    1    5    5    0    0 -0.31427421633E+03 -0.25738279400E+03  0.14529001079E+04  0.15086195376E+04  0.00000000000E+00 0. -1.
          2    1    6    6  503    0  0.29992285397E+03 -0.47489954793E+02  0.18027085326E+03  0.35313820903E+03  0.00000000000E+00 0. -1.
         -2    1    6    6    0  503  0.11470411187E+01  0.93868427708E+01 -0.33457418083E+01  0.10031077150E+02  0.00000000000E+00 0.  1.
<mgrwt>
<rscale>  0 0.12972574E+04</rscale>
<asrwt>0</asrwt>
<pdfrwt beam="1">  1        1 0.32161026E+00 0.12972574E+04</pdfrwt>
<pdfrwt beam="2">  1       -2 0.30962477E-01 0.12972574E+04</pdfrwt>
<totfact> 0.21608789E+01</totfact>
</mgrwt>
</event>
<event>
12    5  0.5029243E-008  0.1929003E+04  0.7818608E-02  0.8640553E-01
         -2   -1    0    0    0  501 -0.00000000000E+00  0.00000000000E+00  0.53304666279E+03  0.53304666279E+03  0.00000000000E+00 0.  1.
          1   -1    0    0  501    0  0.00000000000E+00 -0.00000000000E+00 -0.17451807876E+04  0.17451807876E+04  0.00000000000E+00 0. -1.
        -24    2    1    2    0    0  0.61165460826E+03 -0.25330932696E+03 -0.89863160576E+03  0.11190002963E+04  0.79598525734E+02 0.  0.
        254    2    1    2    0    0 -0.61165460826E+03  0.25330932696E+03 -0.31350251901E+03  0.11592271541E+04  0.89846357209E+03 0.  0.
         23    2    4    4    0    0 -0.33061508582E+03 -0.44881194706E+02  0.27146812036E+03  0.43973662388E+03  0.91393114605E+02 0.  0.
         23    2    4    4    0    0 -0.28103952244E+03  0.29819052166E+03 -0.58497063937E+03  0.71949053019E+03  0.87035473917E+02 0.  0.
          1    1    3    3  502    0  0.47844317422E+03 -0.17847168020E+03 -0.64190169299E+03  0.82024252210E+03  0.00000000000E+00 0. -1.
         -2    1    3    3    0  502  0.13321143404E+03 -0.74837646754E+02 -0.25672991277E+03  0.29875777419E+03  0.00000000000E+00 0.  1.
         13    1    5    5    0    0 -0.18351186986E+03  0.11984085104E+02  0.11132776852E+03  0.21497464203E+03  0.00000000000E+00 0. -1.
        -13    1    5    5    0    0 -0.14710321597E+03 -0.56865279810E+02  0.16014035184E+03  0.22476198185E+03  0.00000000000E+00 0.  1.
          1    1    6    6  503    0 -0.29037854174E+02  0.85268516817E+00 -0.44382559140E+02  0.53044656685E+02  0.00000000000E+00 0. -1.
         -1    1    6    6    0  503 -0.25200166827E+03  0.29733783649E+03 -0.54058808023E+03  0.66644587350E+03  0.00000000000E+00 0.  1.
<mgrwt>
<rscale>  0 0.19290026E+04</rscale>
<asrwt>0</asrwt>
<pdfrwt beam="1">  1        1 0.26848936E+00 0.19290026E+04</pdfrwt>
<pdfrwt beam="2">  1       -2 0.82007177E-01 0.19290026E+04</pdfrwt>
<totfact> 0.47546993E+00</totfact>
</mgrwt>
</event>
<event>
12    5  0.5029243E-008  0.2299815E+04  0.7818608E-02  0.8477994E-01
          1   -1    0    0  501    0  0.00000000000E+00  0.00000000000E+00  0.15815872808E+04  0.15815872808E+04  0.00000000000E+00 0. -1.
         -2   -1    0    0    0  501 -0.00000000000E+00 -0.00000000000E+00 -0.83605053944E+03  0.83605053944E+03  0.00000000000E+00 0.  1.
        -24    2    1    2    0    0  0.14313524238E+03  0.61464068055E+03  0.10910690180E+04  0.12630183271E+04  0.80702098930E+02 0.  0.
        254    2    1    2    0    0 -0.14313524238E+03 -0.61464068055E+03 -0.34553227659E+03  0.11546194932E+04  0.90304083854E+03 0.  0.
         23    2    4    4    0    0  0.37450133804E+03 -0.21759940229E+03 -0.13576551669E+03  0.46334293782E+03  0.93024999009E+02 0.  0.
         23    2    4    4    0    0 -0.51763658042E+03 -0.39704127826E+03 -0.20976675990E+03  0.69127655536E+03  0.90949306771E+02 0.  0.
          1    1    3    3  502    0  0.76265375537E+02  0.17781966662E+03  0.36252196153E+03  0.41092385418E+03  0.00000000000E+00 0. -1.
         -4    1    3    3    0  502  0.66869866844E+02  0.43682101392E+03  0.72854705643E+03  0.85209447289E+03  0.00000000000E+00 0.  1.
         13    1    5    5    0    0  0.31558044402E+03 -0.21264216627E+03 -0.13630538403E+03  0.40421141157E+03  0.00000000000E+00 0.  1.
        -13    1    5    5    0    0  0.58920894018E+02 -0.49572360128E+01  0.53986733660E+00  0.59131526257E+02  0.00000000000E+00 0. -1.
          1    1    6    6  503    0  0.65855626274E-01 -0.23032883137E+01  0.51925940643E+01  0.56808896430E+01  0.00000000000E+00 0. -1.
         -1    1    6    6    0  503 -0.51770243604E+03 -0.39473798995E+03 -0.21495935396E+03  0.68559566572E+03  0.00000000000E+00 0.  1.
<mgrwt>
<rscale>  0 0.22998147E+04</rscale>
<asrwt>0</asrwt>
<pdfrwt beam="1">  1        1 0.24332112E+00 0.22998147E+04</pdfrwt>
<pdfrwt beam="2">  1       -2 0.12862316E+00 0.22998147E+04</pdfrwt>
<totfact> 0.20345865E+00</totfact>
</mgrwt>
</event>
<event>
12    5  0.5029243E-008  0.1321998E+04  0.7818608E-02  0.9012300E-01
          1   -1    0    0  501    0  0.00000000000E+00  0.00000000000E+00  0.17564496008E+04  0.17564496008E+04  0.00000000000E+00 0. -1.
         -2   -1    0    0    0  501 -0.00000000000E+00 -0.00000000000E+00 -0.24875152375E+03  0.24875152375E+03  0.00000000000E+00 0.  1.
        -24    2    1    2    0    0 -0.24526965762E+03 -0.45839385940E+02  0.25315351574E+02  0.26353226711E+03  0.80931665809E+02 0.  0.
        254    2    1    2    0    0  0.24526965762E+03  0.45839385940E+02  0.14823827255E+04  0.17416688575E+04  0.87959843676E+03 0.  0.
         23    2    4    4    0    0 -0.13978228154E+03  0.27776419653E+03  0.20263464627E+03  0.38219926012E+03  0.91232885832E+02 0.  0.
         23    2    4    4    0    0  0.38505193916E+03 -0.23192481059E+03  0.12797480792E+04  0.13594695974E+04  0.91369175405E+02 0.  0.
          3    1    3    3  502    0 -0.32399904155E+02  0.15179456737E+02 -0.14377974245E+02  0.38560288374E+02  0.00000000000E+00 0. -1.
         -4    1    3    3    0  502 -0.21286975347E+03 -0.61018842677E+02  0.39693325819E+02  0.22497197874E+03  0.00000000000E+00 0.  1.
         13    1    5    5    0    0 -0.97446036466E+02  0.99975751542E+02  0.10722323374E+03  0.17603324338E+03  0.00000000000E+00 0.  1.
        -13    1    5    5    0    0 -0.42336245078E+02  0.17778844499E+03  0.95411412532E+02  0.20616601674E+03  0.00000000000E+00 0. -1.
          1    1    6    6  503    0  0.68710868504E+02 -0.37359058468E+02  0.13539798128E+03  0.15636334620E+03  0.00000000000E+00 0. -1.
         -1    1    6    6    0  503  0.31634107066E+03 -0.19456575212E+03  0.11443500980E+04  0.12031062512E+04  0.00000000000E+00 0.  1.
<mgrwt>
<rscale>  0 0.13219978E+04</rscale>
<asrwt>0</asrwt>
<pdfrwt beam="1">  1        1 0.27022301E+00 0.13219978E+04</pdfrwt>
<pdfrwt beam="2">  1       -2 0.38269466E-01 0.13219978E+04</pdfrwt>
<totfact> 0.24221535E+01</totfact>
</mgrwt>
</event>
<event>
12    5  0.5029243E-008  0.1744195E+04  0.7818608E-02  0.8736552E-01
          1   -1    0    0  501    0  0.00000000000E+00  0.00000000000E+00  0.80537173995E+03  0.80537173995E+03  0.00000000000E+00 0. -1.
         -2   -1    0    0    0  501 -0.00000000000E+00 -0.00000000000E+00 -0.94435188044E+03  0.94435188044E+03  0.00000000000E+00 0.  1.
        -24    2    1    2    0    0  0.27805033715E+03  0.45056908756E+03  0.24623723223E+03  0.58928564709E+03  0.79374471211E+02 0.  0.
        254    2    1    2    0    0 -0.27805033715E+03 -0.45056908756E+03 -0.38521737271E+03  0.11604379733E+04  0.95807065135E+03 0.  0.
         23    2    4    4    0    0 -0.54665327200E+03 -0.37137441889E+03  0.10938921014E+02  0.66700916948E+03  0.89625963812E+02 0.  0.
         23    2    4    4    0    0  0.26860293485E+03 -0.79194668669E+02 -0.39615629373E+03  0.49342880382E+03  0.90071322951E+02 0.  0.
          1    1    3    3  502    0  0.19859664501E+03  0.28305071445E+03  0.19483373094E+03  0.39688602530E+03  0.00000000000E+00 0. -1.
         -2    1    3    3    0  502  0.79453692132E+02  0.16751837311E+03  0.51403501286E+02  0.19239962179E+03  0.00000000000E+00 0.  1.
         13    1    5    5    0    0 -0.11372769915E+03 -0.36158005441E+02  0.49982600036E+01  0.11944192528E+03  0.00000000000E+00 0. -1.
        -13    1    5    5    0    0 -0.43292557285E+03 -0.33521641345E+03  0.59406610102E+01  0.54756724421E+03  0.00000000000E+00 0.  1.
          1    1    6    6  503    0  0.22536976049E+03 -0.96248584994E+02 -0.35487243697E+03  0.43126530764E+03  0.00000000000E+00 0. -1.
         -1    1    6    6    0  503  0.43233174362E+02  0.17053916325E+02 -0.41283856758E+02  0.62163496171E+02  0.00000000000E+00 0.  1.
<mgrwt>
<rscale>  0 0.17441953E+04</rscale>
<asrwt>0</asrwt>
<pdfrwt beam="1">  1        1 0.12390335E+00 0.17441953E+04</pdfrwt>
<pdfrwt beam="2">  1       -2 0.14528490E+00 0.17441953E+04</pdfrwt>
<totfact> 0.59199458E+00</totfact>
</mgrwt>
</event>
<event>
12    5  0.5029243E-008  0.1261045E+04  0.7818608E-02  0.9061040E-01
         -4   -1    0    0    0  501 -0.00000000000E+00  0.00000000000E+00  0.50180545983E+03  0.50180545983E+03  0.00000000000E+00 0.  1.
          3   -1    0    0  501    0  0.00000000000E+00 -0.00000000000E+00 -0.79225665359E+03  0.79225665359E+03  0.00000000000E+00 0. -1.
        -24    2    1    2    0    0 -0.27372647248E+03  0.39939812958E+02 -0.20075539944E+03  0.35135505868E+03  0.81401943846E+02 0.  0.
        254    2    1    2    0    0  0.27372647248E+03 -0.39939812958E+02 -0.89695794312E+02  0.94270705474E+03  0.89673289509E+03 0.  0.
         23    2    4    4    0    0  0.38126233265E+03  0.31333029365E+03 -0.20885638442E+03  0.54369141837E+03  0.91883240451E+02 0.  0.
         23    2    4    4    0    0 -0.10753586017E+03 -0.35327010661E+03  0.11916059011E+03  0.39901563637E+03  0.93008076989E+02 0.  0.
          1    1    3    3  502    0 -0.24433553955E+03  0.17191956403E+02 -0.19635866355E+03  0.31393015784E+03  0.00000000000E+00 0. -1.
         -2    1    3    3    0  502 -0.29390932935E+02  0.22747856555E+02 -0.43967358899E+01  0.37424900843E+02  0.00000000000E+00 0.  1.
         13    1    5    5    0    0  0.20070932188E+03  0.16962255225E+03 -0.16048200772E+03  0.30791316459E+03  0.00000000000E+00 0. -1.
        -13    1    5    5    0    0  0.18055301077E+03  0.14370774140E+03 -0.48374376698E+02  0.23577825378E+03  0.00000000000E+00 0.  1.
          1    1    6    6  503    0 -0.40571892192E+02 -0.21216934496E+03  0.11038822343E+03  0.24258497325E+03  0.00000000000E+00 0. -1.
         -1    1    6    6    0  503 -0.66963967978E+02 -0.14110076165E+03  0.87723666797E+01  0.15643066312E+03  0.00000000000E+00 0.  1.
<mgrwt>
<rscale>  0 0.12610451E+04</rscale>
<asrwt>0</asrwt>
<pdfrwt beam="1">  1        3 0.12188564E+00 0.12610451E+04</pdfrwt>
<pdfrwt beam="2">  1       -4 0.77200840E-01 0.12610451E+04</pdfrwt>
<totfact> 0.18451005E+00</totfact>
</mgrwt>
</event>
<event>
12    5  0.5029243E-008  0.1188865E+04  0.7818608E-02  0.9122659E-01
         -2   -1    0    0    0  501 -0.00000000000E+00  0.00000000000E+00  0.21490571949E+03  0.21490571949E+03  0.00000000000E+00 0.  1.
          1   -1    0    0  501    0  0.00000000000E+00 -0.00000000000E+00 -0.16442086780E+04  0.16442086780E+04  0.00000000000E+00 0. -1.
        -24    2    1    2    0    0 -0.40023278759E+01 -0.54949193129E+02 -0.66205331916E+03  0.66878354462E+03  0.76950631531E+02 0.  0.
        254    2    1    2    0    0  0.40023278759E+01  0.54949193129E+02 -0.76724963935E+03  0.11903308529E+04  0.90839424137E+03 0.  0.
         23    2    4    4    0    0  0.42839479474E+03 -0.90042328804E+02 -0.44466228886E+03  0.63066120918E+03  0.91538453683E+02 0.  0.
         23    2    4    4    0    0 -0.42439246686E+03  0.14499152193E+03 -0.32258735050E+03  0.55966964369E+03  0.89643761696E+02 0.  0.
          3    1    3    3  502    0 -0.16064991433E+02 -0.70223474539E+02 -0.57984314835E+03  0.58430086173E+03  0.00000000000E+00 0. -1.
         -4    1    3    3    0  502  0.12062663557E+02  0.15274281409E+02 -0.82210170806E+02  0.84482682892E+02  0.00000000000E+00 0.  1.
         13    1    5    5    0    0  0.41457302780E+03 -0.10395675182E+03 -0.42886818676E+03  0.60547974635E+03  0.00000000000E+00 0. -1.
        -13    1    5    5    0    0  0.13821766932E+02  0.13914423019E+02 -0.15794102098E+02  0.25181462828E+02  0.00000000000E+00 0.  1.
          2    1    6    6  503    0 -0.27678163666E+03  0.13851943175E+03 -0.22343138884E+03  0.38172934507E+03  0.00000000000E+00 0. -1.
         -2    1    6    6    0  503 -0.14761083020E+03  0.64720901801E+01 -0.99155961654E+02  0.17794029862E+03  0.00000000000E+00 0.  1.
<mgrwt>
<rscale>  0 0.11888648E+04</rscale>
<asrwt>0</asrwt>
<pdfrwt beam="1">  1        1 0.25295518E+00 0.11888648E+04</pdfrwt>
<pdfrwt beam="2">  1       -2 0.33062418E-01 0.11888648E+04</pdfrwt>
<totfact> 0.38637041E+01</totfact>
</mgrwt>
</event>
<event>
12    5  0.5029243E-008  0.4669617E+04  0.7818608E-02  0.7881597E-01
          1   -1    0    0  501    0  0.00000000000E+00  0.00000000000E+00  0.23513328658E+04  0.23513328658E+04  0.00000000000E+00 0. -1.
         -2   -1    0    0    0  501 -0.00000000000E+00 -0.00000000000E+00 -0.23184000926E+04  0.23184000926E+04  0.00000000000E+00 0.  1.
        -24    2    1    2    0    0  0.62277086833E+03 -0.20199519840E+04  0.75462533396E+03  0.22458987889E+04  0.80946916174E+02 0.  0.
        254    2    1    2    0    0 -0.62277086833E+03  0.20199519840E+04 -0.72169256083E+03  0.24238341695E+04  0.94131947629E+03 0.  0.
         23    2    4    4    0    0 -0.74322845647E+03  0.84632727026E+03 -0.37307391353E+03  0.11900953940E+04  0.92111427089E+02 0.  0.
         23    2    4    4    0    0  0.12045758814E+03  0.11736247138E+04 -0.34861864730E+03  0.12337387754E+04  0.93120381622E+02 0.  0.
          3    1    3    3  502    0  0.98265528328E+02 -0.32737454782E+03  0.15394165410E+03  0.37487096644E+03  0.00000000000E+00 0. -1.
         -4    1    3    3    0  502  0.52450534000E+03 -0.16925774362E+04  0.60068367986E+03  0.18710278225E+04  0.00000000000E+00 0.  1.
         13    1    5    5    0    0 -0.39510208177E+03  0.47706944447E+03 -0.24938173841E+03  0.66775157156E+03  0.00000000000E+00 0.  1.
        -13    1    5    5    0    0 -0.34812637471E+03  0.36925782579E+03 -0.12369217511E+03  0.52234382246E+03  0.00000000000E+00 0. -1.
          3    1    6    6  503    0 -0.11508472834E+02  0.95733567096E+02 -0.43268684634E+02  0.10568604395E+03  0.00000000000E+00 0. -1.
         -3    1    6    6    0  503  0.13196606098E+03  0.10778911467E+04 -0.30534996267E+03  0.11280527315E+04  0.00000000000E+00 0.  1.
<mgrwt>
<rscale>  0 0.46696168E+04</rscale>
<asrwt>0</asrwt>
<pdfrwt beam="1">  1        1 0.36174352E+00 0.46696168E+04</pdfrwt>
<pdfrwt beam="2">  1       -2 0.35667694E+00 0.46696168E+04</pdfrwt>
<totfact> 0.15784472E-02</totfact>
</mgrwt>
</event>
<event>
12    5  0.5029243E-008  0.1251242E+04  0.7818608E-02  0.9069150E-01
         -2   -1    0    0    0  501 -0.00000000000E+00  0.00000000000E+00  0.25949665097E+03  0.25949665097E+03  0.00000000000E+00 0.  1.
          1   -1    0    0  501    0  0.00000000000E+00 -0.00000000000E+00 -0.15083100049E+04  0.15083100049E+04  0.00000000000E+00 0. -1.
        -24    2    1    2    0    0  0.20618087026E+03 -0.65739812031E+02 -0.23279734973E+02  0.23174162242E+03  0.79561041683E+02 0.  0.
        254    2    1    2    0    0 -0.20618087026E+03  0.65739812031E+02 -0.12255336189E+04  0.15360650334E+04  0.90040594270E+03 0.  0.
         23    2    4    4    0    0 -0.87617212819E+01 -0.36157006415E+03 -0.84698063511E+03  0.92538266397E+03  0.90261838426E+02 0.  0.
         23    2    4    4    0    0 -0.19741914898E+03  0.42730987618E+03 -0.37855298383E+03  0.61068236947E+03  0.89791670829E+02 0.  0.
          3    1    3    3  502    0  0.15677058417E+03 -0.46459334529E+02 -0.51802784572E+02  0.17151971991E+03  0.00000000000E+00 0. -1.
         -4    1    3    3    0  502  0.49410286088E+02 -0.19280477502E+02  0.28523049599E+02  0.60221902514E+02  0.00000000000E+00 0.  1.
         13    1    5    5    0    0 -0.14394386636E+02 -0.13782642247E+03 -0.22380177679E+03  0.26323099436E+03  0.00000000000E+00 0.  1.
        -13    1    5    5    0    0  0.56326653541E+01 -0.22374364168E+03 -0.62317885832E+03  0.66215166961E+03  0.00000000000E+00 0. -1.
          2    1    6    6  503    0 -0.99711318161E+02  0.13978190557E+03 -0.17455593505E+03  0.24484914245E+03  0.00000000000E+00 0. -1.
         -2    1    6    6    0  503 -0.97707830819E+02  0.28752797060E+03 -0.20399704878E+03  0.36583322702E+03  0.00000000000E+00 0.  1.
<mgrwt>
<rscale>  0 0.12512416E+04</rscale>
<asrwt>0</asrwt>
<pdfrwt beam="1">  1        1 0.23204769E+00 0.12512416E+04</pdfrwt>
<pdfrwt beam="2">  1       -2 0.39922563E-01 0.12512416E+04</pdfrwt>
<totfact> 0.33157172E+01</totfact>
</mgrwt>
</event>
<event>
12    5  0.5029243E-008  0.2138569E+04  0.7818608E-02  0.8544441E-01
         -2   -1    0    0    0  501 -0.00000000000E+00  0.00000000000E+00  0.34947950368E+03  0.34947950368E+03  0.00000000000E+00 0.  1.
          1   -1    0    0  501    0  0.00000000000E+00 -0.00000000000E+00 -0.32716349865E+04  0.32716349865E+04  0.00000000000E+00 0. -1.
        -24    2    1    2    0    0  0.41648087308E+03  0.18336327479E+03 -0.24785761871E+04  0.25213048188E+04  0.80991764647E+02 0.  0.
        254    2    1    2    0    0 -0.41648087308E+03 -0.18336327479E+03 -0.44357929569E+03  0.10998096713E+04  0.89763038797E+03 0.  0.
         23    2    4    4    0    0 -0.20606276242E+03 -0.53061890476E+03 -0.34711332768E+03  0.67291362623E+03  0.91141658769E+02 0.  0.
         23    2    4    4    0    0 -0.21041811066E+03  0.34725562997E+03 -0.96465968012E+02  0.42689604510E+03  0.89845959840E+02 0.  0.
          3    1    3    3  502    0  0.18697571625E+03  0.12123220511E+03 -0.13043034342E+04  0.13232024087E+04  0.00000000000E+00 0. -1.
         -4    1    3    3    0  502  0.22950515683E+03  0.62131069678E+02 -0.11742727529E+04  0.11981024101E+04  0.00000000000E+00 0.  1.
         13    1    5    5    0    0 -0.14203823249E+03 -0.45215216591E+03 -0.26849954526E+03  0.54470950646E+03  0.00000000000E+00 0.  1.
        -13    1    5    5    0    0 -0.64024529927E+02 -0.78466738853E+02 -0.78613782416E+02  0.12820411976E+03  0.00000000000E+00 0. -1.
          3    1    6    6  503    0 -0.22168650052E+02  0.10813927992E+03 -0.39768979960E+02  0.11733339113E+03  0.00000000000E+00 0. -1.
         -3    1    6    6    0  503 -0.18824946061E+03  0.23911635005E+03 -0.56696988052E+02  0.30956265398E+03  0.00000000000E+00 0.  1.
<mgrwt>
<rscale>  0 0.21385690E+04</rscale>
<asrwt>0</asrwt>
<pdfrwt beam="1">  1        1 0.50332845E+00 0.21385690E+04</pdfrwt>
<pdfrwt beam="2">  1       -2 0.53766079E-01 0.21385690E+04</pdfrwt>
<totfact> 0.98736170E-01</totfact>
</mgrwt>
</event>
<event>
12    5  0.5029243E-008  0.1290155E+04  0.7818608E-02  0.9037409E-01
         -2   -1    0    0    0  501 -0.00000000000E+00  0.00000000000E+00  0.14098493827E+03  0.14098493827E+03  0.00000000000E+00 0.  1.
          1   -1    0    0  501    0  0.00000000000E+00 -0.00000000000E+00 -0.29515576407E+04  0.29515576407E+04  0.00000000000E+00 0. -1.
        -24    2    1    2    0    0 -0.65439381813E+02 -0.16604902136E+03 -0.81906440735E+02  0.21246467415E+03  0.81104762752E+02 0.  0.
        254    2    1    2    0    0  0.65439381813E+02  0.16604902136E+03 -0.27286662617E+04  0.28800779048E+04  0.90408770588E+03 0.  0.
         23    2    4    4    0    0  0.16006522098E+03 -0.19587325841E+03 -0.23204059595E+03  0.35403091607E+03  0.86647810309E+02 0.  0.
         23    2    4    4    0    0 -0.94625839167E+02  0.36192227978E+03 -0.24966256658E+04  0.25260469888E+04  0.88497957646E+02 0.  0.
          3    1    3    3  502    0 -0.71919083887E+01  0.11761673614E+00 -0.27121119082E+02  0.28058732691E+02  0.00000000000E+00 0. -1.
         -4    1    3    3    0  502 -0.58247473424E+02 -0.16616663810E+03 -0.54785321652E+02  0.18440594146E+03  0.00000000000E+00 0.  1.
         13    1    5    5    0    0  0.12895698315E+03 -0.10862821653E+03 -0.11204701495E+03  0.20244635459E+03  0.00000000000E+00 0.  1.
        -13    1    5    5    0    0  0.31108237831E+02 -0.87245041879E+02 -0.11999358101E+03  0.15158456147E+03  0.00000000000E+00 0. -1.
          3    1    6    6  503    0  0.10547187348E+02  0.25087694264E+02 -0.10229793432E+03  0.10585604815E+03  0.00000000000E+00 0. -1.
         -3    1    6    6    0  503 -0.10517302652E+03  0.33683458551E+03 -0.23943277315E+04  0.24201909406E+04  0.00000000000E+00 0.  1.
<mgrwt>
<rscale>  0 0.12901553E+04</rscale>
<asrwt>0</asrwt>
<pdfrwt beam="1">  1        1 0.45408580E+00 0.12901553E+04</pdfrwt>
<pdfrwt beam="2">  1       -2 0.21689990E-01 0.12901553E+04</pdfrwt>
<totfact> 0.10465580E+01</totfact>
</mgrwt>
</event>
<event>
12    5  0.5029243E-008  0.2302972E+04  0.7818608E-02  0.8476750E-01
          1   -1    0    0  501    0  0.00000000000E+00  0.00000000000E+00  0.16837983254E+04  0.16837983254E+04  0.00000000000E+00 0. -1.
         -2   -1    0    0    0  501 -0.00000000000E+00 -0.00000000000E+00 -0.78745776185E+03  0.78745776185E+03  0.00000000000E+00 0.  1.
        -24    2    1    2    0    0  0.45366389203E+03 -0.24701338951E+03  0.12660213827E+04  0.13695795592E+04  0.78175994183E+02 0.  0.
        254    2    1    2    0    0 -0.45366389203E+03  0.24701338951E+03 -0.36968081916E+03  0.11016765280E+04  0.90011150577E+03 0.  0.
         23    2    4    4    0    0 -0.55990127517E+03  0.12496987949E+03 -0.58054993640E+03  0.82123682027E+03  0.91020753739E+02 0.  0.
         23    2    4    4    0    0  0.10623738313E+03  0.12204351002E+03  0.21086911724E+03  0.28043970775E+03  0.89440735482E+02 0.  0.
          1    1    3    3  502    0  0.36603549937E+03 -0.20979487251E+03  0.11009754213E+04  0.11790431517E+04  0.00000000000E+00 0. -1.
         -2    1    3    3    0  502  0.87628392659E+02 -0.37218516998E+02  0.16504596140E+03  0.19053640750E+03  0.00000000000E+00 0.  1.
         13    1    5    5    0    0 -0.45547251535E+03  0.13008838121E+03 -0.50396007816E+03  0.69163137548E+03  0.00000000000E+00 0.  1.
        -13    1    5    5    0    0 -0.10442875981E+03 -0.51185017186E+01 -0.76589858238E+02  0.12960544480E+03  0.00000000000E+00 0. -1.
          4    1    6    6  503    0 -0.49554345476E+01  0.20961087572E+02  0.41897440498E-01  0.21538924744E+02  0.00000000000E+00 0. -1.
         -4    1    6    6    0  503  0.11119281768E+03  0.10108242245E+03  0.21082721980E+03  0.25890078300E+03  0.00000000000E+00 0.  1.
<mgrwt>
<rscale>  0 0.23029720E+04</rscale>
<asrwt>0</asrwt>
<pdfrwt beam="1">  1        1 0.25904589E+00 0.23029720E+04</pdfrwt>
<pdfrwt beam="2">  1       -2 0.12114735E+00 0.23029720E+04</pdfrwt>
<totfact> 0.20120504E+00</totfact>
</mgrwt>
</event>
<event>
12    5  0.5029243E-008  0.1339167E+04  0.7818608E-02  0.8999069E-01
         -2   -1    0    0    0  501 -0.00000000000E+00  0.00000000000E+00  0.65485521163E+03  0.65485521163E+03  0.00000000000E+00 0.  1.
          1   -1    0    0  501    0  0.00000000000E+00 -0.00000000000E+00 -0.68464313742E+03  0.68464313742E+03  0.00000000000E+00 0. -1.
        -24    2    1    2    0    0  0.29628225536E+03 -0.18824175443E+03 -0.44223168488E+02  0.36199633263E+03  0.76599760130E+02 0.  0.
        254    2    1    2    0    0 -0.29628225536E+03  0.18824175443E+03  0.14435242696E+02  0.97750201642E+03  0.91218621066E+03 0.  0.
         23    2    4    4    0    0  0.94307516781E+01  0.87881133275E+02  0.42690158495E+03  0.44634666379E+03  0.95751492857E+02 0.  0.
         23    2    4    4    0    0 -0.30571300704E+03  0.10036062115E+03 -0.41246634225E+03  0.53115535263E+03  0.92004500879E+02 0.  0.
          3    1    3    3  502    0  0.71607558610E+02 -0.26696147193E+02 -0.37655050788E+02  0.85195243851E+02  0.00000000000E+00 0. -1.
         -4    1    3    3    0  502  0.22467469675E+03 -0.16154560724E+03 -0.65681177004E+01  0.27680108878E+03  0.00000000000E+00 0.  1.
         13    1    5    5    0    0  0.17506512542E+01 -0.19386690722E+02  0.36047022973E+02  0.40967016271E+02  0.00000000000E+00 0. -1.
        -13    1    5    5    0    0  0.76801004240E+01  0.10726782400E+03  0.39085456198E+03  0.40537964752E+03  0.00000000000E+00 0.  1.
          2    1    6    6  503    0 -0.96186751920E+02  0.29293050668E+02 -0.66699482098E+02  0.12065983165E+03  0.00000000000E+00 0. -1.
         -2    1    6    6    0  503 -0.20952625512E+03  0.71067570486E+02 -0.34576686015E+03  0.41049552098E+03  0.00000000000E+00 0.  1.
<mgrwt>
<rscale>  0 0.13391671E+04</rscale>
<asrwt>0</asrwt>
<pdfrwt beam="1">  1        1 0.10532971E+00 0.13391671E+04</pdfrwt>
<pdfrwt beam="2">  1       -2 0.10074696E+00 0.13391671E+04</pdfrwt>
<totfact> 0.19614141E+01</totfact>
</mgrwt>
</event>
<event>
12    5  0.5029243E-008  0.1728566E+04  0.7818608E-02  0.8745238E-01
          1   -1    0    0  501    0  0.00000000000E+00  0.00000000000E+00  0.28380487371E+04  0.28380487371E+04  0.00000000000E+00 0. -1.
         -2   -1    0    0    0  501 -0.00000000000E+00 -0.00000000000E+00 -0.26320389110E+03  0.26320389110E+03  0.00000000000E+00 0.  1.
        -24    2    1    2    0    0  0.59368899657E+03  0.19614570613E+03  0.85017682906E+03  0.10584253493E+04  0.80770147755E+02 0.  0.
        254    2    1    2    0    0 -0.59368899657E+03 -0.19614570613E+03  0.17246680169E+04  0.20428272788E+04  0.89873453253E+03 0.  0.
         23    2    4    4    0    0  0.20908966701E+03 -0.40384896046E+02  0.64198080827E+03  0.68274218001E+03  0.92995147710E+02 0.  0.
         23    2    4    4    0    0 -0.80277866358E+03 -0.15576081009E+03  0.10826872086E+04  0.13600850988E+04  0.94365627548E+02 0.  0.
          3    1    3    3  502    0  0.26343754101E+03  0.63072192691E+02  0.42323658052E+03  0.50250039064E+03  0.00000000000E+00 0. -1.
         -4    1    3    3    0  502  0.33025145555E+03  0.13307351344E+03  0.42694024854E+03  0.55592495869E+03  0.00000000000E+00 0.  1.
         13    1    5    5    0    0  0.17269616278E+03  0.30354877734E+01  0.52658708546E+03  0.55419052446E+03  0.00000000000E+00 0.  1.
        -13    1    5    5    0    0  0.36393504231E+02 -0.43420383819E+02  0.11539372281E+03  0.12855165555E+03  0.00000000000E+00 0. -1.
          2    1    6    6  503    0 -0.20453766033E+02 -0.18827421584E+02  0.51194747867E+02  0.58255734118E+02  0.00000000000E+00 0. -1.
         -2    1    6    6    0  503 -0.78232489755E+03 -0.13693338850E+03  0.10314924608E+04  0.13018293647E+04  0.00000000000E+00 0.  1.
<mgrwt>
<rscale>  0 0.17285664E+04</rscale>
<asrwt>0</asrwt>
<pdfrwt beam="1">  1        1 0.43662286E+00 0.17285664E+04</pdfrwt>
<pdfrwt beam="2">  1       -2 0.40492908E-01 0.17285664E+04</pdfrwt>
<totfact> 0.37791332E+00</totfact>
</mgrwt>
</event>
<event>
12    5  0.5029243E-008  0.1996210E+04  0.7818608E-02  0.8608395E-01
         -2   -1    0    0    0  501 -0.00000000000E+00  0.00000000000E+00  0.46505540296E+03  0.46505540296E+03  0.00000000000E+00 0.  1.
          1   -1    0    0  501    0  0.00000000000E+00 -0.00000000000E+00 -0.21421394681E+04  0.21421394681E+04  0.00000000000E+00 0. -1.
        -24    2    1    2    0    0 -0.14822356811E+03  0.17018733319E+03 -0.16519664386E+04  0.16693926989E+04  0.83336151638E+02 0.  0.
        254    2    1    2    0    0  0.14822356811E+03 -0.17018733319E+03 -0.25117626478E+02  0.93780217216E+03  0.90989453478E+03 0.  0.
         23    2    4    4    0    0  0.40200054522E+03 -0.39044814952E+03  0.80263920003E+02  0.57381830289E+03  0.93653361163E+02 0.  0.
         23    2    4    4    0    0 -0.25377697710E+03  0.22026081634E+03 -0.10538154648E+03  0.36398386927E+03  0.91985897972E+02 0.  0.
          3    1    3    3  502    0 -0.74675593238E+02  0.70675656524E+02 -0.10380627653E+04  0.10431422709E+04  0.00000000000E+00 0. -1.
         -4    1    3    3    0  502 -0.73547974874E+02  0.99511676663E+02 -0.61390367336E+03  0.62625042800E+03  0.00000000000E+00 0.  1.
         13    1    5    5    0    0  0.44336073904E+02 -0.65011998324E+02  0.40824222189E+02  0.88650236845E+02  0.00000000000E+00 0.  1.
        -13    1    5    5    0    0  0.35766447131E+03 -0.32543615120E+03  0.39439697814E+02  0.48516806605E+03  0.00000000000E+00 0. -1.
          1    1    6    6  503    0 -0.25792605004E+03  0.22446960364E+03 -0.10070175555E+03  0.35644535881E+03  0.00000000000E+00 0. -1.
         -1    1    6    6    0  503  0.41490729337E+01 -0.42087873017E+01 -0.46797909296E+01  0.75385104566E+01  0.00000000000E+00 0.  1.
<mgrwt>
<rscale>  0 0.19962099E+04</rscale>
<asrwt>0</asrwt>
<pdfrwt beam="1">  1        1 0.32955992E+00 0.19962099E+04</pdfrwt>
<pdfrwt beam="2">  1       -2 0.71546984E-01 0.19962099E+04</pdfrwt>
<totfact> 0.34455231E+00</totfact>
</mgrwt>
</event>
<event>
12    5  0.5029243E-008  0.1581424E+04  0.7818608E-02  0.8832042E-01
         -2   -1    0    0    0  501 -0.00000000000E+00  0.00000000000E+00  0.14909438177E+04  0.14909438177E+04  0.00000000000E+00 0.  1.
          1   -1    0    0  501    0  0.00000000000E+00 -0.00000000000E+00 -0.41934865905E+03  0.41934865905E+03  0.00000000000E+00 0. -1.
        -24    2    1    2    0    0 -0.31408662735E+02 -0.19071303910E+03  0.98636608694E+03  0.10084304464E+04  0.81583947021E+02 0.  0.
        254    2    1    2    0    0  0.31408662735E+02  0.19071303910E+03  0.85229071665E+02  0.90186203028E+03  0.87677429229E+03 0.  0.
         23    2    4    4    0    0 -0.34316780126E+03 -0.14449280860E+03 -0.13894596412E+02  0.38121675161E+03  0.80565751637E+02 0.  0.
         23    2    4    4    0    0  0.37457646400E+03  0.33520584770E+03  0.99123668077E+02  0.52064527867E+03  0.92604086940E+02 0.  0.
          1    1    3    3  502    0  0.21303061524E+02 -0.55877293627E+02  0.40061507963E+03  0.40505374261E+03  0.00000000000E+00 0. -1.
         -2    1    3    3    0  502 -0.52711724259E+02 -0.13483574547E+03  0.58575100731E+03  0.60337670381E+03  0.00000000000E+00 0.  1.
         13    1    5    5    0    0 -0.30268030470E+03 -0.12605940250E+03 -0.38905497472E+02  0.33018173412E+03  0.00000000000E+00 0. -1.
        -13    1    5    5    0    0 -0.40487496566E+02 -0.18433406094E+02  0.25010901061E+02  0.51035017490E+02  0.00000000000E+00 0.  1.
          2    1    6    6  503    0  0.29253286576E+03  0.20557125908E+03  0.63254064413E+02  0.36309240804E+03  0.00000000000E+00 0. -1.
         -2    1    6    6    0  503  0.82043598238E+02  0.12963458862E+03  0.35869603663E+02  0.15755287064E+03  0.00000000000E+00 0.  1.
<mgrwt>
<rscale>  0 0.15814238E+04</rscale>
<asrwt>0</asrwt>
<pdfrwt beam="1">  1        1 0.64515179E-01 0.15814238E+04</pdfrwt>
<pdfrwt beam="2">  1       -2 0.22937597E+00 0.15814238E+04</pdfrwt>
<totfact> 0.40807899E+00</totfact>
</mgrwt>
</event>
<event>
12    5  0.5029243E-008  0.1427447E+04  0.7818608E-02  0.8934187E-01
         -2   -1    0    0    0  501 -0.00000000000E+00  0.00000000000E+00  0.30802273659E+03  0.30802273659E+03  0.00000000000E+00 0.  1.
          1   -1    0    0  501    0  0.00000000000E+00 -0.00000000000E+00 -0.16537784809E+04  0.16537784809E+04  0.00000000000E+00 0. -1.
        -24    2    1    2    0    0 -0.36952918033E+03  0.14361082076E+03 -0.64753227783E+03  0.76356368914E+03  0.80966496649E+02 0.  0.
        254    2    1    2    0    0  0.36952918033E+03 -0.14361082076E+03 -0.69822346649E+03  0.11982375284E+04  0.88942750255E+03 0.  0.
         23    2    4    4    0    0  0.64358662179E+03 -0.14006383040E+01 -0.43788030969E+03  0.78390484111E+03  0.92530712565E+02 0.  0.
         23    2    4    4    0    0 -0.27405744146E+03 -0.14221018245E+03 -0.26034315680E+03  0.41433268726E+03  0.92529990946E+02 0.  0.
          1    1    3    3  502    0 -0.36941489580E+03  0.13220846207E+03 -0.61947039995E+03  0.73327349543E+03  0.00000000000E+00 0. -1.
         -4    1    3    3    0  502 -0.11428452637E+00  0.11402358688E+02 -0.28061877880E+02  0.30290193706E+02  0.00000000000E+00 0.  1.
         13    1    5    5    0    0  0.38213851284E+03  0.32747805441E+02 -0.29606808109E+03  0.48451890613E+03  0.00000000000E+00 0.  1.
        -13    1    5    5    0    0  0.26144810895E+03 -0.34148443745E+02 -0.14181222860E+03  0.29938593498E+03  0.00000000000E+00 0. -1.
          3    1    6    6  503    0 -0.74731225809E+02 -0.24444439675E+02 -0.12042382063E+03  0.14381996842E+03  0.00000000000E+00 0. -1.
         -3    1    6    6    0  503 -0.19932621566E+03 -0.11776574278E+03 -0.13991933617E+03  0.27051271884E+03  0.00000000000E+00 0.  1.
<mgrwt>
<rscale>  0 0.14274472E+04</rscale>
<asrwt>0</asrwt>
<pdfrwt beam="1">  1        1 0.25442746E+00 0.14274472E+04</pdfrwt>
<pdfrwt beam="2">  1       -2 0.47388114E-01 0.14274472E+04</pdfrwt>
<totfact> 0.18473229E+01</totfact>
</mgrwt>
</event>
<event>
12    5  0.5029243E-008  0.1283709E+04  0.7818608E-02  0.9042585E-01
          1   -1    0    0  501    0  0.00000000000E+00  0.00000000000E+00  0.14467608880E+04  0.14467608880E+04  0.00000000000E+00 0. -1.
         -2   -1    0    0    0  501 -0.00000000000E+00 -0.00000000000E+00 -0.28475845362E+03  0.28475845362E+03  0.00000000000E+00 0.  1.
        -24    2    1    2    0    0  0.10849333966E+03 -0.22808272954E+03  0.55213446644E+03  0.61243873038E+03  0.80225888413E+02 0.  0.
        254    2    1    2    0    0 -0.10849333966E+03  0.22808272954E+03  0.60986796792E+03  0.11190806112E+04  0.90366472757E+03 0.  0.
         23    2    4    4    0    0  0.35230610250E+03 -0.86110272357E+02  0.25293783275E+03  0.45039761010E+03  0.85708173983E+02 0.  0.
         23    2    4    4    0    0 -0.46079944216E+03  0.31419300190E+03  0.35693013517E+03  0.66868300112E+03  0.93190483734E+02 0.  0.
          1    1    3    3  502    0  0.10704575605E+03 -0.23473681360E+03  0.54136741474E+03  0.59969896056E+03  0.00000000000E+00 0. -1.
         -2    1    3    3    0  502  0.14475836048E+01  0.66540840542E+01  0.10767051694E+02  0.12739769820E+02  0.00000000000E+00 0.  1.
         13    1    5    5    0    0  0.14499991685E+02  0.60129235390E+01 -0.38783674448E+01  0.16169314840E+02  0.00000000000E+00 0. -1.
        -13    1    5    5    0    0  0.33780611081E+03 -0.92123195896E+02  0.25681620019E+03  0.43422829526E+03  0.00000000000E+00 0.  1.
          2    1    6    6  503    0 -0.16169001268E+03  0.16226367925E+03  0.16345505392E+03  0.28140845129E+03  0.00000000000E+00 0. -1.
         -2    1    6    6    0  503 -0.29910942948E+03  0.15192932265E+03  0.19347508126E+03  0.38727454983E+03  0.00000000000E+00 0.  1.
<mgrwt>
<rscale>  0 0.12837093E+04</rscale>
<asrwt>0</asrwt>
<pdfrwt beam="1">  1        1 0.22257859E+00 0.12837093E+04</pdfrwt>
<pdfrwt beam="2">  1       -2 0.43808994E-01 0.12837093E+04</pdfrwt>
<totfact> 0.30379612E+01</totfact>
</mgrwt>
</event>
<event>
12    5  0.5029243E-008  0.1857139E+04  0.7818608E-02  0.8676490E-01
          1   -1    0    0  501    0  0.00000000000E+00  0.00000000000E+00  0.91637218850E+03  0.91637218850E+03  0.00000000000E+00 0. -1.
         -2   -1    0    0    0  501 -0.00000000000E+00 -0.00000000000E+00 -0.94092945839E+03  0.94092945839E+03  0.00000000000E+00 0.  1.
        -24    2    1    2    0    0 -0.21490124348E+03  0.12198255733E+03  0.65411868123E+03  0.70381047569E+03  0.80097739165E+02 0.  0.
        254    2    1    2    0    0  0.21490124348E+03 -0.12198255733E+03 -0.67867595112E+03  0.11534911712E+04  0.89937675457E+03 0.  0.
         23    2    4    4    0    0  0.21272989567E+03 -0.46496225911E+03 -0.19690678778E+03  0.55525107999E+03  0.89930905967E+02 0.  0.
         23    2    4    4    0    0  0.21713478093E+01  0.34297970178E+03 -0.48176916335E+03  0.59824009121E+03  0.90276737796E+02 0.  0.
          1    1    3    3  502    0 -0.14755714421E+03  0.10835300329E+03  0.54437200751E+03  0.57432949314E+03  0.00000000000E+00 0. -1.
         -2    1    3    3    0  502 -0.67344099276E+02  0.13629554036E+02  0.10974667371E+03  0.12948098255E+03  0.00000000000E+00 0.  1.
         13    1    5    5    0    0  0.30855852880E+02 -0.86274584254E+02 -0.78891264763E+00  0.91629743688E+02  0.00000000000E+00 0. -1.
        -13    1    5    5    0    0  0.18187404279E+03 -0.37868767486E+03 -0.19611787513E+03  0.46362133630E+03  0.00000000000E+00 0.  1.
          4    1    6    6  503    0  0.17450734373E+02  0.55829591189E+02 -0.39051091682E+02  0.70331068128E+02  0.00000000000E+00 0. -1.
         -4    1    6    6    0  503 -0.15279386564E+02  0.28715011060E+03 -0.44271807166E+03  0.52790902308E+03  0.00000000000E+00 0.  1.
<mgrwt>
<rscale>  0 0.18571393E+04</rscale>
<asrwt>0</asrwt>
<pdfrwt beam="1">  1        1 0.14098034E+00 0.18571393E+04</pdfrwt>
<pdfrwt beam="2">  1       -2 0.14475838E+00 0.18571393E+04</pdfrwt>
<totfact> 0.47780320E+00</totfact>
</mgrwt>
</event>
<event>
12    5  0.5029243E-008  0.3504798E+04  0.7818608E-02  0.8112654E-01
          1   -1    0    0  501    0  0.00000000000E+00  0.00000000000E+00  0.36667336337E+04  0.36667336337E+04  0.00000000000E+00 0. -1.
         -2   -1    0    0    0  501 -0.00000000000E+00 -0.00000000000E+00 -0.83750327529E+03  0.83750327529E+03  0.00000000000E+00 0.  1.
        -24    2    1    2    0    0 -0.82922918015E+03  0.14051067322E+04  0.14671770618E+04  0.21956729863E+04  0.80158406690E+02 0.  0.
        254    2    1    2    0    0  0.82922918015E+03 -0.14051067322E+04  0.13620532966E+04  0.23085639226E+04  0.90129475767E+03 0.  0.
         23    2    4    4    0    0  0.45190224201E+03 -0.78886297559E+02  0.22445601245E+03  0.51873944295E+03  0.90947368712E+02 0.  0.
         23    2    4    4    0    0  0.37732693814E+03 -0.13262204346E+04  0.11375972841E+04  0.17898244797E+04  0.90043477378E+02 0.  0.
          3    1    3    3  502    0 -0.18384824573E+03  0.29876874451E+03  0.27299315357E+03  0.44450894485E+03  0.00000000000E+00 0. -1.
         -4    1    3    3    0  502 -0.64538093442E+03  0.11063379877E+04  0.11941839082E+04  0.17511640415E+04  0.00000000000E+00 0.  1.
         13    1    5    5    0    0  0.44349911959E+03 -0.63935025100E+02  0.22536180418E+03  0.50156465116E+03  0.00000000000E+00 0.  1.
        -13    1    5    5    0    0  0.84031224219E+01 -0.14951272459E+02 -0.90579172678E+00  0.17174791796E+02  0.00000000000E+00 0. -1.
          4    1    6    6  503    0  0.26018496565E+03 -0.10212199132E+04  0.89986987664E+03  0.13857677014E+04  0.00000000000E+00 0. -1.
         -4    1    6    6    0  503  0.11714197249E+03 -0.30500052139E+03  0.23772740747E+03  0.40405677823E+03  0.00000000000E+00 0.  1.
<mgrwt>
<rscale>  0 0.35047975E+04</rscale>
<asrwt>0</asrwt>
<pdfrwt beam="1">  1        1 0.56411286E+00 0.35047975E+04</pdfrwt>
<pdfrwt beam="2">  1       -2 0.12884666E+00 0.35047975E+04</pdfrwt>
<totfact> 0.58517537E-02</totfact>
</mgrwt>
</event>
<event>
12    5  0.5029243E-008  0.1266819E+04  0.7818608E-02  0.9056300E-01
          1   -1    0    0  501    0  0.00000000000E+00  0.00000000000E+00  0.33281612314E+03  0.33281612314E+03  0.00000000000E+00 0. -1.
         -2   -1    0    0    0  501 -0.00000000000E+00 -0.00000000000E+00 -0.12054938872E+04  0.12054938872E+04  0.00000000000E+00 0.  1.
        -24    2    1    2    0    0 -0.11864200491E+03  0.23685786091E+03 -0.32548537279E+02  0.27818010373E+03  0.78404025568E+02 0.  0.
        254    2    1    2    0    0  0.11864200491E+03 -0.23685786091E+03 -0.84012922683E+03  0.12601299067E+04  0.90107307820E+03 0.  0.
         23    2    4    4    0    0  0.90047831359E+02 -0.47893774975E+03 -0.86652721369E+03  0.99824024880E+03  0.90134356275E+02 0.  0.
         23    2    4    4    0    0  0.28594173553E+02  0.24207988884E+03  0.26397986857E+02  0.26188965786E+03  0.92027386373E+02 0.  0.
          3    1    3    3  502    0 -0.11828914880E+03  0.18805975226E+03 -0.51774072142E+01  0.22222870807E+03  0.00000000000E+00 0. -1.
         -4    1    3    3    0  502 -0.35285611571E+00  0.48798108651E+02 -0.27371130065E+02  0.55951395661E+02  0.00000000000E+00 0.  1.
         13    1    5    5    0    0  0.38258951471E+02 -0.37011112612E+03 -0.60468936475E+03  0.70999663442E+03  0.00000000000E+00 0. -1.
        -13    1    5    5    0    0  0.51788879888E+02 -0.10882662363E+03 -0.26183784894E+03  0.28824361437E+03  0.00000000000E+00 0.  1.
          3    1    6    6  503    0  0.59330064808E+02  0.18163400073E+03  0.32427971455E+02  0.19381057800E+03  0.00000000000E+00 0. -1.
         -3    1    6    6    0  503 -0.30735891256E+02  0.60445888111E+02 -0.60299845988E+01  0.68079079864E+02  0.00000000000E+00 0.  1.
<mgrwt>
<rscale>  0 0.12668193E+04</rscale>
<asrwt>0</asrwt>
<pdfrwt beam="1">  1        1 0.51202481E-01 0.12668193E+04</pdfrwt>
<pdfrwt beam="2">  1       -2 0.18546060E+00 0.12668193E+04</pdfrwt>
<totfact> 0.10936124E+01</totfact>
</mgrwt>
</event>
<event>
12    5  0.5029243E-008  0.2262047E+04  0.7818608E-02  0.8493037E-01
          1   -1    0    0  501    0  0.00000000000E+00  0.00000000000E+00  0.17778445973E+04  0.17778445973E+04  0.00000000000E+00 0. -1.
         -2   -1    0    0    0  501 -0.00000000000E+00 -0.00000000000E+00 -0.71953115218E+03  0.71953115218E+03  0.00000000000E+00 0.  1.
        -24    2    1    2    0    0  0.72289787067E+02 -0.81340029790E+03 -0.90078928045E+02  0.82540189823E+03  0.79550124960E+02 0.  0.
        254    2    1    2    0    0 -0.72289787067E+02  0.81340029790E+03  0.11483923732E+04  0.16719738512E+04  0.89991425068E+03 0.  0.
         23    2    4    4    0    0  0.13586217867E+03  0.22771691182E+03 -0.80439688785E+02  0.29172266031E+03  0.91203308508E+02 0.  0.
         23    2    4    4    0    0 -0.20815196574E+03  0.58568338608E+03  0.12288320619E+04  0.13802511909E+04  0.93342616407E+02 0.  0.
          3    1    3    3  502    0  0.16048667314E+02 -0.22876754345E+03  0.10268369106E+02  0.22955955233E+03  0.00000000000E+00 0. -1.
         -4    1    3    3    0  502  0.56241119753E+02 -0.58463275445E+03 -0.10034729715E+03  0.59584234590E+03  0.00000000000E+00 0.  1.
         13    1    5    5    0    0  0.63707407212E+02  0.16029157237E+03 -0.14753425443E+02  0.17311754812E+03  0.00000000000E+00 0. -1.
        -13    1    5    5    0    0  0.72154771462E+02  0.67425339457E+02 -0.65686263342E+02  0.11860511219E+03  0.00000000000E+00 0.  1.
          3    1    6    6  503    0 -0.13349072590E+02  0.37652587008E+01  0.17339104121E+02  0.22204041160E+02  0.00000000000E+00 0. -1.
         -3    1    6    6    0  503 -0.19480289315E+03  0.58191812738E+03  0.12114929578E+04  0.13580471498E+04  0.00000000000E+00 0.  1.
<mgrwt>
<rscale>  0 0.22620474E+04</rscale>
<asrwt>0</asrwt>
<pdfrwt beam="1">  1        1 0.27351455E+00 0.22620474E+04</pdfrwt>
<pdfrwt beam="2">  1       -2 0.11069710E+00 0.22620474E+04</pdfrwt>
<totfact> 0.21736460E+00</totfact>
</mgrwt>
</event>
<event>
12    5  0.5029243E-008  0.2719929E+04  0.7818608E-02  0.8328568E-01
         -2   -1    0    0    0  501 -0.00000000000E+00  0.00000000000E+00  0.13200270148E+04  0.13200270148E+04  0.00000000000E+00 0.  1.
          1   -1    0    0  501    0  0.00000000000E+00 -0.00000000000E+00 -0.14011100099E+04  0.14011100099E+04  0.00000000000E+00 0. -1.
        -24    2    1    2    0    0  0.78371404005E+03 -0.64742859652E+03 -0.71491982803E+03  0.12448260182E+04  0.71484061347E+02 0.  0.
        254    2    1    2    0    0 -0.78371404005E+03  0.64742859652E+03  0.63383683293E+03  0.14763110065E+04  0.86277086939E+03 0.  0.
         23    2    4    4    0    0 -0.76120018054E+03  0.20184560471E+03  0.14307056708E+03  0.80561806392E+03  0.91563719623E+02 0.  0.
         23    2    4    4    0    0 -0.22513859507E+02  0.44558299181E+03  0.49076626584E+03  0.67069294261E+03  0.99631416338E+02 0.  0.
          3    1    3    3  502    0  0.67604125880E+03 -0.58853013705E+03 -0.62999982628E+03  0.10955817117E+04  0.00000000000E+00 0. -1.
         -4    1    3    3    0  502  0.10767278125E+03 -0.58898459467E+02 -0.84920001751E+02  0.14924430658E+03  0.00000000000E+00 0.  1.
         13    1    5    5    0    0 -0.13053943079E+03  0.37020973269E+02  0.60504419430E+02  0.14856608033E+03  0.00000000000E+00 0. -1.
        -13    1    5    5    0    0 -0.63066074975E+03  0.16482463144E+03  0.82566147653E+02  0.65705198359E+03  0.00000000000E+00 0.  1.
          2    1    6    6  503    0  0.99886159223E+01  0.12346228450E+03  0.20154371582E+03  0.23656410871E+03  0.00000000000E+00 0. -1.
         -2    1    6    6    0  503 -0.32502475429E+02  0.32212070731E+03  0.28922255002E+03  0.43412883390E+03  0.00000000000E+00 0.  1.
<mgrwt>
<rscale>  0 0.27199287E+04</rscale>
<asrwt>0</asrwt>
<pdfrwt beam="1">  1        1 0.21555538E+00 0.27199287E+04</pdfrwt>
<pdfrwt beam="2">  1       -2 0.20308108E+00 0.27199287E+04</pdfrwt>
<totfact> 0.74518801E-01</totfact>
</mgrwt>
</event>
<event>
12    5  0.5029243E-008  0.1143708E+04  0.7818608E-02  0.9163608E-01
         -4   -1    0    0    0  501 -0.00000000000E+00  0.00000000000E+00  0.55520623174E+03  0.55520623174E+03  0.00000000000E+00 0.  1.
          1   -1    0    0  501    0  0.00000000000E+00 -0.00000000000E+00 -0.58900069353E+03  0.58900069353E+03  0.00000000000E+00 0. -1.
        -24    2    1    2    0    0  0.81901333538E+02 -0.16517049025E+03 -0.87854556675E+02  0.21823737626E+03  0.76941601120E+02 0.  0.
        254    2    1    2    0    0 -0.81901333538E+02  0.16517049025E+03  0.54060094884E+02  0.92596954902E+03  0.90581896236E+03 0.  0.
         23    2    4    4    0    0  0.11401186739E+03  0.17529710996E+03 -0.37822223725E+03  0.44252419587E+03  0.95120032164E+02 0.  0.
         23    2    4    4    0    0 -0.19591320093E+03 -0.10126619709E+02  0.43228233213E+03  0.48344535315E+03  0.91470564006E+02 0.  0.
          1    1    3    3  502    0  0.36238317854E+02 -0.10759857359E+03 -0.14588374588E+02  0.11447047389E+03  0.00000000000E+00 0. -1.
         -2    1    3    3    0  502  0.45663015683E+02 -0.57571916655E+02 -0.73266182086E+02  0.10376690236E+03  0.00000000000E+00 0.  1.
         13    1    5    5    0    0  0.38913080693E+01  0.20328977670E+02 -0.17470843276E+01  0.20771661350E+02  0.00000000000E+00 0.  1.
        -13    1    5    5    0    0  0.11012055932E+03  0.15496813229E+03 -0.37647515292E+03  0.42175253452E+03  0.00000000000E+00 0. -1.
          1    1    6    6  503    0 -0.66106817402E+02  0.14957337672E+02  0.68414156724E+02  0.96303323398E+02  0.00000000000E+00 0.  1.
         -1    1    6    6    0  503 -0.12980638353E+03 -0.25083957381E+02  0.36386817541E+03  0.38714202975E+03  0.00000000000E+00 0. -1.
<mgrwt>
<rscale>  0 0.11437078E+04</rscale>
<asrwt>0</asrwt>
<pdfrwt beam="1">  1        1 0.90615491E-01 0.11437078E+04</pdfrwt>
<pdfrwt beam="2">  1       -4 0.85416344E-01 0.11437078E+04</pdfrwt>
<totfact> 0.20117307E+01</totfact>
</mgrwt>
</event>
<event>
12    5  0.5029243E-008  0.2357895E+04  0.7818608E-02  0.8455437E-01
          1   -1    0    0  501    0  0.00000000000E+00  0.00000000000E+00  0.14246710395E+04  0.14246710395E+04  0.00000000000E+00 0. -1.
         -2   -1    0    0    0  501 -0.00000000000E+00 -0.00000000000E+00 -0.97560582945E+03  0.97560582945E+03  0.00000000000E+00 0.  1.
        -24    2    1    2    0    0 -0.57634536526E+03 -0.56401375024E+02  0.10240558661E+04  0.11791373954E+04  0.79495189424E+02 0.  0.
        254    2    1    2    0    0  0.57634536526E+03  0.56401375024E+02 -0.57499065606E+03  0.12211394735E+04  0.90841194627E+03 0.  0.
         23    2    4    4    0    0  0.34009480628E+03  0.28675063472E+03  0.99496809234E+02  0.46492021462E+03  0.91437339991E+02 0.  0.
         23    2    4    4    0    0  0.23625055897E+03 -0.23034925969E+03 -0.67448746530E+03  0.75621925892E+03  0.89772594172E+02 0.  0.
          3    1    3    3  502    0 -0.51405967277E+03 -0.24934558329E+02  0.90809141566E+03  0.10437955253E+04  0.00000000000E+00 0. -1.
         -4    1    3    3    0  502 -0.62285692492E+02 -0.31466816696E+02  0.11596445043E+03  0.13534187011E+03  0.00000000000E+00 0.  1.
         13    1    5    5    0    0  0.15776808947E+03  0.81924935770E+02  0.61351983868E+02  0.18805991354E+03  0.00000000000E+00 0. -1.
        -13    1    5    5    0    0  0.18232671681E+03  0.20482569894E+03  0.38144825366E+02  0.27686030108E+03  0.00000000000E+00 0.  1.
          3    1    6    6  503    0  0.31363227438E+01 -0.85099070787E+01 -0.77455747233E+02  0.77984920455E+02  0.00000000000E+00 0. -1.
         -3    1    6    6    0  503  0.23311423623E+03 -0.22183935261E+03 -0.59703171807E+03  0.67823433847E+03  0.00000000000E+00 0.  1.
<mgrwt>
<rscale>  0 0.23578951E+04</rscale>
<asrwt>0</asrwt>
<pdfrwt beam="1">  1        1 0.21918016E+00 0.23578951E+04</pdfrwt>
<pdfrwt beam="2">  1       -2 0.15009320E+00 0.23578951E+04</pdfrwt>
<totfact> 0.17435777E+00</totfact>
</mgrwt>
</event>
<event>
12    5  0.5029243E-008  0.3569533E+04  0.7818608E-02  0.8097506E-01
          1   -1    0    0  501    0  0.00000000000E+00  0.00000000000E+00  0.38808900243E+04  0.38808900243E+04  0.00000000000E+00 0. -1.
         -2   -1    0    0    0  501 -0.00000000000E+00 -0.00000000000E+00 -0.82078894426E+03  0.82078894426E+03  0.00000000000E+00 0.  1.
        -24    2    1    2    0    0  0.27742125739E+03 -0.19930276960E+03 -0.72042013614E+03  0.80139310229E+03  0.80880058154E+02 0.  0.
        254    2    1    2    0    0 -0.27742125739E+03  0.19930276960E+03  0.37805212162E+04  0.39002858663E+04  0.89621706335E+03 0.  0.
         23    2    4    4    0    0  0.27191118112E+03 -0.19816679686E+02  0.61692114046E+03  0.68058773534E+03  0.90992201498E+02 0.  0.
         23    2    4    4    0    0 -0.54933243851E+03  0.21911944929E+03  0.31636000758E+04  0.32196981310E+04  0.91165531750E+02 0.  0.
          3    1    3    3  502    0  0.99111749756E+02 -0.11649421317E+03 -0.27908769433E+03  0.31825144425E+03  0.00000000000E+00 0. -1.
         -4    1    3    3    0  502  0.17830950763E+03 -0.82808556432E+02 -0.44133244181E+03  0.48314165803E+03  0.00000000000E+00 0.  1.
         13    1    5    5    0    0  0.70227261053E+02 -0.32389336819E+02  0.10646968979E+03  0.13159305521E+03  0.00000000000E+00 0. -1.
        -13    1    5    5    0    0  0.20168392007E+03  0.12572657134E+02  0.51045145067E+03  0.54899468013E+03  0.00000000000E+00 0.  1.
          2    1    6    6  503    0 -0.33161126619E+02  0.29099248057E+02  0.35628625177E+03  0.35900740905E+03  0.00000000000E+00 0. -1.
         -2    1    6    6    0  503 -0.51617131189E+03  0.19002020123E+03  0.28073138240E+04  0.28606907219E+04  0.00000000000E+00 0.  1.
<mgrwt>
<rscale>  0 0.35695331E+04</rscale>
<asrwt>0</asrwt>
<pdfrwt beam="1">  1        1 0.59705999E+00 0.35695331E+04</pdfrwt>
<pdfrwt beam="2">  1       -2 0.12627522E+00 0.35695331E+04</pdfrwt>
<totfact> 0.40568501E-02</totfact>
</mgrwt>
</event>
<event>
12    5  0.5029243E-008  0.4352049E+04  0.7818608E-02  0.7937063E-01
          1   -1    0    0  501    0  0.00000000000E+00  0.00000000000E+00  0.31025761669E+04  0.31025761669E+04  0.00000000000E+00 0. -1.
         -2   -1    0    0    0  501 -0.00000000000E+00 -0.00000000000E+00 -0.15261778696E+04  0.15261778696E+04  0.00000000000E+00 0.  1.
        -24    2    1    2    0    0 -0.12264119462E+04 -0.77744704611E+03 -0.83395689039E+03  0.16762880330E+04  0.77118760920E+02 0.  0.
        254    2    1    2    0    0  0.12264119462E+04  0.77744704611E+03  0.24103551877E+04  0.29524660035E+04  0.89371874764E+03 0.  0.
         23    2    4    4    0    0  0.75207311152E+03  0.83779357030E+03  0.20707683311E+04  0.23586240979E+04  0.86684040919E+02 0.  0.
         23    2    4    4    0    0  0.47433883473E+03 -0.60346524192E+02  0.33958685662E+03  0.59384190560E+03  0.93219861342E+02 0.  0.
          3    1    3    3  502    0 -0.24595735148E+03 -0.12208129419E+03 -0.16870125074E+03  0.32227158289E+03  0.00000000000E+00 0. -1.
         -4    1    3    3    0  502 -0.98045459476E+03 -0.65536575192E+03 -0.66525563964E+03  0.13540164501E+04  0.00000000000E+00 0.  1.
         13    1    5    5    0    0  0.70716219779E+01  0.27473367438E+02  0.55723641340E+02  0.62529336794E+02  0.00000000000E+00 0.  1.
        -13    1    5    5    0    0  0.74500148954E+03  0.81032020287E+03  0.20150446897E+04  0.22960947612E+04  0.00000000000E+00 0. -1.
          4    1    6    6  503    0  0.18348107361E+03 -0.65737830320E+00  0.17875264655E+03  0.25616058473E+03  0.00000000000E+00 0. -1.
         -4    1    6    6    0  503  0.29085776111E+03 -0.59689145889E+02  0.16083421007E+03  0.33768132087E+03  0.00000000000E+00 0.  1.
<mgrwt>
<rscale>  0 0.43520492E+04</rscale>
<asrwt>0</asrwt>
<pdfrwt beam="1">  1        1 0.47731941E+00 0.43520492E+04</pdfrwt>
<pdfrwt beam="2">  1       -2 0.23479660E+00 0.43520492E+04</pdfrwt>
<totfact> 0.26835732E-02</totfact>
</mgrwt>
</event>
<event>
12    5  0.5029243E-008  0.1117064E+04  0.7818608E-02  0.9188718E-01
         -2   -1    0    0    0  501 -0.00000000000E+00  0.00000000000E+00  0.15136525837E+04  0.15136525837E+04  0.00000000000E+00 0.  1.
          1   -1    0    0  501    0  0.00000000000E+00 -0.00000000000E+00 -0.20609612571E+03  0.20609612571E+03  0.00000000000E+00 0. -1.
        -24    2    1    2    0    0 -0.14454150400E+03 -0.11206959806E+03  0.26318512461E+03  0.33019985760E+03  0.79458762615E+02 0.  0.
        254    2    1    2    0    0  0.14454150400E+03  0.11206959806E+03  0.10443713333E+04  0.13895488518E+04  0.89815515829E+03 0.  0.
         23    2    4    4    0    0 -0.32547687587E+03  0.12664447546E+03  0.73772212676E+03  0.82143365801E+03  0.92440782721E+02 0.  0.
         23    2    4    4    0    0  0.47001837987E+03 -0.14574877395E+02  0.30664920658E+03  0.56811519375E+03  0.87128829989E+02 0.  0.
          3    1    3    3  502    0 -0.11258244980E+03 -0.12006712395E+03  0.20068398371E+03  0.25954765183E+03  0.00000000000E+00 0. -1.
         -4    1    3    3    0  502 -0.31959054202E+02  0.79975258879E+01  0.62501140898E+02  0.70652205764E+02  0.00000000000E+00 0.  1.
         13    1    5    5    0    0 -0.59709656359E+02  0.19081986641E+02  0.65699578383E+02  0.90806386760E+02  0.00000000000E+00 0.  1.
        -13    1    5    5    0    0 -0.26576721951E+03  0.10756248882E+03  0.67202254838E+03  0.73062727125E+03  0.00000000000E+00 0. -1.
          1    1    6    6  503    0  0.46212771965E+03 -0.25296824179E+02  0.30591070421E+03  0.55478222532E+03  0.00000000000E+00 0. -1.
         -1    1    6    6    0  503  0.78906602192E+01  0.10721946784E+02  0.73850236900E+00  0.13332968435E+02  0.00000000000E+00 0.  1.
<mgrwt>
<rscale>  0 0.11170639E+04</rscale>
<asrwt>0</asrwt>
<pdfrwt beam="1">  1        1 0.31707097E-01 0.11170639E+04</pdfrwt>
<pdfrwt beam="2">  1       -2 0.23286962E+00 0.11170639E+04</pdfrwt>
<totfact> 0.10203345E+01</totfact>
</mgrwt>
</event>
<event>
12    5  0.5029243E-008  0.1520586E+04  0.7818608E-02  0.8870877E-01
         -2   -1    0    0    0  501 -0.00000000000E+00  0.00000000000E+00  0.27454084483E+03  0.27454084483E+03  0.00000000000E+00 0.  1.
          1   -1    0    0  501    0  0.00000000000E+00 -0.00000000000E+00 -0.21054999382E+04  0.21054999382E+04  0.00000000000E+00 0. -1.
        -24    2    1    2    0    0 -0.12853220343E+02 -0.27384564483E+02  0.16925138427E+03  0.18972336275E+03  0.80210994564E+02 0.  0.
        254    2    1    2    0    0  0.12853220343E+02  0.27384564483E+02 -0.20002104777E+04  0.21903174203E+04  0.89203885964E+03 0.  0.
         23    2    4    4    0    0  0.31385644591E+03  0.85763018343E+02 -0.27546196713E+03  0.43616970320E+03  0.92214698955E+02 0.  0.
         23    2    4    4    0    0 -0.30100322556E+03 -0.58378453860E+02 -0.17247485106E+04  0.17541477171E+04  0.90916462581E+02 0.  0.
          3    1    3    3  502    0 -0.12929909621E+02  0.25620224229E+02  0.34216660418E+02  0.44658238909E+02  0.00000000000E+00 0. -1.
         -2    1    3    3    0  502  0.76689278183E-01 -0.53004788712E+02  0.13503472386E+03  0.14506512384E+03  0.00000000000E+00 0.  1.
         13    1    5    5    0    0  0.16929342162E+03  0.79688109599E+02 -0.11286237124E+03  0.21851400929E+03  0.00000000000E+00 0.  1.
        -13    1    5    5    0    0  0.14456302429E+03  0.60749087440E+01 -0.16259959590E+03  0.21765569392E+03  0.00000000000E+00 0. -1.
          2    1    6    6  503    0 -0.27048000753E+03 -0.79908270946E+02 -0.14924397525E+04  0.15188552206E+04  0.00000000000E+00 0.  1.
         -2    1    6    6    0  503 -0.30523218034E+02  0.21529817086E+02 -0.23230875808E+03  0.23529249657E+03  0.00000000000E+00 0. -1.
<mgrwt>
<rscale>  0 0.15205864E+04</rscale>
<asrwt>0</asrwt>
<pdfrwt beam="1">  1        1 0.32392307E+00 0.15205864E+04</pdfrwt>
<pdfrwt beam="2">  1       -2 0.42237053E-01 0.15205864E+04</pdfrwt>
<totfact> 0.11391531E+01</totfact>
</mgrwt>
</event>
<event>
12    5  0.5029243E-008  0.1088097E+04  0.7818608E-02  0.9216872E-01
         -2   -1    0    0    0  501 -0.00000000000E+00  0.00000000000E+00  0.23902469488E+03  0.23902469488E+03  0.00000000000E+00 0.  1.
          1   -1    0    0  501    0  0.00000000000E+00 -0.00000000000E+00 -0.12383189435E+04  0.12383189435E+04  0.00000000000E+00 0. -1.
        -24    2    1    2    0    0 -0.10505224938E+03 -0.10671090986E+03 -0.55589767449E+02  0.17843015914E+03  0.79522990780E+02 0.  0.
        254    2    1    2    0    0  0.10505224938E+03  0.10671090986E+03 -0.94370448121E+03  0.12989134793E+04  0.87987208469E+03 0.  0.
         23    2    4    4    0    0 -0.54137921014E+02 -0.29471700748E+02 -0.10429681337E+04  0.10486307742E+04  0.89691008305E+02 0.  0.
         23    2    4    4    0    0  0.15919017040E+03  0.13618261061E+03  0.99263652512E+02  0.25028270509E+03  0.94344824852E+02 0.  0.
          3    1    3    3  502    0  0.11364032094E+02 -0.16436241592E+02  0.23684843913E+01  0.20122151510E+02  0.00000000000E+00 0. -1.
         -4    1    3    3    0  502 -0.11641628148E+03 -0.90274668271E+02 -0.57958251840E+02  0.15830800763E+03  0.00000000000E+00 0.  1.
         13    1    5    5    0    0 -0.69887897916E+02 -0.32426626923E+02 -0.99656264391E+03  0.99953634634E+03  0.00000000000E+00 0. -1.
        -13    1    5    5    0    0  0.15749976902E+02  0.29549261754E+01 -0.46405489807E+02  0.49094427844E+02  0.00000000000E+00 0.  1.
          2    1    6    6  503    0  0.14631071820E+03  0.15075906666E+03  0.87703507512E+02  0.22765550217E+03  0.00000000000E+00 0. -1.
         -2    1    6    6    0  503  0.12879452198E+02 -0.14576456046E+02  0.11560145001E+02  0.22627202925E+02  0.00000000000E+00 0.  1.
<mgrwt>
<rscale>  0 0.10880971E+04</rscale>
<asrwt>0</asrwt>
<pdfrwt beam="1">  1        1 0.19051061E+00 0.10880971E+04</pdfrwt>
<pdfrwt beam="2">  1       -2 0.36773030E-01 0.10880971E+04</pdfrwt>
<totfact> 0.61026367E+01</totfact>
</mgrwt>
</event>
<event>
12    5  0.5029243E-008  0.1824482E+04  0.7818608E-02  0.8693387E-01
         -2   -1    0    0    0  501 -0.00000000000E+00  0.00000000000E+00  0.11440002709E+04  0.11440002709E+04  0.00000000000E+00 0.  1.
          1   -1    0    0  501    0  0.00000000000E+00 -0.00000000000E+00 -0.72743323338E+03  0.72743323338E+03  0.00000000000E+00 0. -1.
        -24    2    1    2    0    0 -0.32662650387E+03 -0.17704596541E+03 -0.43722225089E+03  0.57939420000E+03  0.80648592234E+02 0.  0.
        254    2    1    2    0    0  0.32662650387E+03  0.17704596541E+03  0.85378928840E+03  0.12920393043E+04  0.89575625475E+03 0.  0.
         23    2    4    4    0    0  0.45943275004E+03  0.12838763234E+03  0.97201322423E+03  0.10865347448E+04  0.90477663621E+02 0.  0.
         23    2    4    4    0    0 -0.13280624618E+03  0.48658333066E+02 -0.11822393582E+03  0.20550455949E+03  0.90830020207E+02 0.  0.
          3    1    3    3  502    0 -0.31994454014E+03 -0.17015863002E+03 -0.39478641583E+03  0.53588691182E+03  0.00000000000E+00 0. -1.
         -4    1    3    3    0  502 -0.66819637264E+01 -0.68873353845E+01 -0.42435835053E+02  0.43507288177E+02  0.00000000000E+00 0.  1.
         13    1    5    5    0    0  0.33923079108E+03  0.10332534258E+03  0.80118246652E+03  0.87615466711E+03  0.00000000000E+00 0.  1.
        -13    1    5    5    0    0  0.12020195897E+03  0.25062289757E+02  0.17083075770E+03  0.21038007768E+03  0.00000000000E+00 0. -1.
          2    1    6    6  503    0 -0.13176493783E+03  0.65606549529E+02 -0.89888091301E+02  0.17247053992E+03  0.00000000000E+00 0. -1.
         -2    1    6    6    0  503 -0.10413083454E+01 -0.16948216463E+02 -0.28335844523E+02  0.33034019574E+02  0.00000000000E+00 0.  1.
<mgrwt>
<rscale>  0 0.18244822E+04</rscale>
<asrwt>0</asrwt>
<pdfrwt beam="1">  1        1 0.11191281E+00 0.18244822E+04</pdfrwt>
<pdfrwt beam="2">  1       -2 0.17600004E+00 0.18244822E+04</pdfrwt>
<totfact> 0.40926218E+00</totfact>
</mgrwt>
</event>
<event>
12    5  0.5029243E-008  0.1417198E+04  0.7818608E-02  0.8941463E-01
          1   -1    0    0  501    0  0.00000000000E+00  0.00000000000E+00  0.10115093784E+04  0.10115093784E+04  0.00000000000E+00 0. -1.
         -2   -1    0    0    0  501 -0.00000000000E+00 -0.00000000000E+00 -0.49639921202E+03  0.49639921202E+03  0.00000000000E+00 0.  1.
        -24    2    1    2    0    0  0.23270492978E+03 -0.19190121435E+03  0.45074193195E+03  0.54823861338E+03  0.80122578418E+02 0.  0.
        254    2    1    2    0    0 -0.23270492978E+03  0.19190121435E+03  0.64368234459E+02  0.95966997707E+03  0.90876043866E+03 0.  0.
         23    2    4    4    0    0  0.34129153313E+03  0.41100847829E+02  0.63955572207E+01  0.35657805533E+03  0.94540023869E+02 0.  0.
         23    2    4    4    0    0 -0.57399646291E+03  0.15080036652E+03  0.57972677239E+02  0.60309192174E+03  0.90257103759E+02 0.  0.
          3    1    3    3  502    0  0.21472842665E+03 -0.16379128552E+03  0.34978758343E+03  0.44191315430E+03  0.00000000000E+00 0. -1.
         -4    1    3    3    0  502  0.17976503131E+02 -0.28109928828E+02  0.10095434851E+03  0.10632545907E+03  0.00000000000E+00 0.  1.
         13    1    5    5    0    0  0.11085232199E+03  0.48987067712E+01 -0.41461737775E+02  0.11845383201E+03  0.00000000000E+00 0. -1.
        -13    1    5    5    0    0  0.23043921114E+03  0.36202141058E+02  0.47857294995E+02  0.23812422332E+03  0.00000000000E+00 0.  1.
          3    1    6    6  503    0 -0.34603515841E+03  0.67932886484E+02 -0.43122684254E+01  0.35266670325E+03  0.00000000000E+00 0. -1.
         -3    1    6    6    0  503 -0.22796130451E+03  0.82867480036E+02  0.62284945664E+02  0.25042521849E+03  0.00000000000E+00 0.  1.
<mgrwt>
<rscale>  0 0.14171979E+04</rscale>
<asrwt>0</asrwt>
<pdfrwt beam="1">  1        1 0.15561683E+00 0.14171979E+04</pdfrwt>
<pdfrwt beam="2">  1       -2 0.76369110E-01 0.14171979E+04</pdfrwt>
<totfact> 0.19408009E+01</totfact>
</mgrwt>
</event>
<event>
12    5  0.5029243E-008  0.2223780E+04  0.7818608E-02  0.8508595E-01
         -2   -1    0    0    0  501 -0.00000000000E+00  0.00000000000E+00  0.11522283332E+04  0.11522283332E+04  0.00000000000E+00 0.  1.
          1   -1    0    0  501    0  0.00000000000E+00 -0.00000000000E+00 -0.10729638734E+04  0.10729638734E+04  0.00000000000E+00 0. -1.
        -24    2    1    2    0    0 -0.68939666815E+03 -0.50008327797E+03 -0.21849873932E+02  0.85571345877E+03  0.80106526304E+02 0.  0.
        254    2    1    2    0    0  0.68939666815E+03  0.50008327797E+03  0.10111433374E+03  0.13694787479E+04  0.10676595344E+04 0.  0.
         23    2    4    4    0    0  0.48017849785E+03 -0.64799168126E+02  0.44969305288E+03  0.66760701199E+03  0.93300367979E+02 0.  0.
         23    2    4    4    0    0  0.20921817031E+03  0.56488244610E+03 -0.34857871914E+03  0.70187173587E+03  0.90842663335E+02 0.  0.
          1    1    3    3  502    0 -0.84431510520E+02 -0.36240385848E+02  0.11887623560E+02  0.92646430741E+02  0.00000000000E+00 0. -1.
         -2    1    3    3    0  502 -0.60496515763E+03 -0.46384289212E+03 -0.33737497491E+02  0.76306702803E+03  0.00000000000E+00 0.  1.
         13    1    5    5    0    0  0.48340363177E+03 -0.61272398176E+02  0.44931969356E+03  0.66281337117E+03  0.00000000000E+00 0. -1.
        -13    1    5    5    0    0 -0.32251339235E+01 -0.35267699503E+01  0.37335932411E+00  0.47936408180E+01  0.00000000000E+00 0.  1.
          3    1    6    6  503    0  0.17079269154E+03  0.49613409765E+03 -0.33338064270E+03  0.62166054987E+03  0.00000000000E+00 0. -1.
         -3    1    6    6    0  503  0.38425478762E+02  0.68748348449E+02 -0.15198076438E+02  0.80211186003E+02  0.00000000000E+00 0.  1.
<mgrwt>
<rscale>  0 0.22237800E+04</rscale>
<asrwt>0</asrwt>
<pdfrwt beam="1">  1        1 0.16507136E+00 0.22237800E+04</pdfrwt>
<pdfrwt beam="2">  1       -2 0.17726590E+00 0.22237800E+04</pdfrwt>
<totfact> 0.20087754E+00</totfact>
</mgrwt>
</event>
<event>
12    5  0.5029243E-008  0.2651357E+04  0.7818608E-02  0.8350963E-01
          1   -1    0    0  501    0  0.00000000000E+00  0.00000000000E+00  0.10274079857E+04  0.10274079857E+04  0.00000000000E+00 0. -1.
         -2   -1    0    0    0  501 -0.00000000000E+00 -0.00000000000E+00 -0.17105410703E+04  0.17105410703E+04  0.00000000000E+00 0.  1.
        -24    2    1    2    0    0 -0.34615963813E+03 -0.94542223441E+02 -0.14559033524E+04  0.15016189884E+04  0.80251402331E+02 0.  0.
        254    2    1    2    0    0  0.34615963813E+03  0.94542223441E+02  0.77277026781E+03  0.12363300676E+04  0.89586462271E+03 0.  0.
         23    2    4    4    0    0 -0.29619872840E+03  0.96515564569E+01  0.26972852818E+03  0.41083225005E+03  0.90569418239E+02 0.  0.
         23    2    4    4    0    0  0.64235836653E+03  0.84890666984E+02  0.50304173962E+03  0.82549781757E+03  0.92547061646E+02 0.  0.
          3    1    3    3  502    0 -0.21426241325E+02 -0.28765589784E+02 -0.12039192177E+03  0.12562148622E+03  0.00000000000E+00 0. -1.
         -4    1    3    3    0  502 -0.32473339680E+03 -0.65776633657E+02 -0.13355114307E+04  0.13759975022E+04  0.00000000000E+00 0.  1.
         13    1    5    5    0    0 -0.13390640275E+03  0.45290491311E+02  0.14942269660E+03  0.20569223505E+03  0.00000000000E+00 0. -1.
        -13    1    5    5    0    0 -0.16229232565E+03 -0.35638934854E+02  0.12030583158E+03  0.20514001500E+03  0.00000000000E+00 0.  1.
          2    1    6    6  503    0  0.56434606257E+02 -0.38581851140E+01  0.77421439696E+02  0.95884460161E+02  0.00000000000E+00 0. -1.
         -2    1    6    6    0  503  0.58592376027E+03  0.88748852098E+02  0.42562029993E+03  0.72961335741E+03  0.00000000000E+00 0.  1.
<mgrwt>
<rscale>  0 0.26513571E+04</rscale>
<asrwt>0</asrwt>
<pdfrwt beam="1">  1        1 0.15806277E+00 0.26513571E+04</pdfrwt>
<pdfrwt beam="2">  1       -2 0.26316016E+00 0.26513571E+04</pdfrwt>
<totfact> 0.59129322E-01</totfact>
</mgrwt>
</event>
<event>
12    5  0.5029243E-008  0.1820314E+04  0.7818608E-02  0.8695571E-01
         -2   -1    0    0    0  501 -0.00000000000E+00  0.00000000000E+00  0.68197615894E+03  0.68197615894E+03  0.00000000000E+00 0.  1.
          1   -1    0    0  501    0  0.00000000000E+00 -0.00000000000E+00 -0.12146843921E+04  0.12146843921E+04  0.00000000000E+00 0. -1.
        -24    2    1    2    0    0 -0.24776786374E+02 -0.50323024760E+03  0.28079668016E+03  0.58206306602E+03  0.78077307797E+02 0.  0.
        254    2    1    2    0    0  0.24776786374E+02  0.50323024760E+03 -0.81350491328E+03  0.13145974850E+04  0.90139987373E+03 0.  0.
         23    2    4    4    0    0  0.32380932673E+03  0.66012441075E+02 -0.68044702279E+03  0.76143464669E+03  0.86973834621E+02 0.  0.
         23    2    4    4    0    0 -0.29903254035E+03  0.43721780652E+03 -0.13305789049E+03  0.55316283830E+03  0.87777291601E+02 0.  0.
          1    1    3    3  502    0 -0.41635172098E+02 -0.23082051632E+03  0.10188639101E+03  0.25571944584E+03  0.00000000000E+00 0. -1.
         -2    1    3    3    0  502  0.16858385724E+02 -0.27240973127E+03  0.17891028915E+03  0.32634362017E+03  0.00000000000E+00 0.  1.
         13    1    5    5    0    0  0.18572553081E+03  0.39991091661E+02 -0.48362145214E+03  0.51959885409E+03  0.00000000000E+00 0.  1.
        -13    1    5    5    0    0  0.13808379591E+03  0.26021349414E+02 -0.19682557065E+03  0.24183579260E+03  0.00000000000E+00 0. -1.
          1    1    6    6  503    0 -0.55884493215E+02  0.47741335005E+02 -0.43368179127E+02  0.85341142544E+02  0.00000000000E+00 0. -1.
         -1    1    6    6    0  503 -0.24314804714E+03  0.38947647152E+03 -0.89689711362E+02  0.46782169575E+03  0.00000000000E+00 0.  1.
<mgrwt>
<rscale>  0 0.18203140E+04</rscale>
<asrwt>0</asrwt>
<pdfrwt beam="1">  1        1 0.18687452E+00 0.18203140E+04</pdfrwt>
<pdfrwt beam="2">  1       -2 0.10491941E+00 0.18203140E+04</pdfrwt>
<totfact> 0.63436422E+00</totfact>
</mgrwt>
</event>
<event>
12    5  0.5029243E-008  0.1804705E+04  0.7818608E-02  0.8703802E-01
         -2   -1    0    0    0  501 -0.00000000000E+00  0.00000000000E+00  0.14894649392E+04  0.14894649392E+04  0.00000000000E+00 0.  1.
          1   -1    0    0  501    0  0.00000000000E+00 -0.00000000000E+00 -0.54666595933E+03  0.54666595933E+03  0.00000000000E+00 0. -1.
        -24    2    1    2    0    0  0.45203972966E+03  0.46531077591E+03  0.55310949297E+03  0.85611317451E+03  0.78394011092E+02 0.  0.
        254    2    1    2    0    0 -0.45203972966E+03 -0.46531077591E+03  0.38968948694E+03  0.11800177241E+04  0.90538936237E+03 0.  0.
         23    2    4    4    0    0  0.22420279401E+03  0.59040438343E+02  0.12384684950E+03  0.27854822058E+03  0.92186782454E+02 0.  0.
         23    2    4    4    0    0 -0.67624252367E+03 -0.52435121426E+03  0.26584263745E+03  0.90146950348E+03  0.98624596885E+02 0.  0.
          1    1    3    3  502    0 -0.29097164523E+01  0.23692581982E+01  0.75302991982E+00  0.38271253314E+01  0.00000000000E+00 0. -1.
         -2    1    3    3    0  502  0.45494944612E+03  0.46294151772E+03  0.55235646305E+03  0.85228604917E+03  0.00000000000E+00 0.  1.
         13    1    5    5    0    0  0.86237719414E+02  0.26407629414E+02 -0.16666130166E+00  0.90190547825E+02  0.00000000000E+00 0.  1.
        -13    1    5    5    0    0  0.13796507459E+03  0.32632808928E+02  0.12401351080E+03  0.18835767276E+03  0.00000000000E+00 0. -1.
          2    1    6    6  503    0 -0.46185580311E+03 -0.32202362374E+03  0.13525232310E+03  0.57905370046E+03  0.00000000000E+00 0. -1.
         -2    1    6    6    0  503 -0.21438672056E+03 -0.20232759051E+03  0.13059031435E+03  0.32241580302E+03  0.00000000000E+00 0.  1.
<mgrwt>
<rscale>  0 0.18047047E+04</rscale>
<asrwt>0</asrwt>
<pdfrwt beam="1">  1        1 0.84102456E-01 0.18047047E+04</pdfrwt>
<pdfrwt beam="2">  1       -2 0.22914845E+00 0.18047047E+04</pdfrwt>
<totfact> 0.27943567E+00</totfact>
</mgrwt>
</event>
<event>
12    5  0.5029243E-008  0.1360611E+04  0.7818608E-02  0.8982835E-01
         -2   -1    0    0    0  501 -0.00000000000E+00  0.00000000000E+00  0.35428777502E+03  0.35428777502E+03  0.00000000000E+00 0.  1.
          1   -1    0    0  501    0  0.00000000000E+00 -0.00000000000E+00 -0.13063260268E+04  0.13063260268E+04  0.00000000000E+00 0. -1.
        -24    2    1    2    0    0  0.26539115865E+03  0.22031288785E+03 -0.44313583367E+03  0.56420547451E+03  0.54664565679E+02 0.  0.
        254    2    1    2    0    0 -0.26539115865E+03 -0.22031288785E+03 -0.50890241811E+03  0.10964083273E+04  0.90783220552E+03 0.  0.
         23    2    4    4    0    0 -0.50933046568E+02 -0.40083297919E+03 -0.65125955784E+03  0.77128836743E+03  0.86518677908E+02 0.  0.
         23    2    4    4    0    0 -0.21445811208E+03  0.18052009134E+03  0.14235713972E+03  0.32511995987E+03  0.82810916321E+02 0.  0.
          1    1    3    3  502    0  0.20879069966E+03  0.19174757394E+03 -0.33491633478E+03  0.43878199562E+03  0.00000000000E+00 0. -1.
         -4    1    3    3    0  502  0.56600458996E+02  0.28565313906E+02 -0.10821949890E+03  0.12542347890E+03  0.00000000000E+00 0.  1.
         13    1    5    5    0    0 -0.62593104492E+02 -0.16506270809E+03 -0.25781747304E+03  0.31246350785E+03  0.00000000000E+00 0. -1.
        -13    1    5    5    0    0  0.11660057924E+02 -0.23577027110E+03 -0.39344208479E+03  0.45882485958E+03  0.00000000000E+00 0.  1.
          1    1    6    6  503    0 -0.38330309013E+02  0.62617106893E+02  0.69231451321E+02  0.10091138943E+03  0.00000000000E+00 0. -1.
         -1    1    6    6    0  503 -0.17612780307E+03  0.11790298445E+03  0.73125688404E+02  0.22420857044E+03  0.00000000000E+00 0.  1.
<mgrwt>
<rscale>  0 0.13606107E+04</rscale>
<asrwt>0</asrwt>
<pdfrwt beam="1">  1        1 0.20097324E+00 0.13606107E+04</pdfrwt>
<pdfrwt beam="2">  1       -2 0.54505811E-01 0.13606107E+04</pdfrwt>
<totfact> 0.24328365E+01</totfact>
</mgrwt>
</event>
<event>
12    5  0.5029243E-008  0.1675239E+04  0.7818608E-02  0.8775614E-01
          1   -1    0    0  501    0  0.00000000000E+00  0.00000000000E+00  0.18865207494E+04  0.18865207494E+04  0.00000000000E+00 0. -1.
         -2   -1    0    0    0  501 -0.00000000000E+00 -0.00000000000E+00 -0.37190511459E+03  0.37190511459E+03  0.00000000000E+00 0.  1.
        -24    2    1    2    0    0  0.32533793150E+03 -0.14915023721E+03  0.11840314056E+04  0.12394711711E+04  0.79169765068E+02 0.  0.
        254    2    1    2    0    0 -0.32533793150E+03  0.14915023721E+03  0.33058422924E+03  0.10189546929E+04  0.89492579054E+03 0.  0.
         23    2    4    4    0    0 -0.97073624026E+02  0.50937839117E+03  0.20563354651E+03  0.56538586440E+03  0.92121584564E+02 0.  0.
         23    2    4    4    0    0 -0.22826430748E+03 -0.36022815396E+03  0.12495068273E+03  0.45356882847E+03  0.90791475797E+02 0.  0.
          1    1    3    3  502    0  0.30422492751E+03 -0.12811904937E+03  0.11356070564E+04  0.11826118060E+04  0.00000000000E+00 0. -1.
         -2    1    3    3    0  502  0.21113003997E+02 -0.21031187837E+02  0.48424349194E+02  0.56859365056E+02  0.00000000000E+00 0.  1.
         13    1    5    5    0    0 -0.75115611815E+02  0.49283564986E+03  0.20092053333E+03  0.53749269170E+03  0.00000000000E+00 0. -1.
        -13    1    5    5    0    0 -0.21958012211E+02  0.16542741302E+02  0.47130131789E+01  0.27893172700E+02  0.00000000000E+00 0.  1.
          1    1    6    6  503    0 -0.17380773048E+03 -0.28408461760E+03  0.56963972593E+02  0.33787289224E+03  0.00000000000E+00 0. -1.
         -1    1    6    6    0  503 -0.54456576993E+02 -0.76143536351E+02  0.67986710141E+02  0.11569593624E+03  0.00000000000E+00 0.  1.
<mgrwt>
<rscale>  0 0.16752393E+04</rscale>
<asrwt>0</asrwt>
<pdfrwt beam="1">  1        1 0.29023396E+00 0.16752393E+04</pdfrwt>
<pdfrwt beam="2">  1       -2 0.57216172E-01 0.16752393E+04</pdfrwt>
<totfact> 0.85285484E+00</totfact>
</mgrwt>
</event>
<event>
12    5  0.5029243E-008  0.1574869E+04  0.7818608E-02  0.8836138E-01
          1   -1    0    0  501    0  0.00000000000E+00  0.00000000000E+00  0.32707825885E+04  0.32707825885E+04  0.00000000000E+00 0. -1.
         -2   -1    0    0    0  501 -0.00000000000E+00 -0.00000000000E+00 -0.18957319514E+03  0.18957319514E+03  0.00000000000E+00 0.  1.
        -24    2    1    2    0    0 -0.24323582851E+03 -0.79017098188E+02  0.30810738130E+02  0.26910343121E+03  0.77845905654E+02 0.  0.
        254    2    1    2    0    0  0.24323582851E+03  0.79017098188E+02  0.30503986552E+04  0.31912523524E+04  0.90208217526E+03 0.  0.
         23    2    4    4    0    0  0.32255307631E+03  0.39649620846E+03  0.11661358024E+04  0.12765814487E+04  0.92399974272E+02 0.  0.
         23    2    4    4    0    0 -0.79317247804E+02 -0.31747911028E+03  0.18842628529E+04  0.19146709037E+04  0.91836591845E+02 0.  0.
          1    1    3    3  502    0 -0.36071888338E+01 -0.19703759673E+02 -0.17389569791E+01  0.20106564299E+02  0.00000000000E+00 0. -1.
         -2    1    3    3    0  502 -0.23962863968E+03 -0.59313338515E+02  0.32549695109E+02  0.24899686691E+03  0.00000000000E+00 0.  1.
         13    1    5    5    0    0 -0.50275286716E+01  0.51863825342E+01  0.69074199939E+01  0.99943513700E+01  0.00000000000E+00 0. -1.
        -13    1    5    5    0    0  0.32758060499E+03  0.39130982593E+03  0.11592283824E+04  0.12665870973E+04  0.00000000000E+00 0.  1.
          1    1    6    6  503    0 -0.71401493309E+02 -0.10620268641E+03  0.66174935488E+03  0.67400993504E+03  0.00000000000E+00 0. -1.
         -1    1    6    6    0  503 -0.79157544953E+01 -0.21127642387E+03  0.12225134980E+04  0.12406609687E+04  0.00000000000E+00 0.  1.
<mgrwt>
<rscale>  0 0.15748685E+04</rscale>
<asrwt>0</asrwt>
<pdfrwt beam="1">  1        1 0.50319728E+00 0.15748685E+04</pdfrwt>
<pdfrwt beam="2">  1       -2 0.29165109E-01 0.15748685E+04</pdfrwt>
<totfact> 0.34569445E+00</totfact>
</mgrwt>
</event>
<event>
12    5  0.5029243E-008  0.1601583E+04  0.7818608E-02  0.8819576E-01
          1   -1    0    0  501    0  0.00000000000E+00  0.00000000000E+00  0.60342782981E+03  0.60342782981E+03  0.00000000000E+00 0. -1.
         -2   -1    0    0    0  501 -0.00000000000E+00 -0.00000000000E+00 -0.10627074254E+04  0.10627074254E+04  0.00000000000E+00 0.  1.
        -24    2    1    2    0    0 -0.31629680253E+03  0.12429651848E+02  0.26904947042E+03  0.42365108905E+03  0.83032910276E+02 0.  0.
        254    2    1    2    0    0  0.31629680253E+03 -0.12429651848E+02 -0.72832906598E+03  0.12424841661E+04  0.95556554521E+03 0.  0.
         23    2    4    4    0    0 -0.32868484944E+03  0.21526740145E+02 -0.16628811357E+03  0.38142243413E+03  0.96613693354E+02 0.  0.
         23    2    4    4    0    0  0.64498165197E+03 -0.33956391993E+02 -0.56204095241E+03  0.86106173200E+03  0.91558212067E+02 0.  0.
          3    1    3    3  502    0 -0.31839316777E+03  0.15460002303E+02  0.27191117006E+03  0.41898556701E+03  0.00000000000E+00 0. -1.
         -4    1    3    3    0  502  0.20963652441E+01 -0.30303504554E+01 -0.28616996435E+01  0.46655220468E+01  0.00000000000E+00 0.  1.
         13    1    5    5    0    0 -0.97501643487E+02  0.44625413615E+02 -0.79182802322E+02  0.13329633981E+03  0.00000000000E+00 0.  1.
        -13    1    5    5    0    0 -0.23118320596E+03 -0.23098673470E+02 -0.87105311250E+02  0.24812609432E+03  0.00000000000E+00 0. -1.
          3    1    6    6  503    0  0.11710733345E+03  0.20553837653E+02 -0.13502281505E+03  0.17991038984E+03  0.00000000000E+00 0. -1.
         -3    1    6    6    0  503  0.52787431852E+03 -0.54510229646E+02 -0.42701813736E+03  0.68115134216E+03  0.00000000000E+00 0.  1.
<mgrwt>
<rscale>  0 0.16015833E+04</rscale>
<asrwt>0</asrwt>
<pdfrwt beam="1">  1        1 0.92835051E-01 0.16015833E+04</pdfrwt>
<pdfrwt beam="2">  1       -2 0.16349345E+00 0.16015833E+04</pdfrwt>
<totfact> 0.67664958E+00</totfact>
</mgrwt>
</event>
<event>
12    5  0.5029243E-008  0.2122503E+04  0.7818608E-02  0.8551395E-01
         -2   -1    0    0    0  501 -0.00000000000E+00  0.00000000000E+00  0.55086139981E+03  0.55086139981E+03  0.00000000000E+00 0.  1.
          1   -1    0    0  501    0  0.00000000000E+00 -0.00000000000E+00 -0.20445340409E+04  0.20445340409E+04  0.00000000000E+00 0. -1.
        -24    2    1    2    0    0 -0.64523260183E+03 -0.51420495715E+03 -0.70165755008E+03  0.10859199306E+04  0.78529801559E+02 0.  0.
        254    2    1    2    0    0  0.64523260183E+03  0.51420495715E+03 -0.79201509102E+03  0.15094755101E+04  0.98513783946E+03 0.  0.
         23    2    4    4    0    0  0.45766946119E+03  0.29361132514E+03 -0.10010974021E+04  0.11424136748E+04  0.85111984819E+02 0.  0.
         23    2    4    4    0    0  0.18756314065E+03  0.22059363201E+03  0.20908231105E+03  0.36706183531E+03  0.84720103483E+02 0.  0.
          1    1    3    3  502    0 -0.57187947701E+02 -0.24259834408E+02 -0.69476307196E+02  0.93198488128E+02  0.00000000000E+00 0. -1.
         -2    1    3    3    0  502 -0.58804465413E+03 -0.48994512275E+03 -0.63218124289E+03  0.99272144251E+03  0.00000000000E+00 0.  1.
         13    1    5    5    0    0  0.44198058214E+03  0.29722837933E+03 -0.98415722646E+03  0.11190428905E+04  0.00000000000E+00 0.  1.
        -13    1    5    5    0    0  0.15688879049E+02 -0.36170541909E+01 -0.16940175603E+02  0.23370784247E+02  0.00000000000E+00 0. -1.
          2    1    6    6  503    0  0.66536113722E+02  0.40575673827E+02  0.22977731864E+02  0.81249097825E+02  0.00000000000E+00 0. -1.
         -2    1    6    6    0  503  0.12102702692E+03  0.18001795819E+03  0.18610457918E+03  0.28581273748E+03  0.00000000000E+00 0.  1.
<mgrwt>
<rscale>  0 0.21225031E+04</rscale>
<asrwt>0</asrwt>
<pdfrwt beam="1">  1        1 0.31454370E+00 0.21225031E+04</pdfrwt>
<pdfrwt beam="2">  1       -2 0.84747908E-01 0.21225031E+04</pdfrwt>
<totfact> 0.27184374E+00</totfact>
</mgrwt>
</event>
<event>
12    5  0.5029243E-008  0.1509572E+04  0.7818608E-02  0.8878113E-01
          1   -1    0    0  501    0  0.00000000000E+00  0.00000000000E+00  0.17152124503E+04  0.17152124503E+04  0.00000000000E+00 0. -1.
         -2   -1    0    0    0  501 -0.00000000000E+00 -0.00000000000E+00 -0.33214636671E+03  0.33214636671E+03  0.00000000000E+00 0.  1.
        -24    2    1    2    0    0  0.30599653806E+02  0.52387745108E+03  0.55576643595E+03  0.76823716985E+03  0.76994124776E+02 0.  0.
        254    2    1    2    0    0 -0.30599653806E+02 -0.52387745108E+03  0.82729964762E+03  0.12791216471E+04  0.82240109354E+03 0.  0.
         23    2    4    4    0    0 -0.28293173450E+03  0.26250395229E+01  0.55081745960E+03  0.62605312639E+03  0.92116155158E+02 0.  0.
         23    2    4    4    0    0  0.25233208070E+03 -0.52650249060E+03  0.27648218802E+03  0.65306852074E+03  0.95810964598E+02 0.  0.
          3    1    3    3  502    0  0.24128502568E+02  0.50574137038E+03  0.55119359450E+03  0.74844565398E+03  0.00000000000E+00 0. -1.
         -4    1    3    3    0  502  0.64711512378E+01  0.18136080698E+02  0.45728414538E+01  0.19791515869E+02  0.00000000000E+00 0.  1.
         13    1    5    5    0    0 -0.97064576746E+02 -0.52824499585E+01  0.10559407242E+03  0.14352541401E+03  0.00000000000E+00 0. -1.
        -13    1    5    5    0    0 -0.18586715776E+03  0.79074894814E+01  0.44522338719E+03  0.48252771239E+03  0.00000000000E+00 0.  1.
          3    1    6    6  503    0  0.40336668625E+02 -0.51463253952E+02  0.62908477831E+02  0.90735824932E+02  0.00000000000E+00 0. -1.
         -3    1    6    6    0  503  0.21199541207E+03 -0.47503923665E+03  0.21357371018E+03  0.56233269581E+03  0.00000000000E+00 0.  1.
<mgrwt>
<rscale>  0 0.15095716E+04</rscale>
<asrwt>0</asrwt>
<pdfrwt beam="1">  1        1 0.26387883E+00 0.15095716E+04</pdfrwt>
<pdfrwt beam="2">  1       -2 0.51099442E-01 0.15095716E+04</pdfrwt>
<totfact> 0.14290381E+01</totfact>
</mgrwt>
</event>
<event>
12    5  0.5029243E-008  0.1431083E+04  0.7818608E-02  0.8931621E-01
          1   -1    0    0  501    0  0.00000000000E+00  0.00000000000E+00  0.11359688055E+04  0.11359688055E+04  0.00000000000E+00 0. -1.
         -2   -1    0    0    0  501 -0.00000000000E+00 -0.00000000000E+00 -0.45071659370E+03  0.45071659370E+03  0.00000000000E+00 0.  1.
        -24    2    1    2    0    0 -0.22854711415E+03 -0.13317424089E+03 -0.16114427762E+03  0.31946556676E+03  0.78240707507E+02 0.  0.
        254    2    1    2    0    0  0.22854711415E+03  0.13317424089E+03  0.84639648947E+03  0.12672198325E+04  0.90525682798E+03 0.  0.
         23    2    4    4    0    0  0.49224529564E+03  0.14240094334E+03  0.19007133410E+03  0.55408388930E+03  0.91095469645E+02 0.  0.
         23    2    4    4    0    0 -0.26369818149E+03 -0.92267024506E+01  0.65632515537E+03  0.71313594317E+03  0.90433958879E+02 0.  0.
          3    1    3    3  502    0 -0.13690167822E+03 -0.77841320194E+02 -0.50197674795E+02  0.16529109832E+03  0.00000000000E+00 0. -1.
         -4    1    3    3    0  502 -0.91645435933E+02 -0.55332920700E+02 -0.11094660283E+03  0.15417446844E+03  0.00000000000E+00 0.  1.
         13    1    5    5    0    0  0.42477186342E+03  0.91350503397E+02  0.17362421056E+03  0.46789038985E+03  0.00000000000E+00 0. -1.
        -13    1    5    5    0    0  0.67473432226E+02  0.51050439948E+02  0.16447123546E+02  0.86193499455E+02  0.00000000000E+00 0.  1.
          3    1    6    6  503    0 -0.19173241604E+03  0.16600122561E+02  0.37360154476E+03  0.42025587167E+03  0.00000000000E+00 0. -1.
         -3    1    6    6    0  503 -0.71965765456E+02 -0.25826825012E+02  0.28272361061E+03  0.29288007151E+03  0.00000000000E+00 0.  1.
<mgrwt>
<rscale>  0 0.14310835E+04</rscale>
<asrwt>0</asrwt>
<pdfrwt beam="1">  1        1 0.17476443E+00 0.14310835E+04</pdfrwt>
<pdfrwt beam="2">  1       -2 0.69341015E-01 0.14310835E+04</pdfrwt>
<totfact> 0.19288299E+01</totfact>
</mgrwt>
</event>
<event>
12    5  0.5029243E-008  0.2103162E+04  0.7818608E-02  0.8559852E-01
          1   -1    0    0  501    0  0.00000000000E+00  0.00000000000E+00  0.18716315178E+04  0.18716315178E+04  0.00000000000E+00 0. -1.
         -2   -1    0    0    0  501 -0.00000000000E+00 -0.00000000000E+00 -0.59083363785E+03  0.59083363785E+03  0.00000000000E+00 0.  1.
        -24    2    1    2    0    0 -0.56441752630E+03  0.14575940195E+03  0.12323610018E+04  0.13653873542E+04  0.75868576303E+02 0.  0.
        254    2    1    2    0    0  0.56441752630E+03 -0.14575940195E+03  0.48436878162E+02  0.10970778015E+04  0.92812748269E+03 0.  0.
         23    2    4    4    0    0 -0.13267077718E+03 -0.42716675842E+02  0.30007312350E+03  0.34324664260E+03  0.91368094535E+02 0.  0.
         23    2    4    4    0    0  0.69708830348E+03 -0.10304272611E+03 -0.25163624534E+03  0.75383115890E+03  0.91600818296E+02 0.  0.
          1    1    3    3  502    0 -0.29739461900E+03  0.46494041446E+02  0.68881472104E+03  0.75171202946E+03  0.00000000000E+00 0. -1.
         -2    1    3    3    0  502 -0.26702290730E+03  0.99265360506E+02  0.54354628076E+03  0.61367532470E+03  0.00000000000E+00 0.  1.
         13    1    5    5    0    0 -0.63989452713E+02 -0.19324967192E+02  0.51733094759E+02  0.84524656218E+02  0.00000000000E+00 0. -1.
        -13    1    5    5    0    0 -0.68681324466E+02 -0.23391708650E+02  0.24834002874E+03  0.25872198638E+03  0.00000000000E+00 0.  1.
          1    1    6    6  503    0 -0.24305664386E+01  0.18296048707E+01  0.73584355007E-01  0.30431105554E+01  0.00000000000E+00 0. -1.
         -1    1    6    6    0  503  0.69951886992E+03 -0.10487233098E+03 -0.25170982969E+03  0.75078804835E+03  0.00000000000E+00 0.  1.
<mgrwt>
<rscale>  0 0.21031622E+04</rscale>
<asrwt>0</asrwt>
<pdfrwt beam="1">  1        1 0.28794331E+00 0.21031622E+04</pdfrwt>
<pdfrwt beam="2">  1       -2 0.90897484E-01 0.21031622E+04</pdfrwt>
<totfact> 0.30372960E+00</totfact>
</mgrwt>
</event>
<event>
12    5  0.5029243E-008  0.1876129E+04  0.7818608E-02  0.8666830E-01
         -2   -1    0    0    0  501 -0.00000000000E+00  0.00000000000E+00  0.32484348187E+03  0.32484348187E+03  0.00000000000E+00 0.  1.
          1   -1    0    0  501    0  0.00000000000E+00 -0.00000000000E+00 -0.27088898719E+04  0.27088898719E+04  0.00000000000E+00 0. -1.
        -24    2    1    2    0    0  0.61859353047E+03  0.30927285297E+03 -0.58804712494E+03  0.91134355606E+03  0.80249626271E+02 0.  0.
        254    2    1    2    0    0 -0.61859353047E+03 -0.30927285297E+03 -0.17959992651E+04  0.21223897977E+04  0.89477228372E+03 0.  0.
         23    2    4    4    0    0  0.20757119308E+03 -0.50085864649E+02 -0.59012305642E+03  0.63467185285E+03  0.94703458473E+02 0.  0.
         23    2    4    4    0    0 -0.82616472354E+03 -0.25918698832E+03 -0.12058762087E+04  0.14877179449E+04  0.97165876142E+02 0.  0.
          1    1    3    3  502    0  0.20642201848E+03  0.79429206375E+02 -0.22891278111E+03  0.31830819954E+03  0.00000000000E+00 0. -1.
         -2    1    3    3    0  502  0.41217151199E+03  0.22984364659E+03 -0.35913434382E+03  0.59303535652E+03  0.00000000000E+00 0.  1.
         13    1    5    5    0    0  0.19746962024E+03 -0.60452551597E+02 -0.46603522214E+03  0.50974267056E+03  0.00000000000E+00 0.  1.
        -13    1    5    5    0    0  0.10101572844E+02  0.10366686948E+02 -0.12408783428E+03  0.12492918229E+03  0.00000000000E+00 0. -1.
          4    1    6    6  503    0 -0.25998883738E+02 -0.24936564382E+02 -0.69591264021E+02  0.78362734937E+02  0.00000000000E+00 0. -1.
         -4    1    6    6    0  503 -0.80016583981E+03 -0.23425042394E+03 -0.11362849447E+04  0.14093552099E+04  0.00000000000E+00 0.  1.
<mgrwt>
<rscale>  0 0.18761292E+04</rscale>
<asrwt>0</asrwt>
<pdfrwt beam="1">  1        1 0.41675230E+00 0.18761292E+04</pdfrwt>
<pdfrwt beam="2">  1       -2 0.49975919E-01 0.18761292E+04</pdfrwt>
<totfact> 0.30217218E+00</totfact>
</mgrwt>
</event>
<event>
12    5  0.5029243E-008  0.2150828E+04  0.7818608E-02  0.8539178E-01
          1   -1    0    0  501    0  0.00000000000E+00  0.00000000000E+00  0.11633637297E+04  0.11633637297E+04  0.00000000000E+00 0. -1.
         -2   -1    0    0    0  501 -0.00000000000E+00 -0.00000000000E+00 -0.99411352429E+03  0.99411352429E+03  0.00000000000E+00 0.  1.
        -24    2    1    2    0    0 -0.65931060345E+03 -0.16353944433E+03 -0.50309683930E+03  0.84894480408E+03  0.78518972173E+02 0.  0.
        254    2    1    2    0    0  0.65931060345E+03  0.16353944433E+03  0.67234704474E+03  0.13085324499E+04  0.89373989631E+03 0.  0.
         23    2    4    4    0    0  0.31752248316E+03  0.35842299205E+03  0.75096395587E+03  0.89518129108E+03  0.90083918393E+02 0.  0.
         23    2    4    4    0    0  0.34178812030E+03 -0.19488354772E+03 -0.78616911125E+02  0.41335115885E+03  0.99397411716E+02 0.  0.
          1    1    3    3  502    0 -0.10249104816E+03 -0.55231690148E+02 -0.79457523654E+02  0.14095549870E+03  0.00000000000E+00 0. -1.
         -2    1    3    3    0  502 -0.55681955529E+03 -0.10830775418E+03 -0.42363931565E+03  0.70798930538E+03  0.00000000000E+00 0.  1.
         13    1    5    5    0    0  0.31809949493E+03  0.32844740411E+03  0.70265633850E+03  0.83832625867E+03  0.00000000000E+00 0. -1.
        -13    1    5    5    0    0 -0.57701177428E+00  0.29975587940E+02  0.48307617369E+02  0.56855032414E+02  0.00000000000E+00 0.  1.
          2    1    6    6  503    0  0.15186529102E+03 -0.77521675893E+02 -0.83896957193E+02  0.19002993521E+03  0.00000000000E+00 0. -1.
         -2    1    6    6    0  503  0.18992282927E+03 -0.11736187183E+03  0.52800460682E+01  0.22332122363E+03  0.00000000000E+00 0.  1.
<mgrwt>
<rscale>  0 0.21508283E+04</rscale>
<asrwt>0</asrwt>
<pdfrwt beam="1">  1        1 0.17897904E+00 0.21508283E+04</pdfrwt>
<pdfrwt beam="2">  1       -2 0.15294054E+00 0.21508283E+04</pdfrwt>
<totfact> 0.25982778E+00</totfact>
</mgrwt>
</event>
<event>
12    5  0.5029243E-008  0.1611155E+04  0.7818608E-02  0.8813724E-01
          1   -1    0    0  501    0  0.00000000000E+00  0.00000000000E+00  0.10660779056E+04  0.10660779056E+04  0.00000000000E+00 0. -1.
         -2   -1    0    0    0  501 -0.00000000000E+00 -0.00000000000E+00 -0.60873125628E+03  0.60873125628E+03  0.00000000000E+00 0.  1.
        -24    2    1    2    0    0  0.54822473078E+03  0.88684632137E-01  0.21829464622E+03  0.59552419732E+03  0.80287942570E+02 0.  0.
        254    2    1    2    0    0 -0.54822473078E+03 -0.88684632137E-01  0.23905200314E+03  0.10792849646E+04  0.89842073179E+03 0.  0.
         23    2    4    4    0    0 -0.31093979371E+03  0.13176962519E+02 -0.32614830512E+03  0.45988022660E+03  0.90884092325E+02 0.  0.
         23    2    4    4    0    0 -0.23728493707E+03 -0.13265647152E+02  0.56520030826E+03  0.61940473800E+03  0.87924525809E+02 0.  0.
          3    1    3    3  502    0  0.35268743501E+03 -0.45654543759E+01  0.98701422434E+02  0.36626662553E+03  0.00000000000E+00 0. -1.
         -4    1    3    3    0  502  0.19553729577E+03  0.46541390080E+01  0.11959322379E+03  0.22925757179E+03  0.00000000000E+00 0.  1.
         13    1    5    5    0    0 -0.20353247574E+03 -0.28841185099E+02 -0.23951139045E+03  0.31563109605E+03  0.00000000000E+00 0. -1.
        -13    1    5    5    0    0 -0.10740731797E+03  0.42018147618E+02 -0.86636914670E+02  0.14424913055E+03  0.00000000000E+00 0.  1.
          4    1    6    6  503    0 -0.11212627940E+03  0.32779679024E+02  0.31349189902E+03  0.33455041569E+03  0.00000000000E+00 0. -1.
         -4    1    6    6    0  503 -0.12515865767E+03 -0.46045326176E+02  0.25170840924E+03  0.28485432230E+03  0.00000000000E+00 0.  1.
<mgrwt>
<rscale>  0 0.16111548E+04</rscale>
<asrwt>0</asrwt>
<pdfrwt beam="1">  1        1 0.16401198E+00 0.16111548E+04</pdfrwt>
<pdfrwt beam="2">  1       -2 0.93650963E-01 0.16111548E+04</pdfrwt>
<totfact> 0.10897070E+01</totfact>
</mgrwt>
</event>
<event>
12    5  0.5029243E-008  0.1484027E+04  0.7818608E-02  0.8895144E-01
         -2   -1    0    0    0  501 -0.00000000000E+00  0.00000000000E+00  0.39474083713E+03  0.39474083713E+03  0.00000000000E+00 0.  1.
          1   -1    0    0  501    0  0.00000000000E+00 -0.00000000000E+00 -0.13947996887E+04  0.13947996887E+04  0.00000000000E+00 0. -1.
        -24    2    1    2    0    0 -0.85819073798E+02  0.31932158031E+03  0.77424155233E+02  0.34949199683E+03  0.82577060696E+02 0.  0.
        254    2    1    2    0    0  0.85819073798E+02 -0.31932158031E+03 -0.10774830068E+04  0.14400485290E+04  0.89634756143E+03 0.  0.
         23    2    4    4    0    0 -0.29565443249E+03 -0.11841894368E+03 -0.91060502187E+03  0.96871626429E+03  0.88176556866E+02 0.  0.
         23    2    4    4    0    0  0.38147350629E+03 -0.20090263663E+03 -0.16687798498E+03  0.47133226475E+03  0.91771109412E+02 0.  0.
          3    1    3    3  502    0  0.99066656612E+01  0.10023074575E+02  0.13406100316E+02  0.19450644569E+02  0.00000000000E+00 0. -1.
         -4    1    3    3    0  502 -0.95725739460E+02  0.30929850573E+03  0.64018054916E+02  0.33004135226E+03  0.00000000000E+00 0.  1.
         13    1    5    5    0    0 -0.27718131066E+03 -0.85876303858E+02 -0.84154372312E+03  0.89016855509E+03  0.00000000000E+00 0.  1.
        -13    1    5    5    0    0 -0.18473121825E+02 -0.32542639819E+02 -0.69061298745E+02  0.78547709201E+02  0.00000000000E+00 0. -1.
          1    1    6    6  503    0  0.46035073138E+02 -0.23928877084E+02 -0.55681042769E+02  0.76106488825E+02  0.00000000000E+00 0. -1.
         -1    1    6    6    0  503  0.33543843315E+03 -0.17697375955E+03 -0.11119694221E+03  0.39522577593E+03  0.00000000000E+00 0.  1.
<mgrwt>
<rscale>  0 0.14840275E+04</rscale>
<asrwt>0</asrwt>
<pdfrwt beam="1">  1        1 0.21458457E+00 0.14840275E+04</pdfrwt>
<pdfrwt beam="2">  1       -2 0.60729360E-01 0.14840275E+04</pdfrwt>
<totfact> 0.16620466E+01</totfact>
</mgrwt>
</event>
<event>
12    5  0.5029243E-008  0.1197462E+04  0.7818608E-02  0.9115081E-01
          1   -1    0    0  501    0  0.00000000000E+00  0.00000000000E+00  0.15968682077E+04  0.15968682077E+04  0.00000000000E+00 0. -1.
         -2   -1    0    0    0  501 -0.00000000000E+00 -0.00000000000E+00 -0.22448870388E+03  0.22448870388E+03  0.00000000000E+00 0.  1.
        -24    2    1    2    0    0  0.14654560272E+03  0.18326517301E+03  0.40966153133E+03  0.48027805980E+03  0.88219652895E+02 0.  0.
        254    2    1    2    0    0 -0.14654560272E+03 -0.18326517301E+03  0.96271797251E+03  0.13410788518E+04  0.90366191401E+03 0.  0.
         23    2    4    4    0    0  0.20163041889E+03  0.55673786732E+02  0.86818132263E+03  0.89791445329E+03  0.93579699258E+02 0.  0.
         23    2    4    4    0    0 -0.34817602161E+03 -0.23893895974E+03  0.94536649875E+02  0.44316439850E+03  0.95598835890E+02 0.  0.
          3    1    3    3  502    0  0.97194384502E+02  0.10727961499E+03  0.32708912551E+03  0.35769115197E+03  0.00000000000E+00 0. -1.
         -4    1    3    3    0  502  0.49351218218E+02  0.75985558023E+02  0.82572405813E+02  0.12258690782E+03  0.00000000000E+00 0.  1.
         13    1    5    5    0    0  0.49925995859E+02  0.58958960343E+02  0.30876953394E+03  0.31828821712E+03  0.00000000000E+00 0.  1.
        -13    1    5    5    0    0  0.15170442303E+03 -0.32851736107E+01  0.55941178869E+03  0.57962623617E+03  0.00000000000E+00 0. -1.
          2    1    6    6  503    0 -0.13528255974E+03 -0.71134565433E+02 -0.87091814155E+01  0.15309260991E+03  0.00000000000E+00 0. -1.
         -2    1    6    6    0  503 -0.21289346187E+03 -0.16780439431E+03  0.10324583129E+03  0.29007178859E+03  0.00000000000E+00 0.  1.
<mgrwt>
<rscale>  0 0.11974621E+04</rscale>
<asrwt>0</asrwt>
<pdfrwt beam="1">  1        1 0.24567203E+00 0.11974621E+04</pdfrwt>
<pdfrwt beam="2">  1       -2 0.34536725E-01 0.11974621E+04</pdfrwt>
<totfact> 0.38287542E+01</totfact>
</mgrwt>
</event>
<event>
12    5  0.5029243E-008  0.1388115E+04  0.7818608E-02  0.8962467E-01
         -2   -1    0    0    0  501 -0.00000000000E+00  0.00000000000E+00  0.55692400523E+03  0.55692400523E+03  0.00000000000E+00 0.  1.
          1   -1    0    0  501    0  0.00000000000E+00 -0.00000000000E+00 -0.86495778811E+03  0.86495778811E+03  0.00000000000E+00 0. -1.
        -24    2    1    2    0    0 -0.32062901399E+03  0.22982130167E+03 -0.19559914919E+03  0.44743864321E+03  0.79507967905E+02 0.  0.
        254    2    1    2    0    0  0.32062901399E+03 -0.22982130167E+03 -0.11243463370E+03  0.97444315013E+03  0.88389881246E+03 0.  0.
         23    2    4    4    0    0  0.21539769649E+03 -0.54444262350E+03  0.47591771995E+02  0.59461388839E+03  0.92123621109E+02 0.  0.
         23    2    4    4    0    0  0.10523131750E+03  0.31462132183E+03 -0.16002640570E+03  0.37982926174E+03  0.92744871693E+02 0.  0.
          1    1    3    3  502    0 -0.31234044866E+02  0.49841672494E+02 -0.48560215157E+02  0.76274847570E+02  0.00000000000E+00 0. -1.
         -2    1    3    3    0  502 -0.28939496913E+03  0.17997962918E+03 -0.14703893403E+03  0.37116379564E+03  0.00000000000E+00 0.  1.
         13    1    5    5    0    0  0.12729659860E+02 -0.12941485787E+03  0.23274404338E+02  0.13210581961E+03  0.00000000000E+00 0. -1.
        -13    1    5    5    0    0  0.20266803663E+03 -0.41502776563E+03  0.24317367657E+02  0.46250806878E+03  0.00000000000E+00 0.  1.
          1    1    6    6  503    0  0.22298598548E+02  0.48791296550E+02 -0.67867662038E+02  0.86509176778E+02  0.00000000000E+00 0. -1.
         -1    1    6    6    0  503  0.82932718953E+02  0.26583002528E+03 -0.92158743657E+02  0.29332008496E+03  0.00000000000E+00 0.  1.
<mgrwt>
<rscale>  0 0.13881149E+04</rscale>
<asrwt>0</asrwt>
<pdfrwt beam="1">  1        1 0.13307043E+00 0.13881149E+04</pdfrwt>
<pdfrwt beam="2">  1       -2 0.85680617E-01 0.13881149E+04</pdfrwt>
<totfact> 0.19689171E+01</totfact>
</mgrwt>
</event>
<event>
12    5  0.5029243E-008  0.1644246E+04  0.7818608E-02  0.8793818E-01
          1   -1    0    0  501    0  0.00000000000E+00  0.00000000000E+00  0.12994169978E+04  0.12994169978E+04  0.00000000000E+00 0. -1.
         -2   -1    0    0    0  501 -0.00000000000E+00 -0.00000000000E+00 -0.52014564745E+03  0.52014564745E+03  0.00000000000E+00 0.  1.
        -24    2    1    2    0    0  0.31179292759E+03  0.34137067854E+03 -0.10264503200E+03  0.48031852039E+03  0.80131819946E+02 0.  0.
        254    2    1    2    0    0 -0.31179292759E+03 -0.34137067854E+03  0.88191638237E+03  0.13392441249E+04  0.89557219177E+03 0.  0.
         23    2    4    4    0    0  0.14802652175E+03  0.35385472321E+02  0.68135403544E+03  0.70470601526E+03  0.95933641392E+02 0.  0.
         23    2    4    4    0    0 -0.45981944934E+03 -0.37675615086E+03  0.20056234694E+03  0.63453810962E+03  0.95048589401E+02 0.  0.
          3    1    3    3  502    0  0.12065344092E+03  0.17728829081E+03 -0.20830865877E+02  0.21545838540E+03  0.00000000000E+00 0. -1.
         -4    1    3    3    0  502  0.19113948667E+03  0.16408238773E+03 -0.81814166127E+02  0.26486013499E+03  0.00000000000E+00 0.  1.
         13    1    5    5    0    0  0.41927291641E+01 -0.14663071225E+02  0.15836032118E+02  0.21985553184E+02  0.00000000000E+00 0. -1.
        -13    1    5    5    0    0  0.14383379258E+03  0.50048543545E+02  0.66551800332E+03  0.68272046208E+03  0.00000000000E+00 0.  1.
          1    1    6    6  503    0 -0.20097559235E+03 -0.21039732264E+03  0.64082189660E+02  0.29793413555E+03  0.00000000000E+00 0.  1.
         -1    1    6    6    0  503 -0.25884385699E+03 -0.16635882822E+03  0.13648015728E+03  0.33660397407E+03  0.00000000000E+00 0. -1.
<mgrwt>
<rscale>  0 0.16442458E+04</rscale>
<asrwt>0</asrwt>
<pdfrwt beam="1">  1        1 0.19991031E+00 0.16442458E+04</pdfrwt>
<pdfrwt beam="2">  1       -2 0.80022407E-01 0.16442458E+04</pdfrwt>
<totfact> 0.10490103E+01</totfact>
</mgrwt>
</event>
<event>
12    5  0.5029243E-008  0.1654316E+04  0.7818608E-02  0.8787857E-01
         -2   -1    0    0    0  501 -0.00000000000E+00  0.00000000000E+00  0.38458834221E+03  0.38458834221E+03  0.00000000000E+00 0.  1.
          1   -1    0    0  501    0  0.00000000000E+00 -0.00000000000E+00 -0.17790208357E+04  0.17790208357E+04  0.00000000000E+00 0. -1.
        -24    2    1    2    0    0 -0.51640755545E+03 -0.31772605457E+03 -0.54837133122E+03  0.82152534075E+03  0.81031842531E+02 0.  0.
        254    2    1    2    0    0  0.51640755545E+03  0.31772605457E+03 -0.84606116225E+03  0.13420838371E+04  0.84719710018E+03 0.  0.
         23    2    4    4    0    0  0.30049209779E+03  0.54687484984E+03 -0.78897372510E+03  0.10099717257E+04  0.90530357125E+02 0.  0.
         23    2    4    4    0    0  0.21591545766E+03 -0.22914879527E+03 -0.57087437151E+02  0.33211211146E+03  0.88942812349E+02 0.  0.
          3    1    3    3  502    0 -0.18430118391E+03 -0.92497937137E+02 -0.14167010733E+03  0.25018635869E+03  0.00000000000E+00 0. -1.
         -4    1    3    3    0  502 -0.33210637154E+03 -0.22522811744E+03 -0.40670122389E+03  0.57133898205E+03  0.00000000000E+00 0.  1.
         13    1    5    5    0    0  0.53922035348E+01  0.33014166150E+02 -0.19317835288E+02  0.38628872437E+02  0.00000000000E+00 0.  1.
        -13    1    5    5    0    0  0.29509989426E+03  0.51386068369E+03 -0.76965588981E+03  0.97134285325E+03  0.00000000000E+00 0. -1.
          3    1    6    6  503    0  0.10418778900E+03 -0.17308895109E+03 -0.30559486854E+02  0.20432513943E+03  0.00000000000E+00 0. -1.
         -3    1    6    6    0  503  0.11172766866E+03 -0.56059844176E+02 -0.26527950298E+02  0.12778697203E+03  0.00000000000E+00 0.  1.
<mgrwt>
<rscale>  0 0.16543164E+04</rscale>
<asrwt>0</asrwt>
<pdfrwt beam="1">  1        1 0.27369552E+00 0.16543164E+04</pdfrwt>
<pdfrwt beam="2">  1       -2 0.59167436E-01 0.16543164E+04</pdfrwt>
<totfact> 0.94179436E+00</totfact>
</mgrwt>
</event>
<event>
12    5  0.5029243E-008  0.1346479E+04  0.7818608E-02  0.8993498E-01
          1   -1    0    0  501    0  0.00000000000E+00  0.00000000000E+00  0.84312773738E+03  0.84312773738E+03  0.00000000000E+00 0. -1.
         -2   -1    0    0    0  501 -0.00000000000E+00 -0.00000000000E+00 -0.53758315817E+03  0.53758315817E+03  0.00000000000E+00 0.  1.
        -24    2    1    2    0    0  0.51876621529E+02  0.21389809528E+03 -0.21352112583E+03  0.31683392859E+03  0.79679910293E+02 0.  0.
        254    2    1    2    0    0 -0.51876621529E+02 -0.21389809528E+03  0.51906570504E+03  0.10638769670E+04  0.90219810222E+03 0.  0.
         23    2    4    4    0    0  0.36985796957E+03 -0.13343445874E+03  0.47437611915E+03  0.62279003596E+03  0.90747198493E+02 0.  0.
         23    2    4    4    0    0 -0.42173459110E+03 -0.80463636547E+02  0.44689585884E+02  0.44108693099E+03  0.90697626589E+02 0.  0.
          1    1    3    3  502    0  0.16064397826E+02  0.22169636181E+02 -0.68545263681E+02  0.73810641638E+02  0.00000000000E+00 0. -1.
         -2    1    3    3    0  502  0.35812223703E+02  0.19172845910E+03 -0.14497586215E+03  0.24302328696E+03  0.00000000000E+00 0.  1.
         13    1    5    5    0    0  0.26388319325E+02 -0.91033078033E+00  0.60541911671E+01  0.27089210576E+02  0.00000000000E+00 0. -1.
        -13    1    5    5    0    0  0.34346965025E+03 -0.13252412796E+03  0.46832192799E+03  0.59570082539E+03  0.00000000000E+00 0.  1.
          1    1    6    6  503    0 -0.19971872376E+03 -0.70791185050E+02  0.53997211004E+02  0.21866563355E+03  0.00000000000E+00 0. -1.
         -1    1    6    6    0  503 -0.22201586735E+03 -0.96724514969E+01 -0.93076251203E+01  0.22242129744E+03  0.00000000000E+00 0.  1.
<mgrwt>
<rscale>  0 0.13464788E+04</rscale>
<asrwt>0</asrwt>
<pdfrwt beam="1">  1        1 0.12971196E+00 0.13464788E+04</pdfrwt>
<pdfrwt beam="2">  1       -2 0.82705102E-01 0.13464788E+04</pdfrwt>
<totfact> 0.22331802E+01</totfact>
</mgrwt>
</event>
<event>
12    5  0.5029243E-008  0.1090513E+04  0.7818608E-02  0.9214489E-01
         -2   -1    0    0    0  501 -0.00000000000E+00  0.00000000000E+00  0.36715964499E+03  0.36715964499E+03  0.00000000000E+00 0.  1.
          1   -1    0    0  501    0  0.00000000000E+00 -0.00000000000E+00 -0.80974162928E+03  0.80974162928E+03  0.00000000000E+00 0. -1.
        -24    2    1    2    0    0  0.64653596827E+02 -0.96129101387E+02  0.44712384335E+02  0.14737543551E+03  0.79368948349E+02 0.  0.
        254    2    1    2    0    0 -0.64653596827E+02  0.96129101387E+02 -0.48729436862E+03  0.10295258388E+04  0.89947026591E+03 0.  0.
         23    2    4    4    0    0 -0.35969906142E+03 -0.17146258170E+03 -0.20949405962E+02  0.40953144771E+03  0.92164512395E+02 0.  0.
         23    2    4    4    0    0  0.29504546459E+03  0.26759168308E+03 -0.46634496266E+03  0.61999439105E+03  0.90875110459E+02 0.  0.
          1    1    3    3  502    0  0.38478525500E+02 -0.66901746812E+02 -0.12315483968E+02  0.78154409962E+02  0.00000000000E+00 0. -1.
         -2    1    3    3    0  502  0.26175071327E+02 -0.29227354575E+02  0.57027868303E+02  0.69221025546E+02  0.00000000000E+00 0.  1.
         13    1    5    5    0    0 -0.17562593419E+03 -0.47550459568E+02  0.22778254998E+02  0.18336947365E+03  0.00000000000E+00 0.  1.
        -13    1    5    5    0    0 -0.18407312723E+03 -0.12391212213E+03 -0.43727660960E+02  0.22616197406E+03  0.00000000000E+00 0. -1.
          4    1    6    6  503    0  0.12478175369E+03  0.10294940052E+03 -0.12456878215E+03  0.20417259024E+03  0.00000000000E+00 0. -1.
         -4    1    6    6    0  503  0.17026371090E+03  0.16464228256E+03 -0.34177618052E+03  0.41582180081E+03  0.00000000000E+00 0.  1.
<mgrwt>
<rscale>  0 0.10905126E+04</rscale>
<asrwt>0</asrwt>
<pdfrwt beam="1">  1        1 0.12457564E+00 0.10905126E+04</pdfrwt>
<pdfrwt beam="2">  1       -2 0.56486099E-01 0.10905126E+04</pdfrwt>
<totfact> 0.55711440E+01</totfact>
</mgrwt>
</event>
<event>
12    5  0.5029243E-008  0.1460530E+04  0.7818608E-02  0.8911133E-01
          1   -1    0    0  501    0  0.00000000000E+00  0.00000000000E+00  0.20776523458E+04  0.20776523458E+04  0.00000000000E+00 0. -1.
         -2   -1    0    0    0  501 -0.00000000000E+00 -0.00000000000E+00 -0.25667769822E+03  0.25667769822E+03  0.00000000000E+00 0.  1.
        -24    2    1    2    0    0 -0.18539204927E+03  0.30222468733E+03  0.13912485486E+03  0.38935172722E+03  0.80802652707E+02 0.  0.
        254    2    1    2    0    0  0.18539204927E+03 -0.30222468733E+03  0.16818497927E+04  0.19449783168E+04  0.91028124997E+03 0.  0.
         23    2    4    4    0    0 -0.24673687332E+03  0.88434055059E+02  0.10269137820E+04  0.10637318753E+04  0.90961091718E+02 0.  0.
         23    2    4    4    0    0  0.43212892259E+03 -0.39065874238E+03  0.65493601080E+03  0.88124644154E+03  0.91128775665E+02 0.  0.
          3    1    3    3  502    0 -0.14399474920E+02  0.37244196915E+02  0.45174659720E+02  0.60292826793E+02  0.00000000000E+00 0. -1.
         -4    1    3    3    0  502 -0.17099257435E+03  0.26498049041E+03  0.93950195141E+02  0.32905890042E+03  0.00000000000E+00 0.  1.
         13    1    5    5    0    0 -0.20038516121E+03  0.43672609746E+02  0.87506267172E+03  0.89877482670E+03  0.00000000000E+00 0.  1.
        -13    1    5    5    0    0 -0.46351712112E+02  0.44761445313E+02  0.15185111023E+03  0.16495704860E+03  0.00000000000E+00 0. -1.
          2    1    6    6  503    0  0.29534612292E+03 -0.20753258867E+03  0.39386082295E+03  0.53425223962E+03  0.00000000000E+00 0.  1.
         -2    1    6    6    0  503  0.13678279968E+03 -0.18312615371E+03  0.26107518784E+03  0.34699420192E+03  0.00000000000E+00 0. -1.
<mgrwt>
<rscale>  0 0.14605301E+04</rscale>
<asrwt>0</asrwt>
<pdfrwt beam="1">  1        1 0.31963881E+00 0.14605301E+04</pdfrwt>
<pdfrwt beam="2">  1       -2 0.39488878E-01 0.14605301E+04</pdfrwt>
<totfact> 0.13650602E+01</totfact>
</mgrwt>
</event>
<event>
12    5  0.5029243E-008  0.2265168E+04  0.7818608E-02  0.8491783E-01
          1   -1    0    0  501    0  0.00000000000E+00  0.00000000000E+00  0.34224185782E+04  0.34224185782E+04  0.00000000000E+00 0. -1.
         -2   -1    0    0    0  501 -0.00000000000E+00 -0.00000000000E+00 -0.37480710875E+03  0.37480710875E+03  0.00000000000E+00 0.  1.
        -24    2    1    2    0    0  0.71454213173E+03 -0.58827350727E+03  0.15562515472E+04  0.18124141521E+04  0.79309541140E+02 0.  0.
        254    2    1    2    0    0 -0.71454213173E+03  0.58827350727E+03  0.14913599222E+04  0.19848115348E+04  0.92665324346E+03 0.  0.
         23    2    4    4    0    0  0.10792452914E+03  0.32425213508E+03  0.80018300476E+03  0.87496563335E+03  0.92113339677E+02 0.  0.
         23    2    4    4    0    0 -0.82246666087E+03  0.26402137220E+03  0.69117691747E+03  0.11098459014E+04  0.88733874451E+02 0.  0.
          3    1    3    3  502    0  0.55283076136E+03 -0.44610813884E+03  0.12553971990E+04  0.14424480751E+04  0.00000000000E+00 0. -1.
         -4    1    3    3    0  502  0.16171137037E+03 -0.14216536843E+03  0.30085434821E+03  0.36996607699E+03  0.00000000000E+00 0.  1.
         13    1    5    5    0    0  0.56108963506E+01  0.61529011541E+01  0.86846091245E+02  0.87244391883E+02  0.00000000000E+00 0. -1.
        -13    1    5    5    0    0  0.10231363279E+03  0.31809923392E+03  0.71333691351E+03  0.78772124146E+03  0.00000000000E+00 0.  1.
          3    1    6    6  503    0 -0.50227536422E+03  0.17804120663E+03  0.37413916246E+03  0.65112159053E+03  0.00000000000E+00 0. -1.
         -3    1    6    6    0  503 -0.32019129665E+03  0.85980165566E+02  0.31703775501E+03  0.45872431091E+03  0.00000000000E+00 0.  1.
<mgrwt>
<rscale>  0 0.22651683E+04</rscale>
<asrwt>0</asrwt>
<pdfrwt beam="1">  1        1 0.52652591E+00 0.22651683E+04</pdfrwt>
<pdfrwt beam="2">  1       -2 0.57662634E-01 0.22651683E+04</pdfrwt>
<totfact> 0.64632784E-01</totfact>
</mgrwt>
</event>
<event>
12    5  0.5029243E-008  0.1501554E+04  0.7818608E-02  0.8883420E-01
         -2   -1    0    0    0  501 -0.00000000000E+00  0.00000000000E+00  0.21419344990E+03  0.21419344990E+03  0.00000000000E+00 0.  1.
          1   -1    0    0  501    0  0.00000000000E+00 -0.00000000000E+00 -0.26315743338E+04  0.26315743338E+04  0.00000000000E+00 0. -1.
        -24    2    1    2    0    0 -0.19547231376E+03 -0.38796493951E+03 -0.38583185045E+03  0.58640879721E+03  0.79264373417E+02 0.  0.
        254    2    1    2    0    0  0.19547231376E+03  0.38796493951E+03 -0.20315490335E+04  0.22593589865E+04  0.88813587632E+03 0.  0.
         23    2    4    4    0    0  0.42687636374E+03  0.36085700376E+03 -0.18880299882E+04  0.19711651561E+04  0.91616750891E+02 0.  0.
         23    2    4    4    0    0 -0.23140404997E+03  0.27107935744E+02 -0.14351904523E+03  0.28819383041E+03  0.90417326987E+02 0.  0.
          3    1    3    3  502    0 -0.20232150442E+03 -0.36761959775E+03 -0.37276758922E+03  0.56127875015E+03  0.00000000000E+00 0. -1.
         -4    1    3    3    0  502  0.68491906539E+01 -0.20345341755E+02 -0.13064261227E+02  0.25130047058E+02  0.00000000000E+00 0.  1.
         13    1    5    5    0    0  0.43065373008E+03  0.35050333070E+03 -0.18569123427E+04  0.19381534172E+04  0.00000000000E+00 0. -1.
        -13    1    5    5    0    0 -0.37773663421E+01  0.10353673067E+02 -0.31117645576E+02  0.33011738952E+02  0.00000000000E+00 0.  1.
          3    1    6    6  503    0 -0.13858317829E+03  0.43627432415E+02 -0.12597161592E+03  0.19229534103E+03  0.00000000000E+00 0. -1.
         -3    1    6    6    0  503 -0.92820871684E+02 -0.16519496670E+02 -0.17547429307E+02  0.95898489382E+02  0.00000000000E+00 0.  1.
<mgrwt>
<rscale>  0 0.15015538E+04</rscale>
<asrwt>0</asrwt>
<pdfrwt beam="1">  1        1 0.40485756E+00 0.15015538E+04</pdfrwt>
<pdfrwt beam="2">  1       -2 0.32952841E-01 0.15015538E+04</pdfrwt>
<totfact> 0.80304646E+00</totfact>
</mgrwt>
</event>
<event>
12    5  0.5029243E-008  0.1595512E+04  0.7818608E-02  0.8823310E-01
          1   -1    0    0  501    0  0.00000000000E+00  0.00000000000E+00  0.21679745537E+04  0.21679745537E+04  0.00000000000E+00 0. -1.
         -2   -1    0    0    0  501 -0.00000000000E+00 -0.00000000000E+00 -0.29355262139E+03  0.29355262139E+03  0.00000000000E+00 0.  1.
        -24    2    1    2    0    0 -0.12540317327E+03 -0.74777892724E+02 -0.15370284027E+03  0.22672905607E+03  0.80397839867E+02 0.  0.
        254    2    1    2    0    0  0.12540317327E+03  0.74777892724E+02  0.20281247726E+04  0.22347981190E+04  0.92720809452E+03 0.  0.
         23    2    4    4    0    0  0.26324897843E+03  0.39492479093E+03  0.16196559388E+04  0.16901982031E+04  0.90658648600E+02 0.  0.
         23    2    4    4    0    0 -0.13784580516E+03 -0.32014689821E+03  0.40846883376E+03  0.54459991590E+03  0.90811771320E+02 0.  0.
          1    1    3    3  502    0 -0.22544057227E+02 -0.56733839669E+02 -0.70099616840E+02  0.92956545552E+02  0.00000000000E+00 0. -1.
         -2    1    3    3    0  502 -0.10285911604E+03 -0.18044053055E+02 -0.83603223428E+02  0.13377251052E+03  0.00000000000E+00 0.  1.
         13    1    5    5    0    0  0.23039194402E+03  0.36456391514E+03  0.13607308612E+04  0.14274367842E+04  0.00000000000E+00 0.  1.
        -13    1    5    5    0    0  0.32857034409E+02  0.30360875788E+02  0.25892507757E+03  0.26276141894E+03  0.00000000000E+00 0. -1.
          1    1    6    6  503    0  0.41153406503E+01 -0.32343875294E+02  0.12499705050E+02  0.34918546992E+02  0.00000000000E+00 0. -1.
         -1    1    6    6    0  503 -0.14196114581E+03 -0.28780302291E+03  0.39596912871E+03  0.50968136890E+03  0.00000000000E+00 0.  1.
<mgrwt>
<rscale>  0 0.15955120E+04</rscale>
<asrwt>0</asrwt>
<pdfrwt beam="1">  1        1 0.33353454E+00 0.15955120E+04</pdfrwt>
<pdfrwt beam="2">  1       -2 0.45161943E-01 0.15955120E+04</pdfrwt>
<totfact> 0.89847171E+00</totfact>
</mgrwt>
</event>
<event>
12    5  0.5029243E-008  0.1737809E+04  0.7818608E-02  0.8740089E-01
         -2   -1    0    0    0  501 -0.00000000000E+00  0.00000000000E+00  0.16123725598E+04  0.16123725598E+04  0.00000000000E+00 0.  1.
          1   -1    0    0  501    0  0.00000000000E+00 -0.00000000000E+00 -0.46825116799E+03  0.46825116799E+03  0.00000000000E+00 0. -1.
        -24    2    1    2    0    0 -0.46298008080E+03  0.36870729705E+03  0.13839528971E+03  0.61303332932E+03  0.79755755415E+02 0.  0.
        254    2    1    2    0    0  0.46298008080E+03 -0.36870729705E+03  0.10057261021E+04  0.14675903985E+04  0.88996683034E+03 0.  0.
         23    2    4    4    0    0 -0.12067864903E+03 -0.12788750337E+03  0.75774135095E+03  0.78313072392E+03  0.90571662000E+02 0.  0.
         23    2    4    4    0    0  0.58365872983E+03 -0.24081979368E+03  0.24798475114E+03  0.68445967454E+03  0.91306754037E+02 0.  0.
          3    1    3    3  502    0 -0.12028615046E+02  0.91560407671E+01  0.18618279633E+02  0.23982514441E+02  0.00000000000E+00 0. -1.
         -4    1    3    3    0  502 -0.45095146576E+03  0.35955125628E+03  0.11977701008E+03  0.58905081488E+03  0.00000000000E+00 0.  1.
         13    1    5    5    0    0 -0.12755256812E+03 -0.12243751375E+03  0.75232329601E+03  0.77282012404E+03  0.00000000000E+00 0. -1.
        -13    1    5    5    0    0  0.68739190874E+01 -0.54499896177E+01  0.54180549376E+01  0.10310599874E+02  0.00000000000E+00 0.  1.
          3    1    6    6  503    0  0.43064067570E+03 -0.19994251185E+03  0.22133696109E+03  0.52384964442E+03  0.00000000000E+00 0. -1.
         -3    1    6    6    0  503  0.15301805413E+03 -0.40877281834E+02  0.26647790042E+02  0.16061003012E+03  0.00000000000E+00 0.  1.
<mgrwt>
<rscale>  0 0.17378094E+04</rscale>
<asrwt>0</asrwt>
<pdfrwt beam="1">  1        1 0.72038642E-01 0.17378094E+04</pdfrwt>
<pdfrwt beam="2">  1       -2 0.24805731E+00 0.17378094E+04</pdfrwt>
<totfact> 0.26588584E+00</totfact>
</mgrwt>
</event>
<event>
12    5  0.5029243E-008  0.1862534E+04  0.7818608E-02  0.8673734E-01
         -2   -1    0    0    0  501 -0.00000000000E+00  0.00000000000E+00  0.29808141604E+03  0.29808141604E+03  0.00000000000E+00 0.  1.
          1   -1    0    0  501    0  0.00000000000E+00 -0.00000000000E+00 -0.29094672883E+04  0.29094672883E+04  0.00000000000E+00 0. -1.
        -24    2    1    2    0    0 -0.68020025998E+03  0.74209395268E+02 -0.13423085932E+04  0.15087406730E+04  0.79540122694E+02 0.  0.
        254    2    1    2    0    0  0.68020025998E+03 -0.74209395268E+02 -0.12690772792E+04  0.16988080314E+04  0.89844986449E+03 0.  0.
         23    2    4    4    0    0  0.10279074857E+03 -0.27008161582E+02  0.12392982946E+03  0.18705738792E+03  0.91304353475E+02 0.  0.
         23    2    4    4    0    0  0.57740951141E+03 -0.47201233685E+02 -0.13930071086E+04  0.15117506435E+04  0.96392442793E+02 0.  0.
          3    1    3    3  502    0 -0.56884160643E+03  0.45917906976E+02 -0.10582181024E+04  0.12022956290E+04  0.00000000000E+00 0. -1.
         -2    1    3    3    0  502 -0.11135865355E+03  0.28291488292E+02 -0.28409049077E+03  0.30644504397E+03  0.00000000000E+00 0.  1.
         13    1    5    5    0    0  0.38549133788E+02  0.14936096130E+02  0.97512929825E+02  0.10591456069E+03  0.00000000000E+00 0. -1.
        -13    1    5    5    0    0  0.64241614783E+02 -0.41944257713E+02  0.26416899632E+02  0.81142827231E+02  0.00000000000E+00 0.  1.
          3    1    6    6  503    0  0.49703651963E+03 -0.25021214896E+02 -0.11045957600E+04  0.12115292634E+04  0.00000000000E+00 0. -1.
         -3    1    6    6    0  503  0.80372991777E+02 -0.22180018790E+02 -0.28841134864E+03  0.30022138010E+03  0.00000000000E+00 0.  1.
<mgrwt>
<rscale>  0 0.18625339E+04</rscale>
<asrwt>0</asrwt>
<pdfrwt beam="1">  1        1 0.44761034E+00 0.18625339E+04</pdfrwt>
<pdfrwt beam="2">  1       -2 0.45858680E-01 0.18625339E+04</pdfrwt>
<totfact> 0.25912083E+00</totfact>
</mgrwt>
</event>
<event>
12    5  0.5029243E-008  0.2827171E+04  0.7818608E-02  0.8294882E-01
          1   -1    0    0  501    0  0.00000000000E+00  0.00000000000E+00  0.30587255150E+04  0.30587255150E+04  0.00000000000E+00 0. -1.
         -2   -1    0    0    0  501 -0.00000000000E+00 -0.00000000000E+00 -0.65328647933E+03  0.65328647933E+03  0.00000000000E+00 0.  1.
        -24    2    1    2    0    0  0.12047689584E+04 -0.40686014029E+02  0.15857687357E+04  0.19931951378E+04  0.70998446770E+02 0.  0.
        254    2    1    2    0    0 -0.12047689584E+04  0.40686014029E+02  0.81967029993E+03  0.17188168565E+04  0.91068567052E+03 0.  0.
         23    2    4    4    0    0 -0.11701549293E+04  0.13972544047E+03  0.35551048703E+03  0.12343928267E+04  0.92478036074E+02 0.  0.
         23    2    4    4    0    0 -0.34614029186E+02 -0.99039426436E+02  0.46415981290E+03  0.48442402972E+03  0.90638676337E+02 0.  0.
          1    1    3    3  502    0  0.92457940181E+03 -0.94070775727E+01  0.12486535751E+04  0.15537281982E+04  0.00000000000E+00 0. -1.
         -2    1    3    3    0  502  0.28018955663E+03 -0.31278936456E+02  0.33711516064E+03  0.43946693965E+03  0.00000000000E+00 0.  1.
         13    1    5    5    0    0 -0.61923011941E+02  0.15011019059E+02  0.40617993073E+02  0.75561971006E+02  0.00000000000E+00 0. -1.
        -13    1    5    5    0    0 -0.11082319173E+04  0.12471442141E+03  0.31489249396E+03  0.11588308557E+04  0.00000000000E+00 0.  1.
          3    1    6    6  503    0 -0.45146543357E+02 -0.54460429114E+02  0.13811250908E+03  0.15517478494E+03  0.00000000000E+00 0. -1.
         -3    1    6    6    0  503  0.10532514171E+02 -0.44578997322E+02  0.32604730382E+03  0.32924924478E+03  0.00000000000E+00 0.  1.
<mgrwt>
<rscale>  0 0.28271710E+04</rscale>
<asrwt>0</asrwt>
<pdfrwt beam="1">  1        1 0.47057315E+00 0.28271710E+04</pdfrwt>
<pdfrwt beam="2">  1       -2 0.10050561E+00 0.28271710E+04</pdfrwt>
<totfact> 0.33556876E-01</totfact>
</mgrwt>
</event>
<event>
12    5  0.5029243E-008  0.1603042E+04  0.7818608E-02  0.8818681E-01
         -2   -1    0    0    0  501 -0.00000000000E+00  0.00000000000E+00  0.26587892002E+03  0.26587892002E+03  0.00000000000E+00 0.  1.
          1   -1    0    0  501    0  0.00000000000E+00 -0.00000000000E+00 -0.24162723985E+04  0.24162723985E+04  0.00000000000E+00 0. -1.
        -24    2    1    2    0    0  0.47265157555E+01 -0.24298620911E+03  0.80589419923E+02  0.26877781938E+03  0.81744870298E+02 0.  0.
        254    2    1    2    0    0 -0.47265157555E+01  0.24298620911E+03 -0.22309828984E+04  0.24133734991E+04  0.88770621018E+03 0.  0.
         23    2    4    4    0    0 -0.17192975231E+02  0.50634837516E+03 -0.77076273163E+03  0.92681023616E+03  0.90651806139E+02 0.  0.
         23    2    4    4    0    0  0.12466459476E+02 -0.26336216606E+03 -0.14602201668E+04  0.14865632630E+04  0.90068619655E+02 0.  0.
          1    1    3    3  502    0 -0.32756787577E+02 -0.11307963192E+03  0.15581003315E+02  0.11875511758E+03  0.00000000000E+00 0. -1.
         -2    1    3    3    0  502  0.37483303332E+02 -0.12990657718E+03  0.65008416608E+02  0.15002270180E+03  0.00000000000E+00 0.  1.
         13    1    5    5    0    0 -0.11016927918E+02  0.45001721810E+03 -0.62348330278E+03  0.76900474519E+03  0.00000000000E+00 0. -1.
        -13    1    5    5    0    0 -0.61760473131E+01  0.56331157059E+02 -0.14727942885E+03  0.15780549096E+03  0.00000000000E+00 0.  1.
          3    1    6    6  503    0 -0.21833226640E+02 -0.14563080131E+03 -0.97654394256E+03  0.98758447326E+03  0.00000000000E+00 0. -1.
         -3    1    6    6    0  503  0.34299686115E+02 -0.11773136475E+03 -0.48367622423E+03  0.49897878973E+03  0.00000000000E+00 0.  1.
<mgrwt>
<rscale>  0 0.16030420E+04</rscale>
<asrwt>0</asrwt>
<pdfrwt beam="1">  1        1 0.37173422E+00 0.16030420E+04</pdfrwt>
<pdfrwt beam="2">  1       -2 0.40904449E-01 0.16030420E+04</pdfrwt>
<totfact> 0.73935867E+00</totfact>
</mgrwt>
</event>
<event>
12    5  0.5029243E-008  0.1183813E+04  0.7818608E-02  0.9127144E-01
          1   -1    0    0  501    0  0.00000000000E+00  0.00000000000E+00  0.85122664091E+03  0.85122664091E+03  0.00000000000E+00 0. -1.
         -2   -1    0    0    0  501 -0.00000000000E+00 -0.00000000000E+00 -0.41158661738E+03  0.41158661738E+03  0.00000000000E+00 0.  1.
        -24    2    1    2    0    0  0.10844470258E+02 -0.43091344606E+02  0.35121537316E+03  0.36310794753E+03  0.80750707111E+02 0.  0.
        254    2    1    2    0    0 -0.10844470258E+02  0.43091344606E+02  0.88424650366E+02  0.89970531076E+03  0.89424619703E+03 0.  0.
         23    2    4    4    0    0  0.19467398865E+03 -0.35463599839E+03 -0.59652919626E+02  0.41916827339E+03  0.92081037057E+02 0.  0.
         23    2    4    4    0    0 -0.20551845891E+03  0.39772734300E+03  0.14807756999E+03  0.48053703737E+03  0.92541889049E+02 0.  0.
          3    1    3    3  502    0 -0.25084522017E+02 -0.45401209750E+02  0.25839310965E+03  0.26354791254E+03  0.00000000000E+00 0. -1.
         -4    1    3    3    0  502  0.35928992276E+02  0.23098651441E+01  0.92822263514E+02  0.99560034988E+02  0.00000000000E+00 0.  1.
         13    1    5    5    0    0  0.19764756915E+03 -0.35804819262E+03 -0.54970271114E+02  0.41265578942E+03  0.00000000000E+00 0.  1.
        -13    1    5    5    0    0 -0.29735805008E+01  0.34121942303E+01 -0.46826485113E+01  0.65124839762E+01  0.00000000000E+00 0. -1.
          3    1    6    6  503    0 -0.64002553360E+02  0.53188849178E+02  0.42224645067E+02  0.93318278834E+02  0.00000000000E+00 0. -1.
         -3    1    6    6    0  503 -0.14151590555E+03  0.34453849382E+03  0.10585292492E+03  0.38721875854E+03  0.00000000000E+00 0.  1.
<mgrwt>
<rscale>  0 0.11838133E+04</rscale>
<asrwt>0</asrwt>
<pdfrwt beam="1">  1        1 0.13095794E+00 0.11838133E+04</pdfrwt>
<pdfrwt beam="2">  1       -2 0.63321018E-01 0.11838133E+04</pdfrwt>
<totfact> 0.40069136E+01</totfact>
</mgrwt>
</event>
<event>
12    5  0.5029243E-008  0.2504890E+04  0.7818608E-02  0.8401246E-01
          1   -1    0    0  501    0  0.00000000000E+00  0.00000000000E+00  0.22587268050E+04  0.22587268050E+04  0.00000000000E+00 0. -1.
         -2   -1    0    0    0  501 -0.00000000000E+00 -0.00000000000E+00 -0.69447022881E+03  0.69447022881E+03  0.00000000000E+00 0.  1.
        -24    2    1    2    0    0  0.71496401900E+02  0.80369735985E+03 -0.18278233732E+03  0.83109516378E+03  0.79174533153E+02 0.  0.
        254    2    1    2    0    0 -0.71496401900E+02 -0.80369735985E+03  0.17470389135E+04  0.21221018700E+04  0.89449997189E+03 0.  0.
         23    2    4    4    0    0  0.13647583633E+03 -0.88263629074E+03  0.10352755750E+04  0.13704055491E+04  0.92430391102E+02 0.  0.
         23    2    4    4    0    0 -0.20797223823E+03  0.78938930892E+02  0.71176333853E+03  0.75169632092E+03  0.94638798222E+02 0.  0.
          3    1    3    3  502    0 -0.10075730779E+02  0.16981788758E+03 -0.59393009331E+02  0.18018647244E+03  0.00000000000E+00 0. -1.
         -4    1    3    3    0  502  0.81572132679E+02  0.63387947227E+03 -0.12338932799E+03  0.65090869133E+03  0.00000000000E+00 0.  1.
         13    1    5    5    0    0  0.34109794557E+02 -0.70462401079E+02  0.10972378855E+03  0.13478775102E+03  0.00000000000E+00 0. -1.
        -13    1    5    5    0    0  0.10236604178E+03 -0.81217388966E+03  0.92555178641E+03  0.12356177981E+04  0.00000000000E+00 0.  1.
          1    1    6    6  503    0 -0.19486332608E+02 -0.19990840807E+02  0.10618878113E+03  0.10979712251E+03  0.00000000000E+00 0. -1.
         -1    1    6    6    0  503 -0.18848590562E+03  0.98929771699E+02  0.60557455740E+03  0.64189919841E+03  0.00000000000E+00 0.  1.
<mgrwt>
<rscale>  0 0.25048900E+04</rscale>
<asrwt>0</asrwt>
<pdfrwt beam="1">  1        1 0.34749643E+00 0.25048900E+04</pdfrwt>
<pdfrwt beam="2">  1       -2 0.10684157E+00 0.25048900E+04</pdfrwt>
<totfact> 0.10928212E+00</totfact>
</mgrwt>
</event>
<event>
12    5  0.5029243E-008  0.2429130E+04  0.7818608E-02  0.8428678E-01
         -2   -1    0    0    0  501 -0.00000000000E+00  0.00000000000E+00  0.14126472743E+04  0.14126472743E+04  0.00000000000E+00 0.  1.
          1   -1    0    0  501    0  0.00000000000E+00 -0.00000000000E+00 -0.10442579083E+04  0.10442579083E+04  0.00000000000E+00 0. -1.
        -24    2    1    2    0    0  0.23665969048E+03  0.39185370712E+03  0.11144685821E+04  0.12074793643E+04  0.80056592125E+02 0.  0.
        254    2    1    2    0    0 -0.23665969048E+03 -0.39185370712E+03 -0.74607921607E+03  0.12494258182E+04  0.89155680791E+03 0.  0.
         23    2    4    4    0    0  0.26536684398E+03  0.92756516570E+02 -0.18230898433E+03  0.34760882959E+03  0.92585092698E+02 0.  0.
         23    2    4    4    0    0 -0.50202653446E+03 -0.48461022369E+03 -0.56377023174E+03  0.90181698865E+03  0.92516466674E+02 0.  0.
          1    1    3    3  502    0  0.52385784772E+02  0.64988430590E+02  0.13654400471E+03  0.16003759489E+03  0.00000000000E+00 0. -1.
         -2    1    3    3    0  502  0.18427390571E+03  0.32686527653E+03  0.97792457735E+03  0.10474417694E+04  0.00000000000E+00 0.  1.
         13    1    5    5    0    0 -0.71191923248E+01  0.39441541442E+01 -0.11118045536E+02  0.13778613421E+02  0.00000000000E+00 0. -1.
        -13    1    5    5    0    0  0.27248603630E+03  0.88812362425E+02 -0.17119093879E+03  0.33383021616E+03  0.00000000000E+00 0.  1.
          3    1    6    6  503    0 -0.23501613711E+03 -0.25976848640E+03 -0.23146000394E+03  0.41986424550E+03  0.00000000000E+00 0. -1.
         -3    1    6    6    0  503 -0.26701039735E+03 -0.22484173729E+03 -0.33231022780E+03  0.48195274314E+03  0.00000000000E+00 0.  1.
<mgrwt>
<rscale>  0 0.24291300E+04</rscale>
<asrwt>0</asrwt>
<pdfrwt beam="1">  1        1 0.16065506E+00 0.24291300E+04</pdfrwt>
<pdfrwt beam="2">  1       -2 0.21733035E+00 0.24291300E+04</pdfrwt>
<totfact> 0.11263177E+00</totfact>
</mgrwt>
</event>
<event>
12    5  0.5029243E-008  0.1821147E+04  0.7818608E-02  0.8695134E-01
          1   -1    0    0  501    0  0.00000000000E+00  0.00000000000E+00  0.37936608299E+04  0.37936608299E+04  0.00000000000E+00 0. -1.
         -2   -1    0    0    0  501 -0.00000000000E+00 -0.00000000000E+00 -0.21856033572E+03  0.21856033572E+03  0.00000000000E+00 0.  1.
        -24    2    1    2    0    0  0.13162183121E+03  0.79155960310E+02 -0.11657934255E+03  0.20963602005E+03  0.82259013421E+02 0.  0.
        254    2    1    2    0    0 -0.13162183121E+03 -0.79155960310E+02  0.36916798367E+04  0.38025851455E+04  0.89864553634E+03 0.  0.
         23    2    4    4    0    0  0.13676787795E+03  0.20446465828E+03  0.35284597942E+03  0.43975986439E+03  0.91527068158E+02 0.  0.
         23    2    4    4    0    0 -0.26838970916E+03 -0.28362061859E+03  0.33388338573E+04  0.33628252812E+04  0.91151817859E+02 0.  0.
          3    1    3    3  502    0  0.91065176046E+02  0.45580565980E+02 -0.26384000474E+02  0.10519776502E+03  0.00000000000E+00 0. -1.
         -4    1    3    3    0  502  0.40556655165E+02  0.33575394330E+02 -0.90195342072E+02  0.10443825503E+03  0.00000000000E+00 0.  1.
         13    1    5    5    0    0  0.21536685467E+02  0.66319390579E+02  0.16765718635E+03  0.18157924585E+03  0.00000000000E+00 0. -1.
        -13    1    5    5    0    0  0.11523119248E+03  0.13814526770E+03  0.18518879307E+03  0.25818061854E+03  0.00000000000E+00 0.  1.
          2    1    6    6  503    0 -0.26899445868E+03 -0.26660829614E+03  0.32724674163E+04  0.32943103972E+04  0.00000000000E+00 0. -1.
         -2    1    6    6    0  503  0.60474951956E+00 -0.17012322446E+02  0.66366440982E+02  0.68514883971E+02  0.00000000000E+00 0.  1.
<mgrwt>
<rscale>  0 0.18211467E+04</rscale>
<asrwt>0</asrwt>
<pdfrwt beam="1">  1        1 0.58364008E+00 0.18211467E+04</pdfrwt>
<pdfrwt beam="2">  1       -2 0.33624670E-01 0.18211467E+04</pdfrwt>
<totfact> 0.99615110E-01</totfact>
</mgrwt>
</event>
<event>
12    5  0.5029243E-008  0.1715402E+04  0.7818608E-02  0.8752629E-01
         -2   -1    0    0    0  501 -0.00000000000E+00  0.00000000000E+00  0.44366864447E+03  0.44366864447E+03  0.00000000000E+00 0.  1.
          1   -1    0    0  501    0  0.00000000000E+00 -0.00000000000E+00 -0.16581082697E+04  0.16581082697E+04  0.00000000000E+00 0. -1.
        -24    2    1    2    0    0  0.75926765580E+02 -0.61169900425E+03 -0.38100831670E+03  0.72920162666E+03  0.81407182682E+02 0.  0.
        254    2    1    2    0    0 -0.75926765580E+02  0.61169900425E+03 -0.83343130850E+03  0.13725752875E+04  0.89967473471E+03 0.  0.
         23    2    4    4    0    0 -0.49702590689E+02  0.29370838645E+03  0.14141442454E+03  0.34272333518E+03  0.93414566405E+02 0.  0.
         23    2    4    4    0    0 -0.26224174891E+02  0.31799061781E+03 -0.97484573304E+03  0.10298519523E+04  0.92005978447E+02 0.  0.
          3    1    3    3  502    0  0.86598903694E+02 -0.44986362661E+03 -0.30274932577E+03  0.54912094016E+03  0.00000000000E+00 0. -1.
         -2    1    3    3    0  502 -0.10672138114E+02 -0.16183537765E+03 -0.78258990935E+02  0.18008068651E+03  0.00000000000E+00 0.  1.
         13    1    5    5    0    0 -0.62011042890E+02  0.17376848249E+03  0.12046589480E+03  0.22034719594E+03  0.00000000000E+00 0. -1.
        -13    1    5    5    0    0  0.12308452202E+02  0.11993990396E+03  0.20948529737E+02  0.12237613924E+03  0.00000000000E+00 0.  1.
          3    1    6    6  503    0 -0.88582745375E+01  0.34487761670E+02 -0.22903071180E+03  0.23178209957E+03  0.00000000000E+00 0.  1.
         -3    1    6    6    0  503 -0.17365900354E+02  0.28350285614E+03 -0.74581502123E+03  0.79806985273E+03  0.00000000000E+00 0. -1.
<mgrwt>
<rscale>  0 0.17154016E+04</rscale>
<asrwt>0</asrwt>
<pdfrwt beam="1">  1        1 0.25509358E+00 0.17154016E+04</pdfrwt>
<pdfrwt beam="2">  1       -2 0.68256714E-01 0.17154016E+04</pdfrwt>
<totfact> 0.83403260E+00</totfact>
</mgrwt>
</event>
<event>
12    5  0.5029243E-008  0.1889763E+04  0.7818608E-02  0.8659969E-01
          1   -1    0    0  501    0  0.00000000000E+00  0.00000000000E+00  0.66004601618E+03  0.66004601618E+03  0.00000000000E+00 0. -1.
         -2   -1    0    0    0  501 -0.00000000000E+00 -0.00000000000E+00 -0.13526338760E+04  0.13526338760E+04  0.00000000000E+00 0.  1.
        -24    2    1    2    0    0  0.22980924728E+01  0.70708335737E+03 -0.93164327176E+02  0.71845579272E+03  0.86758162314E+02 0.  0.
        254    2    1    2    0    0 -0.22980924728E+01 -0.70708335737E+03 -0.59942353261E+03  0.12942240994E+04  0.90318065337E+03 0.  0.
         23    2    4    4    0    0  0.19136935742E+03 -0.24192111876E+03 -0.69997288876E+03  0.77068247170E+03  0.94028551664E+02 0.  0.
         23    2    4    4    0    0 -0.19366744989E+03 -0.46516223861E+03  0.10054935615E+03  0.52354162774E+03  0.10051205687E+03 0.  0.
          3    1    3    3  502    0 -0.17315646633E+02  0.71962322992E+02 -0.30127329644E+02  0.79912849656E+02  0.00000000000E+00 0. -1.
         -4    1    3    3    0  502  0.19613739106E+02  0.63512103438E+03 -0.63036997532E+02  0.63854294306E+03  0.00000000000E+00 0.  1.
         13    1    5    5    0    0  0.91030744359E+02 -0.15876349792E+03 -0.49544660756E+03  0.52816643744E+03  0.00000000000E+00 0. -1.
        -13    1    5    5    0    0  0.10033861306E+03 -0.83157620843E+02 -0.20452628120E+03  0.24251603427E+03  0.00000000000E+00 0.  1.
          4    1    6    6  503    0 -0.52030453754E+01 -0.12342714775E+03  0.24054204917E+02  0.12585681252E+03  0.00000000000E+00 0. -1.
         -4    1    6    6    0  503 -0.18846440452E+03 -0.34173509086E+03  0.76495151230E+02  0.39768481522E+03  0.00000000000E+00 0.  1.
<mgrwt>
<rscale>  0 0.18897625E+04</rscale>
<asrwt>0</asrwt>
<pdfrwt beam="1">  1        1 0.10154554E+00 0.18897625E+04</pdfrwt>
<pdfrwt beam="2">  1       -2 0.20809752E+00 0.18897625E+04</pdfrwt>
<totfact> 0.28735431E+00</totfact>
</mgrwt>
</event>
<event>
12    5  0.5029243E-008  0.1078226E+04  0.7818608E-02  0.9226678E-01
          1   -1    0    0  501    0  0.00000000000E+00  0.00000000000E+00  0.24769898333E+03  0.24769898333E+03  0.00000000000E+00 0. -1.
         -2   -1    0    0    0  501 -0.00000000000E+00 -0.00000000000E+00 -0.11733702719E+04  0.11733702719E+04  0.00000000000E+00 0.  1.
        -24    2    1    2    0    0  0.45298679437E+02 -0.97222681189E+02 -0.23788017106E+03  0.27256828618E+03  0.78754522089E+02 0.  0.
        254    2    1    2    0    0 -0.45298679437E+02  0.97222681189E+02 -0.68779111750E+03  0.11485009691E+04  0.91350623124E+03 0.  0.
         23    2    4    4    0    0  0.40800879983E+03 -0.37214419047E+02 -0.20743840418E+03  0.46827515385E+03  0.91623329216E+02 0.  0.
         23    2    4    4    0    0 -0.45330747927E+03  0.13443710024E+03 -0.48035271332E+03  0.68022581520E+03  0.91692015968E+02 0.  0.
          3    1    3    3  502    0  0.18956002020E+02  0.42002740838E+01 -0.85223839933E+02  0.87407523749E+02  0.00000000000E+00 0. -1.
         -4    1    3    3    0  502  0.26342677416E+02 -0.10142295527E+03 -0.15265633113E+03  0.18516076243E+03  0.00000000000E+00 0.  1.
         13    1    5    5    0    0  0.14495784640E+03  0.26364614300E+02 -0.52343425901E+02  0.15635761688E+03  0.00000000000E+00 0. -1.
        -13    1    5    5    0    0  0.26305095343E+03 -0.63579033347E+02 -0.15509497828E+03  0.31191753697E+03  0.00000000000E+00 0.  1.
          3    1    6    6  503    0 -0.22161105601E+03  0.32410287548E+02 -0.27203693407E+03  0.35237193473E+03  0.00000000000E+00 0. -1.
         -3    1    6    6    0  503 -0.23169642326E+03  0.10202681269E+03 -0.20831577925E+03  0.32785388048E+03  0.00000000000E+00 0.  1.
<mgrwt>
<rscale>  0 0.10782256E+04</rscale>
<asrwt>0</asrwt>
<pdfrwt beam="1">  1        1 0.38107536E-01 0.10782256E+04</pdfrwt>
<pdfrwt beam="2">  1       -2 0.18051850E+00 0.10782256E+04</pdfrwt>
<totfact> 0.17599261E+01</totfact>
</mgrwt>
</event>
<event>
12    5  0.5029243E-008  0.1655046E+04  0.7818608E-02  0.8787427E-01
          1   -1    0    0  501    0  0.00000000000E+00  0.00000000000E+00  0.22099249229E+04  0.22099249229E+04  0.00000000000E+00 0. -1.
         -2   -1    0    0    0  501 -0.00000000000E+00 -0.00000000000E+00 -0.30987208883E+03  0.30987208883E+03  0.00000000000E+00 0.  1.
        -24    2    1    2    0    0 -0.23507012836E+03  0.70996820616E+02  0.14837292561E+04  0.15060836899E+04  0.80852096690E+02 0.  0.
        254    2    1    2    0    0  0.23507012836E+03 -0.70996820616E+02  0.41632357794E+03  0.10137133219E+04  0.89106164974E+03 0.  0.
         23    2    4    4    0    0  0.28486107974E+03  0.26677487336E+03  0.50943299312E+03  0.64814628812E+03  0.90867862963E+02 0.  0.
         23    2    4    4    0    0 -0.49790951387E+02 -0.33777169397E+03 -0.93109415177E+02  0.36556703377E+03  0.91657170456E+02 0.  0.
          3    1    3    3  502    0 -0.82921743892E+02  0.44512725436E+02  0.37399193347E+03  0.38565186974E+03  0.00000000000E+00 0. -1.
         -4    1    3    3    0  502 -0.15214838447E+03  0.26484095179E+02  0.11097373227E+04  0.11204318201E+04  0.00000000000E+00 0.  1.
         13    1    5    5    0    0  0.19939110073E+03  0.14257772962E+03  0.36270865134E+03  0.43777024315E+03  0.00000000000E+00 0. -1.
        -13    1    5    5    0    0  0.85469979017E+02  0.12419714374E+03  0.14672434177E+03  0.21037604497E+03  0.00000000000E+00 0.  1.
          4    1    6    6  503    0 -0.35970930670E+02 -0.24250836009E+03 -0.22511459086E+02  0.24619296976E+03  0.00000000000E+00 0. -1.
         -4    1    6    6    0  503 -0.13820020717E+02 -0.95263333877E+02 -0.70597956091E+02  0.11937406401E+03  0.00000000000E+00 0.  1.
<mgrwt>
<rscale>  0 0.16550457E+04</rscale>
<asrwt>0</asrwt>
<pdfrwt beam="1">  1        1 0.33998844E+00 0.16550457E+04</pdfrwt>
<pdfrwt beam="2">  1       -2 0.47672631E-01 0.16550457E+04</pdfrwt>
<totfact> 0.75064261E+00</totfact>
</mgrwt>
</event>
<event>
12    5  0.5029243E-008  0.1233914E+04  0.7818608E-02  0.9083679E-01
          3   -1    0    0  501    0  0.00000000000E+00  0.00000000000E+00  0.18035147650E+03  0.18035147650E+03  0.00000000000E+00 0. -1.
         -4   -1    0    0    0  501 -0.00000000000E+00 -0.00000000000E+00 -0.21105229219E+04  0.21105229219E+04  0.00000000000E+00 0.  1.
        -24    2    1    2    0    0  0.27656974137E+03  0.41001344858E+02 -0.47710426591E+03  0.55872110717E+03  0.79805156014E+02 0.  0.
        254    2    1    2    0    0 -0.27656974137E+03 -0.41001344858E+02 -0.14530671795E+04  0.17321532913E+04  0.90043259832E+03 0.  0.
         23    2    4    4    0    0 -0.12057761345E+02 -0.42348263881E+03 -0.45505487716E+03  0.62740962842E+03  0.84172237863E+02 0.  0.
         23    2    4    4    0    0 -0.26451198003E+03  0.38248129395E+03 -0.99801230236E+03  0.11047436628E+04  0.90396223033E+02 0.  0.
          3    1    3    3  502    0  0.37905378654E+02 -0.13915453268E+02 -0.35548560446E+02  0.53797376519E+02  0.00000000000E+00 0. -1.
         -4    1    3    3    0  502  0.23866436272E+03  0.54916798126E+02 -0.44155570547E+03  0.50492373065E+03  0.00000000000E+00 0.  1.
         13    1    5    5    0    0  0.11577623837E+02 -0.34389670644E+03 -0.40075403990E+03  0.52820714362E+03  0.00000000000E+00 0.  1.
        -13    1    5    5    0    0 -0.23635385182E+02 -0.79585932365E+02 -0.54300837257E+02  0.99202484797E+02  0.00000000000E+00 0. -1.
          3    1    6    6  503    0  0.47495970258E+01  0.26811870857E+02 -0.68972394106E+02  0.74152722401E+02  0.00000000000E+00 0. -1.
         -3    1    6    6    0  503 -0.26926157705E+03  0.35566942309E+03 -0.92903990825E+03  0.10305909404E+04  0.00000000000E+00 0.  1.
<mgrwt>
<rscale>  0 0.12339140E+04</rscale>
<asrwt>0</asrwt>
<pdfrwt beam="1">  1        3 0.27746380E-01 0.12339140E+04</pdfrwt>
<pdfrwt beam="2">  1       -4 0.32469585E+00 0.12339140E+04</pdfrwt>
<totfact> 0.61967700E-01</totfact>
</mgrwt>
</event>
<event>
12    5  0.7732637E-008  0.2071573E+04  0.7818608E-02  0.8573870E-01
          1   -1    0    0  501    0  0.00000000000E+00  0.00000000000E+00  0.12206481346E+04  0.12206481346E+04  0.00000000000E+00 0. -1.
         -2   -1    0    0    0  501 -0.00000000000E+00 -0.00000000000E+00 -0.87892126552E+03  0.87892126552E+03  0.00000000000E+00 0.  1.
        -24    2    1    2    0    0  0.61019000420E+03 -0.14525407541E+03  0.56602651898E+03  0.84749383940E+03  0.66552234881E+02 0.  0.
        254    2    1    2    0    0 -0.61019000420E+03  0.14525407541E+03 -0.22429964988E+03  0.12520755607E+04  0.10601661611E+04 0.  0.
         23    2    4    4    0    0  0.19585341452E+03 -0.24854832403E+03 -0.39282080666E+02  0.33173833719E+03  0.91500891487E+02 0.  0.
         23    2    4    4    0    0 -0.80604341873E+03  0.39380239944E+03 -0.18501756922E+03  0.92033722354E+03  0.89458266475E+02 0.  0.
          1    1    3    3  502    0  0.60121698235E+03 -0.13545672425E+03  0.54543406303E+03  0.82298766766E+03  0.00000000000E+00 0. -1.
         -2    1    3    3    0  502  0.89730218597E+01 -0.97973511577E+01  0.20592455957E+02  0.24506171740E+02  0.00000000000E+00 0.  1.
         13    1    5    5    0    0  0.90147872931E+02 -0.10923225728E+03 -0.63461765938E+02  0.15519574981E+03  0.00000000000E+00 0.  1.
        -13    1    5    5    0    0  0.10570554159E+03 -0.13931606676E+03  0.24179685272E+02  0.17654258738E+03  0.00000000000E+00 0. -1.
          2    1    6    6  503    0 -0.76278881496E+03  0.35280782354E+03 -0.15912190987E+03  0.85535952603E+03  0.00000000000E+00 0. -1.
         -2    1    6    6    0  503 -0.43254603772E+02  0.40994575900E+02 -0.25895659352E+02  0.64977697513E+02  0.00000000000E+00 0.  1.
<mgrwt>
<rscale>  0 0.20715729E+04</rscale>
<asrwt>0</asrwt>
<pdfrwt beam="1">  1        1 0.18779202E+00 0.20715729E+04</pdfrwt>
<pdfrwt beam="2">  1       -2 0.13521866E+00 0.20715729E+04</pdfrwt>
<totfact> 0.32796521E+00</totfact>
</mgrwt>
</event>
<event>
12    5  0.5029243E-008  0.1536542E+04  0.7818608E-02  0.8860510E-01
         -2   -1    0    0    0  501 -0.00000000000E+00  0.00000000000E+00  0.12061796607E+04  0.12061796607E+04  0.00000000000E+00 0.  1.
          1   -1    0    0  501    0  0.00000000000E+00 -0.00000000000E+00 -0.48934702811E+03  0.48934702811E+03  0.00000000000E+00 0. -1.
        -24    2    1    2    0    0  0.33647524564E+03  0.28797054193E+03  0.49463894409E+03  0.66879168922E+03  0.80448832301E+02 0.  0.
        254    2    1    2    0    0 -0.33647524564E+03 -0.28797054193E+03  0.22219368852E+03  0.10267349996E+04  0.89926197532E+03 0.  0.
         23    2    4    4    0    0 -0.40251426423E+03 -0.38047360327E+02 -0.24592182983E+03  0.48419406274E+03  0.10247443325E+03 0.  0.
         23    2    4    4    0    0  0.66039018594E+02 -0.24992318160E+03  0.46811551835E+03  0.54254093687E+03  0.91628494355E+02 0.  0.
          3    1    3    3  502    0  0.32359788773E+01  0.46819209780E+01 -0.28581130954E+01  0.63687325116E+01  0.00000000000E+00 0. -1.
         -4    1    3    3    0  502  0.33323926676E+03  0.28328862095E+03  0.49749705718E+03  0.66242295671E+03  0.00000000000E+00 0.  1.
         13    1    5    5    0    0 -0.39808706534E+03 -0.31096825321E+02 -0.25352185700E+03  0.47298377997E+03  0.00000000000E+00 0. -1.
        -13    1    5    5    0    0 -0.44271988888E+01 -0.69505350054E+01  0.76000271688E+01  0.11210282772E+02  0.00000000000E+00 0.  1.
          2    1    6    6  503    0  0.66169281006E+02 -0.25762566372E+03  0.44815100142E+03  0.52114170475E+03  0.00000000000E+00 0. -1.
         -2    1    6    6    0  503 -0.13026241233E+00  0.77024821147E+01  0.19964516932E+02  0.21399232121E+02  0.00000000000E+00 0.  1.
<mgrwt>
<rscale>  0 0.15365421E+04</rscale>
<asrwt>0</asrwt>
<pdfrwt beam="1">  1        1 0.75284158E-01 0.15365421E+04</pdfrwt>
<pdfrwt beam="2">  1       -2 0.18556610E+00 0.15365421E+04</pdfrwt>
<totfact> 0.63899976E+00</totfact>
</mgrwt>
</event>
<event>
12    5  0.5029243E-008  0.1798413E+04  0.7818608E-02  0.8707144E-01
          1   -1    0    0  501    0  0.00000000000E+00  0.00000000000E+00  0.85278018863E+03  0.85278018863E+03  0.00000000000E+00 0. -1.
         -2   -1    0    0    0  501 -0.00000000000E+00 -0.00000000000E+00 -0.94816055159E+03  0.94816055159E+03  0.00000000000E+00 0.  1.
        -24    2    1    2    0    0 -0.47175529672E+03 -0.19605228672E+02 -0.51339218709E+03  0.70198505219E+03  0.79208905792E+02 0.  0.
        254    2    1    2    0    0  0.47175529672E+03  0.19605228672E+02  0.41801182413E+03  0.10989556880E+04  0.90001794101E+03 0.  0.
         23    2    4    4    0    0 -0.19762438441E+03 -0.94411079986E+02 -0.81836762449E+02  0.25093722201E+03  0.91122907997E+02 0.  0.
         23    2    4    4    0    0  0.66937968113E+03  0.11401630866E+03  0.49984858658E+03  0.84801846601E+03  0.90652264376E+02 0.  0.
          3    1    3    3  502    0 -0.21163381084E+02  0.69135382072E+01 -0.63711881269E+01  0.23157671463E+02  0.00000000000E+00 0. -1.
         -4    1    3    3    0  502 -0.45059191564E+03 -0.26518766879E+02 -0.50702099897E+03  0.67882738073E+03  0.00000000000E+00 0.  1.
         13    1    5    5    0    0 -0.56545485501E+02  0.11414250158E+02 -0.38432616233E+02  0.69316253705E+02  0.00000000000E+00 0. -1.
        -13    1    5    5    0    0 -0.14107889891E+03 -0.10582533014E+03 -0.43404146216E+02  0.18162096830E+03  0.00000000000E+00 0.  1.
          1    1    6    6  503    0  0.39855645154E+03  0.22684114304E+02  0.28709082928E+03  0.49171430563E+03  0.00000000000E+00 0. -1.
         -1    1    6    6    0  503  0.27082322959E+03  0.91332194354E+02  0.21275775731E+03  0.35630416038E+03  0.00000000000E+00 0.  1.
<mgrwt>
<rscale>  0 0.17984132E+04</rscale>
<asrwt>0</asrwt>
<pdfrwt beam="1">  1        1 0.13119695E+00 0.17984132E+04</pdfrwt>
<pdfrwt beam="2">  1       -2 0.14587085E+00 0.17984132E+04</pdfrwt>
<totfact> 0.53116030E+00</totfact>
</mgrwt>
</event>
<event>
12    5  0.5029243E-008  0.1668419E+04  0.7818608E-02  0.8779584E-01
         -2   -1    0    0    0  501 -0.00000000000E+00  0.00000000000E+00  0.41219215135E+03  0.41219215135E+03  0.00000000000E+00 0.  1.
          1   -1    0    0  501    0  0.00000000000E+00 -0.00000000000E+00 -0.16883039120E+04  0.16883039120E+04  0.00000000000E+00 0. -1.
        -24    2    1    2    0    0  0.23609794158E+02 -0.38436542583E+03  0.10525111383E+03  0.40707175297E+03  0.79595302340E+02 0.  0.
        254    2    1    2    0    0 -0.23609794158E+02  0.38436542583E+03 -0.13813628745E+04  0.16934243104E+04  0.90068213097E+03 0.  0.
         23    2    4    4    0    0  0.19262184247E+03  0.52333150066E+03 -0.12872783710E+04  0.14055825325E+04  0.87164313438E+02 0.  0.
         23    2    4    4    0    0 -0.21623163663E+03 -0.13896607484E+03 -0.94084503534E+02  0.28784177789E+03  0.89069100476E+02 0.  0.
          1    1    3    3  502    0  0.13817486342E+02 -0.20745612677E+03  0.15596285253E+02  0.20849990786E+03  0.00000000000E+00 0. -1.
         -2    1    3    3    0  502  0.97923078155E+01 -0.17690929906E+03  0.89654828576E+02  0.19857184511E+03  0.00000000000E+00 0.  1.
         13    1    5    5    0    0  0.12568681611E+03  0.22951018967E+03 -0.54906923854E+03  0.60823443803E+03  0.00000000000E+00 0. -1.
        -13    1    5    5    0    0  0.66935026364E+02  0.29382131100E+03 -0.73820913244E+03  0.79734809448E+03  0.00000000000E+00 0.  1.
          4    1    6    6  503    0 -0.79424674899E+02 -0.53389457412E+01 -0.40075562604E+02  0.89122578747E+02  0.00000000000E+00 0. -1.
         -4    1    6    6    0  503 -0.13680696173E+03 -0.13362712910E+03 -0.54008940930E+02  0.19871919914E+03  0.00000000000E+00 0.  1.
<mgrwt>
<rscale>  0 0.16684192E+04</rscale>
<asrwt>0</asrwt>
<pdfrwt beam="1">  1        1 0.25973907E+00 0.16684192E+04</pdfrwt>
<pdfrwt beam="2">  1       -2 0.63414176E-01 0.16684192E+04</pdfrwt>
<totfact> 0.93588484E+00</totfact>
</mgrwt>
</event>
<event>
12    5  0.5029243E-008  0.2113594E+04  0.7818608E-02  0.8555279E-01
          1   -1    0    0  501    0  0.00000000000E+00  0.00000000000E+00  0.11205673696E+04  0.11205673696E+04  0.00000000000E+00 0. -1.
         -2   -1    0    0    0  501 -0.00000000000E+00 -0.00000000000E+00 -0.99665579015E+03  0.99665579015E+03  0.00000000000E+00 0.  1.
        -24    2    1    2    0    0 -0.34588870769E+03  0.60288181387E+03  0.57077885405E+03  0.90273763498E+03  0.77725528497E+02 0.  0.
        254    2    1    2    0    0  0.34588870769E+03 -0.60288181387E+03 -0.44686727458E+03  0.12144855248E+04  0.89004452091E+03 0.  0.
         23    2    4    4    0    0  0.47199315824E+03 -0.73545404595E+03 -0.21399757000E+03  0.90444882246E+03  0.92533871399E+02 0.  0.
         23    2    4    4    0    0 -0.12610445055E+03  0.13257223207E+03 -0.23286970458E+03  0.31003670232E+03  0.91742728910E+02 0.  0.
          3    1    3    3  502    0 -0.27653973108E+03  0.50327904692E+03  0.50486969375E+03  0.76462894897E+03  0.00000000000E+00 0. -1.
         -4    1    3    3    0  502 -0.69348976608E+02  0.99602766952E+02  0.65909160301E+02  0.13810868601E+03  0.00000000000E+00 0.  1.
         13    1    5    5    0    0  0.38738748546E+03 -0.53890841201E+03 -0.14233856181E+03  0.67878686390E+03  0.00000000000E+00 0.  1.
        -13    1    5    5    0    0  0.84605672789E+02 -0.19654563393E+03 -0.71659008189E+02  0.22566195856E+03  0.00000000000E+00 0. -1.
          1    1    6    6  503    0 -0.77425545522E+02  0.13491872473E+03 -0.16893056221E+03  0.22964170403E+03  0.00000000000E+00 0. -1.
         -1    1    6    6    0  503 -0.48678905031E+02 -0.23464926549E+01 -0.63939142374E+02  0.80394998292E+02  0.00000000000E+00 0.  1.
<mgrwt>
<rscale>  0 0.21135941E+04</rscale>
<asrwt>0</asrwt>
<pdfrwt beam="1">  1        1 0.17239498E+00 0.21135941E+04</pdfrwt>
<pdfrwt beam="2">  1       -2 0.15333166E+00 0.21135941E+04</pdfrwt>
<totfact> 0.27855329E+00</totfact>
</mgrwt>
</event>
<event>
12    5  0.5029243E-008  0.1780757E+04  0.7818608E-02  0.8716600E-01
         -2   -1    0    0    0  501 -0.00000000000E+00  0.00000000000E+00  0.14822846395E+04  0.14822846395E+04  0.00000000000E+00 0.  1.
          1   -1    0    0  501    0  0.00000000000E+00 -0.00000000000E+00 -0.53483254745E+03  0.53483254745E+03  0.00000000000E+00 0. -1.
        -24    2    1    2    0    0 -0.50096260518E+02  0.60569532001E+03  0.64448264600E+03  0.88983102285E+03  0.84053032270E+02 0.  0.
        254    2    1    2    0    0  0.50096260518E+02 -0.60569532001E+03  0.30296944606E+03  0.11272861641E+04  0.89978172605E+03 0.  0.
         23    2    4    4    0    0 -0.24347137872E+03 -0.68263040518E+03  0.69516887654E+02  0.73370053844E+03  0.90671385266E+02 0.  0.
         23    2    4    4    0    0  0.29356763924E+03  0.76935085166E+02  0.23345255841E+03  0.39358562567E+03  0.91151421075E+02 0.  0.
          3    1    3    3  502    0 -0.14671570835E+02  0.13257028956E+03  0.19515726760E+03  0.23638209696E+03  0.00000000000E+00 0. -1.
         -4    1    3    3    0  502 -0.35424689683E+02  0.47312503045E+03  0.44932537839E+03  0.65344892589E+03  0.00000000000E+00 0.  1.
         13    1    5    5    0    0 -0.12190020149E+03 -0.42551931722E+03  0.76566886988E+02  0.44920912350E+03  0.00000000000E+00 0.  1.
        -13    1    5    5    0    0 -0.12157117723E+03 -0.25711108796E+03 -0.70499993340E+01  0.28449141494E+03  0.00000000000E+00 0. -1.
          3    1    6    6  503    0  0.20651520861E+03  0.37686697693E+02  0.20625766298E+03  0.29429754010E+03  0.00000000000E+00 0. -1.
         -3    1    6    6    0  503  0.87052430629E+02  0.39248387474E+02  0.27194895427E+02  0.99288085564E+02  0.00000000000E+00 0.  1.
<mgrwt>
<rscale>  0 0.17807572E+04</rscale>
<asrwt>0</asrwt>
<pdfrwt beam="1">  1        1 0.82281931E-01 0.17807572E+04</pdfrwt>
<pdfrwt beam="2">  1       -2 0.22804379E+00 0.17807572E+04</pdfrwt>
<totfact> 0.29338262E+00</totfact>
</mgrwt>
</event>
<event>
12    5  0.5029243E-008  0.1937165E+04  0.7818608E-02  0.8636575E-01
         -2   -1    0    0    0  501 -0.00000000000E+00  0.00000000000E+00  0.32662631190E+03  0.32662631190E+03  0.00000000000E+00 0.  1.
          1   -1    0    0  501    0  0.00000000000E+00 -0.00000000000E+00 -0.28722502377E+04  0.28722502377E+04  0.00000000000E+00 0. -1.
        -24    2    1    2    0    0  0.16573152483E+03 -0.33271021730E+03  0.88362460171E+02  0.39005481101E+03  0.78560831262E+02 0.  0.
        254    2    1    2    0    0 -0.16573152483E+03  0.33271021730E+03 -0.26339863860E+04  0.28088217386E+04  0.90190479026E+03 0.  0.
         23    2    4    4    0    0  0.32881136201E+03  0.20208641897E+03 -0.16393603006E+04  0.16866741865E+04  0.91715777083E+02 0.  0.
         23    2    4    4    0    0 -0.49454288684E+03  0.13062379832E+03 -0.99462608536E+03  0.11221475521E+04  0.91097943449E+02 0.  0.
          1    1    3    3  502    0  0.75588196806E-02 -0.64249699054E+02  0.19379597324E+02  0.67108812224E+02  0.00000000000E+00 0. -1.
         -2    1    3    3    0  502  0.16572396601E+03 -0.26846051824E+03  0.68982862847E+02  0.32294599879E+03  0.00000000000E+00 0.  1.
         13    1    5    5    0    0  0.98553573446E+00  0.15019583814E+02 -0.12859867335E+03  0.12947655374E+03  0.00000000000E+00 0.  1.
        -13    1    5    5    0    0  0.32782582628E+03  0.18706683516E+03 -0.15107616273E+04  0.15571976328E+04  0.00000000000E+00 0. -1.
          3    1    6    6  503    0 -0.48777697977E+03  0.11667433345E+03 -0.97976319508E+03  0.11006703414E+04  0.00000000000E+00 0. -1.
         -3    1    6    6    0  503 -0.67659070731E+01  0.13949464873E+02 -0.14862890276E+02  0.21477210622E+02  0.00000000000E+00 0.  1.
<mgrwt>
<rscale>  0 0.19371655E+04</rscale>
<asrwt>0</asrwt>
<pdfrwt beam="1">  1        1 0.44188465E+00 0.19371655E+04</pdfrwt>
<pdfrwt beam="2">  1       -2 0.50250202E-01 0.19371655E+04</pdfrwt>
<totfact> 0.22743153E+00</totfact>
</mgrwt>
</event>
<event>
12    5  0.6281308E-008  0.1883490E+04  0.7818608E-02  0.8663118E-01
         -4   -1    0    0    0  501 -0.00000000000E+00  0.00000000000E+00  0.11410951009E+04  0.11410951009E+04  0.00000000000E+00 0.  1.
          3   -1    0    0  501    0  0.00000000000E+00 -0.00000000000E+00 -0.77722142359E+03  0.77722142359E+03  0.00000000000E+00 0. -1.
        -24    2    1    2    0    0  0.51768708368E+03 -0.11363511945E+03 -0.35293293944E+03  0.64251161974E+03  0.85712687400E+02 0.  0.
        254    2    1    2    0    0 -0.51768708368E+03  0.11363511945E+03  0.71680661677E+03  0.12758049048E+04  0.91266290176E+03 0.  0.
         23    2    4    4    0    0 -0.64022511876E+03  0.34344166050E+03  0.33653019184E+03  0.80593023749E+03  0.91818303304E+02 0.  0.
         23    2    4    4    0    0  0.12253803508E+03 -0.22980654105E+03  0.38027642494E+03  0.46987466730E+03  0.91353310054E+02 0.  0.
          3    1    3    3  502    0  0.47570106224E+03 -0.79676457358E+02 -0.30817243587E+03  0.57237233398E+03  0.00000000000E+00 0. -1.
         -4    1    3    3    0  502  0.41986021433E+02 -0.33958662097E+02 -0.44760503562E+02  0.70139285756E+02  0.00000000000E+00 0.  1.
         13    1    5    5    0    0 -0.20407137071E+03  0.10690435412E+03  0.60660911652E+02  0.23822974515E+03  0.00000000000E+00 0.  1.
        -13    1    5    5    0    0 -0.43615374805E+03  0.23653730638E+03  0.27586928019E+03  0.56770049234E+03  0.00000000000E+00 0. -1.
          1    1    6    6  503    0  0.33342976152E+01 -0.71411461732E+01  0.67025900135E+02  0.67487664045E+02  0.00000000000E+00 0.  1.
         -1    1    6    6    0  503  0.11920373747E+03 -0.22266539487E+03  0.31325052480E+03  0.40238700326E+03  0.00000000000E+00 0. -1.
<mgrwt>
<rscale>  0 0.18834899E+04</rscale>
<asrwt>0</asrwt>
<pdfrwt beam="1">  1        3 0.11957253E+00 0.18834899E+04</pdfrwt>
<pdfrwt beam="2">  1       -4 0.17555309E+00 0.18834899E+04</pdfrwt>
<totfact> 0.23668550E-01</totfact>
</mgrwt>
</event>
<event>
12    5  0.5029243E-008  0.2905811E+04  0.7818608E-02  0.8271151E-01
          1   -1    0    0  501    0  0.00000000000E+00  0.00000000000E+00  0.17400347854E+04  0.17400347854E+04  0.00000000000E+00 0. -1.
         -2   -1    0    0    0  501 -0.00000000000E+00 -0.00000000000E+00 -0.12131567739E+04  0.12131567739E+04  0.00000000000E+00 0.  1.
        -24    2    1    2    0    0  0.10779555631E+03 -0.27606383153E+03 -0.10616754587E+04  0.11051076208E+04  0.79227222523E+02 0.  0.
        254    2    1    2    0    0 -0.10779555631E+03  0.27606383153E+03  0.15885534703E+04  0.18480839385E+04  0.89670563434E+03 0.  0.
         23    2    4    4    0    0  0.40962843694E+02 -0.19764370140E+03  0.48910629807E+02  0.22734867830E+03  0.92488834728E+02 0.  0.
         23    2    4    4    0    0 -0.14875840001E+03  0.47370753294E+03  0.15396428405E+04  0.16207352602E+04  0.98766487302E+02 0.  0.
          3    1    3    3  502    0  0.54890635894E+02 -0.11932911015E+03 -0.61285643844E+03  0.62677382889E+03  0.00000000000E+00 0. -1.
         -4    1    3    3    0  502  0.52904920421E+02 -0.15673472139E+03 -0.44881902030E+03  0.47833379190E+03  0.00000000000E+00 0.  1.
         13    1    5    5    0    0  0.30749957221E+02 -0.14817631856E+03 -0.76380843973E+01  0.15152597659E+03  0.00000000000E+00 0. -1.
        -13    1    5    5    0    0  0.10212886473E+02 -0.49467382848E+02  0.56548714204E+02  0.75822701706E+02  0.00000000000E+00 0.  1.
          4    1    6    6  503    0 -0.54668307832E+02  0.28408995616E+03  0.10018034210E+04  0.10427395750E+04  0.00000000000E+00 0. -1.
         -4    1    6    6    0  503 -0.94090092176E+02  0.18961757678E+03  0.53783941947E+03  0.57799568511E+03  0.00000000000E+00 0.  1.
<mgrwt>
<rscale>  0 0.29058114E+04</rscale>
<asrwt>0</asrwt>
<pdfrwt beam="1">  1        1 0.26769766E+00 0.29058114E+04</pdfrwt>
<pdfrwt beam="2">  1       -2 0.18663950E+00 0.29058114E+04</pdfrwt>
<totfact> 0.55101484E-01</totfact>
</mgrwt>
</event>
<event>
12    5  0.5029243E-008  0.1905573E+04  0.7818608E-02  0.8652088E-01
          1   -1    0    0  501    0  0.00000000000E+00  0.00000000000E+00  0.10717067945E+04  0.10717067945E+04  0.00000000000E+00 0. -1.
         -2   -1    0    0    0  501 -0.00000000000E+00 -0.00000000000E+00 -0.84706163857E+03  0.84706163857E+03  0.00000000000E+00 0.  1.
        -24    2    1    2    0    0 -0.54463057151E+03 -0.40635596550E+03 -0.16017273251E+03  0.70264000732E+03  0.79372826120E+02 0.  0.
        254    2    1    2    0    0  0.54463057151E+03  0.40635596550E+03  0.38481788841E+03  0.12161284257E+04  0.93227458964E+03 0.  0.
         23    2    4    4    0    0  0.13030930854E+03 -0.20422965427E+03  0.39720820289E+03  0.47377253082E+03  0.89419164244E+02 0.  0.
         23    2    4    4    0    0  0.41432126297E+03  0.61058561978E+03 -0.12390314480E+02  0.74235589491E+03  0.80385613053E+02 0.  0.
          3    1    3    3  502    0 -0.33584778981E+03 -0.27404974903E+03 -0.67658106004E+02  0.43871929769E+03  0.00000000000E+00 0. -1.
         -4    1    3    3    0  502 -0.20878278171E+03 -0.13230621648E+03 -0.92514626501E+02  0.26392070963E+03  0.00000000000E+00 0.  1.
         13    1    5    5    0    0  0.61274463089E+02 -0.14686375967E+03  0.31085279732E+03  0.34921767614E+03  0.00000000000E+00 0. -1.
        -13    1    5    5    0    0  0.69034845456E+02 -0.57365894608E+02  0.86355405576E+02  0.12455485468E+03  0.00000000000E+00 0.  1.
          3    1    6    6  503    0  0.37343109676E+03  0.50444327176E+03 -0.23522930950E+02  0.62806618022E+03  0.00000000000E+00 0. -1.
         -3    1    6    6    0  503  0.40890166211E+02  0.10614234801E+03  0.11132616470E+02  0.11428971469E+03  0.00000000000E+00 0.  1.
<mgrwt>
<rscale>  0 0.19055726E+04</rscale>
<asrwt>0</asrwt>
<pdfrwt beam="1">  1        1 0.16487797E+00 0.19055726E+04</pdfrwt>
<pdfrwt beam="2">  1       -2 0.13031717E+00 0.19055726E+04</pdfrwt>
<totfact> 0.47144168E+00</totfact>
</mgrwt>
</event>
<event>
12    5  0.5029243E-008  0.2272528E+04  0.7818608E-02  0.8488832E-01
          1   -1    0    0  501    0  0.00000000000E+00  0.00000000000E+00  0.15665793710E+04  0.15665793710E+04  0.00000000000E+00 0. -1.
         -2   -1    0    0    0  501 -0.00000000000E+00 -0.00000000000E+00 -0.82415002937E+03  0.82415002937E+03  0.00000000000E+00 0.  1.
        -24    2    1    2    0    0 -0.81502153327E+03  0.27026018940E+03 -0.11485976905E+03  0.86991557522E+03  0.79118087644E+02 0.  0.
        254    2    1    2    0    0  0.81502153327E+03 -0.27026018940E+03  0.85728911071E+03  0.15208138252E+04  0.91685844155E+03 0.  0.
         23    2    4    4    0    0  0.10629003653E+03 -0.41459283608E+03  0.61270277706E+02  0.44150200429E+03  0.89359841488E+02 0.  0.
         23    2    4    4    0    0  0.70873149674E+03  0.14433264668E+03  0.79601883301E+03  0.10793118209E+04  0.90198541188E+02 0.  0.
          1    1    3    3  502    0 -0.38751023458E+03  0.12121106831E+03 -0.15096597093E+02  0.40630556510E+03  0.00000000000E+00 0. -1.
         -2    1    3    3    0  502 -0.42751129869E+03  0.14904912109E+03 -0.99763171957E+02  0.46361001012E+03  0.00000000000E+00 0.  1.
         13    1    5    5    0    0  0.11360393176E+03 -0.41440127428E+03  0.62034611380E+02  0.43414578479E+03  0.00000000000E+00 0.  1.
        -13    1    5    5    0    0 -0.73138952363E+01 -0.19156179665E+00 -0.76433367342E+00  0.73562195055E+01  0.00000000000E+00 0. -1.
          3    1    6    6  503    0  0.50445407449E+03  0.87385270362E+02  0.50404842561E+03  0.71845313982E+03  0.00000000000E+00 0. -1.
         -3    1    6    6    0  503  0.20427742225E+03  0.56947376315E+02  0.29197040739E+03  0.36085868107E+03  0.00000000000E+00 0.  1.
<mgrwt>
<rscale>  0 0.22725285E+04</rscale>
<asrwt>0</asrwt>
<pdfrwt beam="1">  1        1 0.24101221E+00 0.22725285E+04</pdfrwt>
<pdfrwt beam="2">  1       -2 0.12679231E+00 0.22725285E+04</pdfrwt>
<totfact> 0.21653638E+00</totfact>
</mgrwt>
</event>
<event>
12    5  0.5029243E-008  0.1283546E+04  0.7818608E-02  0.9042716E-01
          1   -1    0    0  501    0  0.00000000000E+00  0.00000000000E+00  0.15689510870E+04  0.15689510870E+04  0.00000000000E+00 0. -1.
         -2   -1    0    0    0  501 -0.00000000000E+00 -0.00000000000E+00 -0.26251445363E+03  0.26251445363E+03  0.00000000000E+00 0.  1.
        -24    2    1    2    0    0  0.12224932987E+03  0.19132929933E+03 -0.81674059673E+01  0.24078500669E+03  0.79742795849E+02 0.  0.
        254    2    1    2    0    0 -0.12224932987E+03 -0.19132929933E+03  0.13146040393E+04  0.15906805339E+04  0.86633075748E+03 0.  0.
         23    2    4    4    0    0 -0.12629989125E+03 -0.23279878412E+03  0.10239159969E+02  0.28254358122E+03  0.97872868937E+02 0.  0.
         23    2    4    4    0    0  0.40505613755E+01  0.41469484789E+02  0.13043648794E+04  0.13081369527E+04  0.90102293625E+02 0.  0.
          3    1    3    3  502    0  0.33261249282E+01  0.26661701028E+02  0.22898242548E+02  0.35302109292E+02  0.00000000000E+00 0. -1.
         -4    1    3    3    0  502  0.11892320494E+03  0.16466759830E+03 -0.31065648515E+02  0.20548289740E+03  0.00000000000E+00 0.  1.
         13    1    5    5    0    0 -0.49827378846E+02 -0.79368764146E+02  0.50491308646E+02  0.10644970950E+03  0.00000000000E+00 0.  1.
        -13    1    5    5    0    0 -0.76472512402E+02 -0.15343001997E+03 -0.40252148677E+02  0.17609387171E+03  0.00000000000E+00 0. -1.
          2    1    6    6  503    0 -0.99553616747E+01  0.41362529068E+02  0.12738599971E+04  0.12745702257E+04  0.00000000000E+00 0. -1.
         -2    1    6    6    0  503  0.14005923050E+02  0.10695572098E+00  0.30504882240E+02  0.33566726985E+02  0.00000000000E+00 0.  1.
<mgrwt>
<rscale>  0 0.12835456E+04</rscale>
<asrwt>0</asrwt>
<pdfrwt beam="1">  1        1 0.24137709E+00 0.12835456E+04</pdfrwt>
<pdfrwt beam="2">  1       -2 0.40386840E-01 0.12835456E+04</pdfrwt>
<totfact> 0.29366393E+01</totfact>
</mgrwt>
</event>
<event>
12    5  0.5029243E-008  0.1687400E+04  0.7818608E-02  0.8768583E-01
          1   -1    0    0  501    0  0.00000000000E+00  0.00000000000E+00  0.51306523079E+03  0.51306523079E+03  0.00000000000E+00 0. -1.
         -2   -1    0    0    0  501 -0.00000000000E+00 -0.00000000000E+00 -0.13874061163E+04  0.13874061163E+04  0.00000000000E+00 0.  1.
        -24    2    1    2    0    0 -0.31579565810E+03  0.49535662053E+03 -0.22242400722E+03  0.63318591213E+03  0.79667315474E+02 0.  0.
        254    2    1    2    0    0  0.31579565810E+03 -0.49535662053E+03 -0.65191687833E+03  0.12672854350E+04  0.91428205624E+03 0.  0.
         23    2    4    4    0    0 -0.25569282263E+03 -0.16138563761E+03 -0.48563363443E+03  0.57883406594E+03  0.88230977696E+02 0.  0.
         23    2    4    4    0    0  0.57148848073E+03 -0.33397098292E+03 -0.16628324390E+03  0.68845136907E+03  0.90440418707E+02 0.  0.
          1    1    3    3  502    0 -0.13545711164E+03  0.20383347433E+03 -0.13464606917E+03  0.27933184261E+03  0.00000000000E+00 0. -1.
         -2    1    3    3    0  502 -0.18033854647E+03  0.29152314620E+03 -0.87777938050E+02  0.35385406952E+03  0.00000000000E+00 0.  1.
         13    1    5    5    0    0 -0.20332451123E+03 -0.10413243978E+03 -0.41592104327E+03  0.47452580132E+03  0.00000000000E+00 0.  1.
        -13    1    5    5    0    0 -0.52368311406E+02 -0.57253197834E+02 -0.69712591159E+02  0.10430826462E+03  0.00000000000E+00 0. -1.
          1    1    6    6  503    0  0.12212645992E+03 -0.82432575132E+02 -0.75417150917E+02  0.16552265195E+03  0.00000000000E+00 0. -1.
         -1    1    6    6    0  503  0.44936202081E+03 -0.25153840779E+03 -0.90866092982E+02  0.52292871713E+03  0.00000000000E+00 0.  1.
<mgrwt>
<rscale>  0 0.16874002E+04</rscale>
<asrwt>0</asrwt>
<pdfrwt beam="1">  1        1 0.78933114E-01 0.16874002E+04</pdfrwt>
<pdfrwt beam="2">  1       -2 0.21344709E+00 0.16874002E+04</pdfrwt>
<totfact> 0.38754263E+00</totfact>
</mgrwt>
</event>
<event>
12    5  0.5029243E-008  0.1921677E+04  0.7818608E-02  0.8644141E-01
          1   -1    0    0  501    0  0.00000000000E+00  0.00000000000E+00  0.10796351830E+04  0.10796351830E+04  0.00000000000E+00 0. -1.
         -2   -1    0    0    0  501 -0.00000000000E+00 -0.00000000000E+00 -0.85511380718E+03  0.85511380718E+03  0.00000000000E+00 0.  1.
        -24    2    1    2    0    0 -0.19331447194E+03  0.18810718602E+03  0.79701008415E+03  0.84514899035E+03  0.79353280692E+02 0.  0.
        254    2    1    2    0    0  0.19331447194E+03 -0.18810718602E+03 -0.57248870836E+03  0.10895999998E+04  0.88697803798E+03 0.  0.
         23    2    4    4    0    0  0.41332258335E+02  0.13702115955E+03 -0.68265359440E+03  0.70344386091E+03  0.91291739792E+02 0.  0.
         23    2    4    4    0    0  0.15198221360E+03 -0.32512834557E+03  0.11016488604E+03  0.38615613889E+03  0.90405902130E+02 0.  0.
          1    1    3    3  502    0 -0.16431084411E+03  0.16405670493E+03  0.74873246400E+03  0.78390876929E+03  0.00000000000E+00 0. -1.
         -2    1    3    3    0  502 -0.29003627826E+02  0.24050481092E+02  0.48277620156E+02  0.61240221062E+02  0.00000000000E+00 0.  1.
         13    1    5    5    0    0  0.31110651867E+02 -0.94037591196E+00 -0.11013105269E+03  0.11444477154E+03  0.00000000000E+00 0. -1.
        -13    1    5    5    0    0  0.10221606469E+02  0.13796153546E+03 -0.57252254172E+03  0.58899908937E+03  0.00000000000E+00 0.  1.
          2    1    6    6  503    0  0.12374599448E+03 -0.23621631627E+03  0.40495912048E+02  0.26972418897E+03  0.00000000000E+00 0. -1.
         -2    1    6    6    0  503  0.28236219115E+02 -0.88912029304E+02  0.69668973994E+02  0.11643194992E+03  0.00000000000E+00 0.  1.
<mgrwt>
<rscale>  0 0.19216773E+04</rscale>
<asrwt>0</asrwt>
<pdfrwt beam="1">  1        1 0.16609772E+00 0.19216773E+04</pdfrwt>
<pdfrwt beam="2">  1       -2 0.13155597E+00 0.19216773E+04</pdfrwt>
<totfact> 0.45329726E+00</totfact>
</mgrwt>
</event>
<event>
12    5  0.5029243E-008  0.1921557E+04  0.7818608E-02  0.8644200E-01
          1   -1    0    0  501    0  0.00000000000E+00  0.00000000000E+00  0.21627246117E+04  0.21627246117E+04  0.00000000000E+00 0. -1.
         -2   -1    0    0    0  501 -0.00000000000E+00 -0.00000000000E+00 -0.42682065518E+03  0.42682065518E+03  0.00000000000E+00 0.  1.
        -24    2    1    2    0    0 -0.49675124696E+03 -0.51770039830E+03  0.40231411138E+03  0.82609935120E+03  0.76210170414E+02 0.  0.
        254    2    1    2    0    0  0.49675124696E+03  0.51770039830E+03  0.13335898451E+04  0.17634459156E+04  0.90360617454E+03 0.  0.
         23    2    4    4    0    0  0.36012811652E+03  0.71359402153E+03  0.65130473647E+03  0.10349985095E+04  0.90085331791E+02 0.  0.
         23    2    4    4    0    0  0.13662313044E+03 -0.19589362323E+03  0.68228510862E+03  0.72844740615E+03  0.89902517714E+02 0.  0.
          3    1    3    3  502    0 -0.40148718408E+03 -0.43828135854E+03  0.36078509173E+03  0.69530453087E+03  0.00000000000E+00 0. -1.
         -4    1    3    3    0  502 -0.95264062879E+02 -0.79419039758E+02  0.41529019650E+02  0.13079482033E+03  0.00000000000E+00 0.  1.
         13    1    5    5    0    0  0.23941525509E+02  0.26822871710E+02  0.10800344549E+02  0.37540784926E+02  0.00000000000E+00 0. -1.
        -13    1    5    5    0    0  0.33618659101E+03  0.68677114982E+03  0.64050439192E+03  0.99745772456E+03  0.00000000000E+00 0.  1.
          2    1    6    6  503    0  0.22090802621E+01 -0.58652245935E+02  0.22327175389E+03  0.23085762295E+03  0.00000000000E+00 0. -1.
         -2    1    6    6    0  503  0.13441405017E+03 -0.13724137730E+03  0.45901335473E+03  0.49758978320E+03  0.00000000000E+00 0.  1.
<mgrwt>
<rscale>  0 0.19215572E+04</rscale>
<asrwt>0</asrwt>
<pdfrwt beam="1">  1        1 0.33272686E+00 0.19215572E+04</pdfrwt>
<pdfrwt beam="2">  1       -2 0.65664718E-01 0.19215572E+04</pdfrwt>
<totfact> 0.40469672E+00</totfact>
</mgrwt>
</event>
<event>
12    5  0.5029243E-008  0.1635599E+04  0.7818608E-02  0.8798972E-01
          1   -1    0    0  501    0  0.00000000000E+00  0.00000000000E+00  0.51609884672E+03  0.51609884672E+03  0.00000000000E+00 0. -1.
         -2   -1    0    0    0  501 -0.00000000000E+00 -0.00000000000E+00 -0.12958680284E+04  0.12958680284E+04  0.00000000000E+00 0.  1.
        -24    2    1    2    0    0  0.14177005339E+03 -0.10567926131E+03 -0.87064761766E+03  0.89103902936E+03  0.68237990930E+02 0.  0.
        254    2    1    2    0    0 -0.14177005339E+03  0.10567926131E+03  0.90878436020E+02  0.92092784571E+03  0.89921207318E+03 0.  0.
         23    2    4    4    0    0  0.31554438854E+03 -0.16999761104E+03 -0.57659733286E+01  0.37108602371E+03  0.95938217856E+02 0.  0.
         23    2    4    4    0    0 -0.45731444193E+03  0.27567687234E+03  0.96644409349E+02  0.54984182200E+03  0.88609540244E+02 0.  0.
          3    1    3    3  502    0  0.68457797495E+02 -0.73602767515E+02 -0.34534591185E+03  0.35967712779E+03  0.00000000000E+00 0. -1.
         -4    1    3    3    0  502  0.73312255895E+02 -0.32076493791E+02 -0.52530170581E+03  0.53136190158E+03  0.00000000000E+00 0.  1.
         13    1    5    5    0    0  0.22735247334E+03 -0.13655743179E+03 -0.44873531708E+02  0.26898087880E+03  0.00000000000E+00 0. -1.
        -13    1    5    5    0    0  0.88191915198E+02 -0.33440179250E+02  0.39107558380E+02  0.10210514491E+03  0.00000000000E+00 0.  1.
          3    1    6    6  503    0 -0.25359572053E+03  0.16699754437E+03  0.97605392787E+02  0.31894479459E+03  0.00000000000E+00 0. -1.
         -3    1    6    6    0  503 -0.20371872140E+03  0.10867932798E+03 -0.96098343837E+00  0.23089702741E+03  0.00000000000E+00 0.  1.
<mgrwt>
<rscale>  0 0.16355990E+04</rscale>
<asrwt>0</asrwt>
<pdfrwt beam="1">  1        1 0.79399823E-01 0.16355990E+04</pdfrwt>
<pdfrwt beam="2">  1       -2 0.19936431E+00 0.16355990E+04</pdfrwt>
<totfact> 0.47629611E+00</totfact>
</mgrwt>
</event>
<event>
12    5  0.5029243E-008  0.1436422E+04  0.7818608E-02  0.8927869E-01
          1   -1    0    0  501    0  0.00000000000E+00  0.00000000000E+00  0.18665041742E+04  0.18665041742E+04  0.00000000000E+00 0. -1.
         -2   -1    0    0    0  501 -0.00000000000E+00 -0.00000000000E+00 -0.27635981670E+03  0.27635981670E+03  0.00000000000E+00 0.  1.
        -24    2    1    2    0    0 -0.24059114540E+03  0.10843885499E+03  0.99215488968E+03  0.10296742307E+04  0.78832808134E+02 0.  0.
        254    2    1    2    0    0  0.24059114540E+03 -0.10843885499E+03  0.59798946779E+03  0.11131897602E+04  0.90108654086E+03 0.  0.
         23    2    4    4    0    0 -0.78001825336E+02 -0.41895758810E+03  0.11543450541E+03  0.45063125521E+03  0.90186793633E+02 0.  0.
         23    2    4    4    0    0  0.31859297074E+03  0.31051873312E+03  0.48255496238E+03  0.66255850500E+03  0.90560014383E+02 0.  0.
          3    1    3    3  502    0 -0.11487283501E+03  0.90409128749E+02  0.59563392233E+03  0.61331015662E+03  0.00000000000E+00 0. -1.
         -4    1    3    3    0  502 -0.12571831040E+03  0.18029726239E+02  0.39652096735E+03  0.41636407404E+03  0.00000000000E+00 0.  1.
         13    1    5    5    0    0 -0.20943639874E+02 -0.25823232214E+03  0.32909798971E+02  0.26116206294E+03  0.00000000000E+00 0.  1.
        -13    1    5    5    0    0 -0.57058185462E+02 -0.16072526596E+03  0.82524706435E+02  0.18946919227E+03  0.00000000000E+00 0. -1.
          3    1    6    6  503    0  0.70802273930E+02  0.24563556972E+02  0.66700838945E+02  0.10032612940E+03  0.00000000000E+00 0. -1.
         -3    1    6    6    0  503  0.24779069681E+03  0.28595517614E+03  0.41585412344E+03  0.56223237560E+03  0.00000000000E+00 0.  1.
<mgrwt>
<rscale>  0 0.14364216E+04</rscale>
<asrwt>0</asrwt>
<pdfrwt beam="1">  1        1 0.28715448E+00 0.14364216E+04</pdfrwt>
<pdfrwt beam="2">  1       -2 0.42516896E-01 0.14364216E+04</pdfrwt>
<totfact> 0.16438681E+01</totfact>
</mgrwt>
</event>
<event>
12    5  0.5029243E-008  0.1353127E+04  0.7818608E-02  0.8988465E-01
         -2   -1    0    0    0  501 -0.00000000000E+00  0.00000000000E+00  0.14014769870E+04  0.14014769870E+04  0.00000000000E+00 0.  1.
          1   -1    0    0  501    0  0.00000000000E+00 -0.00000000000E+00 -0.32661111830E+03  0.32661111830E+03  0.00000000000E+00 0. -1.
        -24    2    1    2    0    0 -0.20359453478E+03  0.47383482726E+02  0.74803332240E+03  0.78092311761E+03  0.81185806442E+02 0.  0.
        254    2    1    2    0    0  0.20359453478E+03 -0.47383482726E+02  0.32683254628E+03  0.94716498767E+03  0.86406369645E+03 0.  0.
         23    2    4    4    0    0  0.27063500114E+03 -0.39309998028E+03  0.45026795129E+02  0.48769885796E+03  0.89732187326E+02 0.  0.
         23    2    4    4    0    0 -0.67040466360E+02  0.34571649755E+03  0.28180575115E+03  0.45946612970E+03  0.87637447227E+02 0.  0.
          3    1    3    3  502    0 -0.58601233585E+02 -0.22929038364E+02  0.19635448473E+03  0.20619148637E+03  0.00000000000E+00 0. -1.
         -4    1    3    3    0  502 -0.14499330119E+03  0.70312521089E+02  0.55167883766E+03  0.57473163123E+03  0.00000000000E+00 0.  1.
         13    1    5    5    0    0  0.57640046814E+02 -0.14821638469E+03  0.35825680227E+02  0.16301518657E+03  0.00000000000E+00 0. -1.
        -13    1    5    5    0    0  0.21299495433E+03 -0.24488359558E+03  0.92011149020E+01  0.32468367139E+03  0.00000000000E+00 0.  1.
          2    1    6    6  503    0  0.19593394142E+02  0.10569062024E+03  0.76219915991E+02  0.13177209072E+03  0.00000000000E+00 0. -1.
         -2    1    6    6    0  503 -0.86633860502E+02  0.24002587731E+03  0.20558583516E+03  0.32769403898E+03  0.00000000000E+00 0.  1.
<mgrwt>
<rscale>  0 0.13531267E+04</rscale>
<asrwt>0</asrwt>
<pdfrwt beam="1">  1        1 0.50247865E-01 0.13531267E+04</pdfrwt>
<pdfrwt beam="2">  1       -2 0.21561184E+00 0.13531267E+04</pdfrwt>
<totfact> 0.70620564E+00</totfact>
</mgrwt>
</event>
<event>
12    5  0.5029243E-008  0.2925127E+04  0.7818608E-02  0.8265440E-01
         -2   -1    0    0    0  501 -0.00000000000E+00  0.00000000000E+00  0.11464843055E+04  0.11464843055E+04  0.00000000000E+00 0.  1.
          1   -1    0    0  501    0  0.00000000000E+00 -0.00000000000E+00 -0.18657844356E+04  0.18657844356E+04  0.00000000000E+00 0. -1.
        -24    2    1    2    0    0 -0.38837393669E+03  0.57126155309E+03  0.83374560920E+03  0.10856916138E+04  0.80127790278E+02 0.  0.
        254    2    1    2    0    0  0.38837393669E+03 -0.57126155309E+03 -0.15530457393E+04  0.19265771272E+04  0.90695880956E+03 0.  0.
         23    2    4    4    0    0  0.14894244285E+03  0.23478090247E+03 -0.44758554139E+03  0.53451616783E+03  0.89826462518E+02 0.  0.
         23    2    4    4    0    0  0.23943149384E+03 -0.80604245556E+03 -0.11054601979E+04  0.13920609594E+04  0.93592655839E+02 0.  0.
          3    1    3    3  502    0 -0.20700893797E+03  0.33308221101E+03  0.41551191554E+03  0.57135506618E+03  0.00000000000E+00 0. -1.
         -4    1    3    3    0  502 -0.18136499872E+03  0.23817934208E+03  0.41823369366E+03  0.51433654767E+03  0.00000000000E+00 0.  1.
         13    1    5    5    0    0  0.52619544451E+02  0.96850916600E+02 -0.10208881807E+03  0.15023662429E+03  0.00000000000E+00 0. -1.
        -13    1    5    5    0    0  0.96322898399E+02  0.13792998587E+03 -0.34549672332E+03  0.38427954354E+03  0.00000000000E+00 0.  1.
          1    1    6    6  503    0  0.20293675512E+03 -0.63252875060E+03 -0.92749389609E+03  0.11408421776E+04  0.00000000000E+00 0. -1.
         -1    1    6    6    0  503  0.36494738716E+02 -0.17351370496E+03 -0.17796630179E+03  0.25121878181E+03  0.00000000000E+00 0.  1.
<mgrwt>
<rscale>  0 0.29251274E+04</rscale>
<asrwt>0</asrwt>
<pdfrwt beam="1">  1        1 0.28704375E+00 0.29251274E+04</pdfrwt>
<pdfrwt beam="2">  1       -2 0.17638220E+00 0.29251274E+04</pdfrwt>
<totfact> 0.53166926E-01</totfact>
</mgrwt>
</event>
<event>
12    5  0.5029243E-008  0.3692819E+04  0.7818608E-02  0.8069555E-01
         -2   -1    0    0    0  501 -0.00000000000E+00  0.00000000000E+00  0.15377830792E+04  0.15377830792E+04  0.00000000000E+00 0.  1.
          1   -1    0    0  501    0  0.00000000000E+00 -0.00000000000E+00 -0.22169764855E+04  0.22169764855E+04  0.00000000000E+00 0. -1.
        -24    2    1    2    0    0 -0.14984762030E+04  0.88370795731E+02 -0.11990105254E+04  0.19228353537E+04  0.80182470730E+02 0.  0.
        254    2    1    2    0    0  0.14984762030E+04 -0.88370795731E+02  0.51981711915E+03  0.18319242111E+04  0.91241226935E+03 0.  0.
         23    2    4    4    0    0  0.72946062985E+03 -0.48809232656E+03  0.21063543629E+03  0.90719752786E+03  0.91066666742E+02 0.  0.
         23    2    4    4    0    0  0.76901557318E+03  0.39972153082E+03  0.30918168287E+03  0.92472668324E+03  0.91454205329E+02 0.  0.
          1    1    3    3  502    0 -0.94270094692E+03  0.47482325781E+02 -0.80194673329E+03  0.12385710354E+04  0.00000000000E+00 0. -1.
         -2    1    3    3    0  502 -0.55577525611E+03  0.40888469950E+02 -0.39706379214E+03  0.68426431831E+03  0.00000000000E+00 0.  1.
         13    1    5    5    0    0  0.65856548937E+03 -0.42668552513E+03  0.16090265525E+03  0.80103602017E+03  0.00000000000E+00 0.  1.
        -13    1    5    5    0    0  0.70895140477E+02 -0.61406801423E+02  0.49732781038E+02  0.10616150769E+03  0.00000000000E+00 0. -1.
          2    1    6    6  503    0  0.61173941532E+02  0.35221016922E+02 -0.93451747407E-01  0.70588808524E+02  0.00000000000E+00 0. -1.
         -2    1    6    6    0  503  0.70784163165E+03  0.36450051390E+03  0.30927513461E+03  0.85413787471E+03  0.00000000000E+00 0.  1.
<mgrwt>
<rscale>  0 0.36928195E+04</rscale>
<asrwt>0</asrwt>
<pdfrwt beam="1">  1        1 0.34107330E+00 0.36928195E+04</pdfrwt>
<pdfrwt beam="2">  1       -2 0.23658201E+00 0.36928195E+04</pdfrwt>
<totfact> 0.11650330E-01</totfact>
</mgrwt>
</event>
<event>
12    5  0.5029243E-008  0.3034805E+04  0.7818608E-02  0.8233861E-01
         -2   -1    0    0    0  501 -0.00000000000E+00  0.00000000000E+00  0.19274774474E+04  0.19274774474E+04  0.00000000000E+00 0.  1.
          1   -1    0    0  501    0  0.00000000000E+00 -0.00000000000E+00 -0.11945718281E+04  0.11945718281E+04  0.00000000000E+00 0. -1.
        -24    2    1    2    0    0 -0.13763745046E+03  0.34077189032E+03 -0.10362441348E+04  0.11022513323E+04  0.78016303505E+02 0.  0.
        254    2    1    2    0    0  0.13763745046E+03 -0.34077189032E+03  0.17691497541E+04  0.20197979431E+04  0.90256486166E+03 0.  0.
         23    2    4    4    0    0 -0.14611174463E+03  0.13646604573E+03  0.11974506655E+04  0.12175423812E+04  0.92464751100E+02 0.  0.
         23    2    4    4    0    0  0.28374919509E+03 -0.47723793605E+03  0.57169908859E+03  0.80225556187E+03  0.92219766533E+02 0.  0.
          3    1    3    3  502    0 -0.84843335604E+02  0.18415705871E+03 -0.45850873542E+03  0.50134067691E+03  0.00000000000E+00 0. -1.
         -4    1    3    3    0  502 -0.52794114857E+02  0.15661483161E+03 -0.57773539940E+03  0.60091065540E+03  0.00000000000E+00 0.  1.
         13    1    5    5    0    0 -0.72312744319E+01 -0.13788879337E+02  0.75819044495E+02  0.77401240503E+02  0.00000000000E+00 0.  1.
        -13    1    5    5    0    0 -0.13888047019E+03  0.15025492506E+03  0.11216316210E+04  0.11401411407E+04  0.00000000000E+00 0. -1.
          2    1    6    6  503    0  0.18275964723E+03 -0.25786298491E+03  0.26912096343E+03  0.41511504501E+03  0.00000000000E+00 0. -1.
         -2    1    6    6    0  503  0.10098954786E+03 -0.21937495114E+03  0.30257812516E+03  0.38714051685E+03  0.00000000000E+00 0.  1.
<mgrwt>
<rscale>  0 0.30348049E+04</rscale>
<asrwt>0</asrwt>
<pdfrwt beam="1">  1        1 0.18378028E+00 0.30348049E+04</pdfrwt>
<pdfrwt beam="2">  1       -2 0.29653499E+00 0.30348049E+04</pdfrwt>
<totfact> 0.26804082E-01</totfact>
</mgrwt>
</event>
<event>
12    5  0.5029243E-008  0.1396149E+04  0.7818608E-02  0.8956611E-01
         -2   -1    0    0    0  501 -0.00000000000E+00  0.00000000000E+00  0.79582914580E+03  0.79582914580E+03  0.00000000000E+00 0.  1.
          1   -1    0    0  501    0  0.00000000000E+00 -0.00000000000E+00 -0.61232722169E+03  0.61232722169E+03  0.00000000000E+00 0. -1.
        -24    2    1    2    0    0  0.17978150178E+03 -0.34869988427E+03 -0.83029014778E+02  0.40847908602E+03  0.77771130568E+02 0.  0.
        254    2    1    2    0    0 -0.17978150178E+03  0.34869988427E+03  0.26653093889E+03  0.99967728147E+03  0.88000166366E+03 0.  0.
         23    2    4    4    0    0  0.13682366860E+03  0.29938281790E+02  0.46955573351E+03  0.49819339668E+03  0.89983646381E+02 0.  0.
         23    2    4    4    0    0 -0.31660517038E+03  0.31876160248E+03 -0.20302479462E+03  0.50148388479E+03  0.91756342294E+02 0.  0.
          3    1    3    3  502    0  0.16321673027E+03 -0.32213911676E+03 -0.97404243197E+02  0.37403328486E+03  0.00000000000E+00 0. -1.
         -4    1    3    3    0  502  0.16564771506E+02 -0.26560767507E+02  0.14375228418E+02  0.34445801162E+02  0.00000000000E+00 0.  1.
         13    1    5    5    0    0  0.20037802490E+02 -0.28211310301E+02  0.74283346448E+02  0.81947587622E+02  0.00000000000E+00 0.  1.
        -13    1    5    5    0    0  0.11678586611E+03  0.58149592091E+02  0.39527238707E+03  0.41624580906E+03  0.00000000000E+00 0. -1.
          3    1    6    6  503    0 -0.28907031192E+03  0.31961115614E+03 -0.18893072352E+03  0.47053985448E+03  0.00000000000E+00 0. -1.
         -3    1    6    6    0  503 -0.27534858456E+02 -0.84955366620E+00 -0.14094071105E+02  0.30944030312E+02  0.00000000000E+00 0.  1.
<mgrwt>
<rscale>  0 0.13961488E+04</rscale>
<asrwt>0</asrwt>
<pdfrwt beam="1">  1        1 0.94204188E-01 0.13961488E+04</pdfrwt>
<pdfrwt beam="2">  1       -2 0.12243525E+00 0.13961488E+04</pdfrwt>
<totfact> 0.14330689E+01</totfact>
</mgrwt>
</event>
<event>
12    5  0.5029243E-008  0.1451902E+04  0.7818608E-02  0.8917083E-01
         -2   -1    0    0    0  501 -0.00000000000E+00  0.00000000000E+00  0.19248780884E+03  0.19248780884E+03  0.00000000000E+00 0.  1.
          1   -1    0    0  501    0  0.00000000000E+00 -0.00000000000E+00 -0.27378618211E+04  0.27378618211E+04  0.00000000000E+00 0. -1.
        -24    2    1    2    0    0  0.16203773375E+03 -0.17500208145E+02  0.32376028582E+02  0.18304434030E+03  0.76775900173E+02 0.  0.
        254    2    1    2    0    0 -0.16203773375E+03  0.17500208145E+02 -0.25777500409E+04  0.27473052896E+04  0.93612424227E+03 0.  0.
         23    2    4    4    0    0 -0.21482623165E+03  0.41120559884E+03 -0.85335384850E+03  0.97542963378E+03  0.89497627835E+02 0.  0.
         23    2    4    4    0    0  0.52788497906E+02 -0.39370539070E+03 -0.17243961924E+04  0.17718756559E+04  0.90612093382E+02 0.  0.
          3    1    3    3  502    0  0.48594758548E+01  0.16529149335E+02 -0.49977448300E+01  0.17938916820E+02  0.00000000000E+00 0. -1.
         -4    1    3    3    0  502  0.15717825789E+03 -0.34029357480E+02  0.37373773412E+02  0.16510542348E+03  0.00000000000E+00 0.  1.
         13    1    5    5    0    0 -0.22275662470E+02  0.82425547685E+01 -0.25877085135E+02  0.35125039255E+02  0.00000000000E+00 0. -1.
        -13    1    5    5    0    0 -0.19255056918E+03  0.40296304407E+03 -0.82747676336E+03  0.94030459453E+03  0.00000000000E+00 0.  1.
          1    1    6    6  503    0  0.32729115725E+01 -0.55061152399E+01 -0.12986904546E+03  0.13002691346E+03  0.00000000000E+00 0. -1.
         -1    1    6    6    0  503  0.49515586334E+02 -0.38819927546E+03 -0.15945271469E+04  0.16418487424E+04  0.00000000000E+00 0.  1.
<mgrwt>
<rscale>  0 0.14519022E+04</rscale>
<asrwt>0</asrwt>
<pdfrwt beam="1">  1        1 0.42120952E+00 0.14519022E+04</pdfrwt>
<pdfrwt beam="2">  1       -2 0.29613509E-01 0.14519022E+04</pdfrwt>
<totfact> 0.83043790E+00</totfact>
</mgrwt>
</event>
<event>
12    5  0.5029243E-008  0.3096286E+04  0.7818608E-02  0.8216758E-01
          1   -1    0    0  501    0  0.00000000000E+00  0.00000000000E+00  0.16384237896E+04  0.16384237896E+04  0.00000000000E+00 0. -1.
         -2   -1    0    0    0  501 -0.00000000000E+00 -0.00000000000E+00 -0.14628371818E+04  0.14628371818E+04  0.00000000000E+00 0.  1.
        -24    2    1    2    0    0 -0.92277476063E+03 -0.10636140969E+04 -0.64040560393E+02  0.14121922876E+04  0.86009637858E+02 0.  0.
        254    2    1    2    0    0  0.92277476063E+03  0.10636140969E+04  0.23962716813E+03  0.16890686838E+04  0.90152295199E+03 0.  0.
         23    2    4    4    0    0  0.81804729344E+02  0.71559625440E+02 -0.25870907941E+03  0.29336949608E+03  0.85571488990E+02 0.  0.
         23    2    4    4    0    0  0.84097003128E+03  0.99205447145E+03  0.49833624754E+03  0.13956991877E+04  0.90744361620E+02 0.  0.
          3    1    3    3  502    0 -0.28289048800E+03 -0.36114937612E+03 -0.54021321104E+02  0.46192445617E+03  0.00000000000E+00 0. -1.
         -4    1    3    3    0  502 -0.63988427262E+03 -0.70246472076E+03 -0.10019239289E+02  0.95026783142E+03  0.00000000000E+00 0.  1.
         13    1    5    5    0    0  0.85551723915E+02  0.40721058881E+02 -0.23764331983E+03  0.25583520000E+03  0.00000000000E+00 0.  1.
        -13    1    5    5    0    0 -0.37469945712E+01  0.30838566559E+02 -0.21065759583E+02  0.37534296084E+02  0.00000000000E+00 0. -1.
          1    1    6    6  503    0  0.21838679595E+03  0.27892554889E+03  0.95512259556E+02  0.36689895911E+03  0.00000000000E+00 0. -1.
         -1    1    6    6    0  503  0.62258323533E+03  0.71312892256E+03  0.40282398798E+03  0.10288002286E+04  0.00000000000E+00 0.  1.
<mgrwt>
<rscale>  0 0.30962863E+04</rscale>
<asrwt>0</asrwt>
<pdfrwt beam="1">  1        1 0.25206520E+00 0.30962863E+04</pdfrwt>
<pdfrwt beam="2">  1       -2 0.22505187E+00 0.30962863E+04</pdfrwt>
<totfact> 0.35764995E-01</totfact>
</mgrwt>
</event>
<event>
12    5  0.5499065E-008  0.1617060E+04  0.7818608E-02  0.8810135E-01
          1   -1    0    0  501    0  0.00000000000E+00  0.00000000000E+00  0.19686671078E+04  0.19686671078E+04  0.00000000000E+00 0. -1.
         -2   -1    0    0    0  501 -0.00000000000E+00 -0.00000000000E+00 -0.33206272251E+03  0.33206272251E+03  0.00000000000E+00 0.  1.
        -24    2    1    2    0    0 -0.84379503118E+02  0.20195714049E+03 -0.15774935545E+03  0.27947886556E+03  0.72917693378E+02 0.  0.
        254    2    1    2    0    0  0.84379503118E+02 -0.20195714049E+03  0.17943537408E+04  0.20212509648E+04  0.90434701776E+03 0.  0.
         23    2    4    4    0    0  0.29213281813E+03 -0.21001594992E+03  0.22361364335E+03  0.43410723121E+03  0.94856439128E+02 0.  0.
         23    2    4    4    0    0 -0.20775331501E+03  0.80588094331E+01  0.15707400974E+04  0.15871437336E+04  0.92598018901E+02 0.  0.
          1    1    3    3  502    0  0.95384434620E+01  0.19546708132E+01 -0.71783312615E+01  0.12096738460E+02  0.00000000000E+00 0. -1.
         -2    1    3    3    0  502 -0.93917946580E+02  0.20000246967E+03 -0.15057102419E+03  0.26738212710E+03  0.00000000000E+00 0.  1.
         13    1    5    5    0    0  0.18606117098E+03 -0.83153612291E+02  0.15026924901E+03  0.25320768113E+03  0.00000000000E+00 0. -1.
        -13    1    5    5    0    0  0.10607164715E+03 -0.12686233763E+03  0.73344394334E+02  0.18089955008E+03  0.00000000000E+00 0.  1.
          3    1    6    6  503    0 -0.14314049725E+03 -0.16785718807E+02  0.76662270183E+03  0.78005213241E+03  0.00000000000E+00 0. -1.
         -3    1    6    6    0  503 -0.64612817761E+02  0.24844528240E+02  0.80411739560E+03  0.80709160119E+03  0.00000000000E+00 0.  1.
<mgrwt>
<rscale>  0 0.16170602E+04</rscale>
<asrwt>0</asrwt>
<pdfrwt beam="1">  1        1 0.30287185E+00 0.16170602E+04</pdfrwt>
<pdfrwt beam="2">  1       -2 0.51086574E-01 0.16170602E+04</pdfrwt>
<totfact> 0.95368758E+00</totfact>
</mgrwt>
</event>
<event>
12    5  0.5029243E-008  0.1559972E+04  0.7818608E-02  0.8845523E-01
         -2   -1    0    0    0  501 -0.00000000000E+00  0.00000000000E+00  0.23063564783E+03  0.23063564783E+03  0.00000000000E+00 0.  1.
          1   -1    0    0  501    0  0.00000000000E+00 -0.00000000000E+00 -0.26378333318E+04  0.26378333318E+04  0.00000000000E+00 0. -1.
        -24    2    1    2    0    0  0.17975957738E+02  0.17540419030E+03 -0.17041036871E+04  0.17150233460E+04  0.79031233941E+02 0.  0.
        254    2    1    2    0    0 -0.17975957738E+02 -0.17540419030E+03 -0.70309399684E+03  0.11534456336E+04  0.89722120809E+03 0.  0.
         23    2    4    4    0    0 -0.55470724906E+00  0.29295560626E+02  0.20036257554E+03  0.22203206504E+03  0.91074357830E+02 0.  0.
         23    2    4    4    0    0 -0.17421250489E+02 -0.20469975093E+03 -0.90345657238E+03  0.93141356856E+03  0.95351819676E+02 0.  0.
          3    1    3    3  502    0 -0.89385821919E+01  0.15671526626E+03 -0.12656148865E+04  0.12753119672E+04  0.00000000000E+00 0. -1.
         -4    1    3    3    0  502  0.26914539930E+02  0.18688924041E+02 -0.43848880068E+03  0.43971137882E+03  0.00000000000E+00 0.  1.
         13    1    5    5    0    0  0.15334011405E+02  0.28610165973E+02  0.14604498848E+02  0.35594450261E+02  0.00000000000E+00 0.  1.
        -13    1    5    5    0    0 -0.15888718654E+02  0.68539465358E+00  0.18575807670E+03  0.18643761478E+03  0.00000000000E+00 0. -1.
          3    1    6    6  503    0  0.38627049426E+01 -0.74254341040E+02 -0.53142698689E+03  0.53660345698E+03  0.00000000000E+00 0. -1.
         -3    1    6    6    0  503 -0.21283955431E+02 -0.13044540989E+03 -0.37202958550E+03  0.39481011158E+03  0.00000000000E+00 0.  1.
<mgrwt>
<rscale>  0 0.15599723E+04</rscale>
<asrwt>0</asrwt>
<pdfrwt beam="1">  1        1 0.40582049E+00 0.15599723E+04</pdfrwt>
<pdfrwt beam="2">  1       -2 0.35482410E-01 0.15599723E+04</pdfrwt>
<totfact> 0.68678674E+00</totfact>
</mgrwt>
</event>
<event>
12    5  0.5029243E-008  0.2589816E+04  0.7818608E-02  0.8371669E-01
         -2   -1    0    0    0  501 -0.00000000000E+00  0.00000000000E+00  0.75675501618E+03  0.75675501618E+03  0.00000000000E+00 0.  1.
          1   -1    0    0  501    0  0.00000000000E+00 -0.00000000000E+00 -0.22157592092E+04  0.22157592092E+04  0.00000000000E+00 0. -1.
        -24    2    1    2    0    0  0.10082782634E+04 -0.93668117791E+02 -0.57030426660E+02  0.10173137414E+04  0.79221248088E+02 0.  0.
        254    2    1    2    0    0 -0.10082782634E+04  0.93668117791E+02 -0.14019737664E+04  0.19552004840E+04  0.91207440389E+03 0.  0.
         23    2    4    4    0    0 -0.74807490817E+03  0.36933543206E+03 -0.13084028031E+04  0.15544379671E+04  0.91294954911E+02 0.  0.
         23    2    4    4    0    0 -0.26020335523E+03 -0.27566731426E+03 -0.93570963236E+02  0.40076251686E+03  0.90315090257E+02 0.  0.
          1    1    3    3  502    0  0.10675230858E+03  0.21874128225E+00  0.16130604603E+02  0.10796434430E+03  0.00000000000E+00 0. -1.
         -4    1    3    3    0  502  0.90152595483E+03 -0.93886859074E+02 -0.73161031263E+02  0.90934939711E+03  0.00000000000E+00 0.  1.
         13    1    5    5    0    0 -0.74914953102E+03  0.36362064243E+03 -0.13037067778E+04  0.15469635917E+04  0.00000000000E+00 0.  1.
        -13    1    5    5    0    0  0.10746228447E+01  0.57147896233E+01 -0.46960253110E+01  0.74743754534E+01  0.00000000000E+00 0. -1.
          1    1    6    6  503    0 -0.50468293876E+02 -0.85379403086E+02 -0.59165941079E+02  0.11548722761E+03  0.00000000000E+00 0. -1.
         -1    1    6    6    0  503 -0.20973506136E+03 -0.19028791118E+03 -0.34405022156E+02  0.28527528924E+03  0.00000000000E+00 0.  1.
<mgrwt>
<rscale>  0 0.25898161E+04</rscale>
<asrwt>0</asrwt>
<pdfrwt beam="1">  1        1 0.34088603E+00 0.25898161E+04</pdfrwt>
<pdfrwt beam="2">  1       -2 0.11642385E+00 0.25898161E+04</pdfrwt>
<totfact> 0.94213443E-01</totfact>
</mgrwt>
</event>
<event>
12    5  0.5029243E-008  0.1653486E+04  0.7818608E-02  0.8788347E-01
          3   -1    0    0  501    0  0.00000000000E+00  0.00000000000E+00  0.13590432816E+04  0.13590432816E+04  0.00000000000E+00 0. -1.
         -4   -1    0    0    0  501 -0.00000000000E+00 -0.00000000000E+00 -0.50293006391E+03  0.50293006391E+03  0.00000000000E+00 0.  1.
        -24    2    1    2    0    0  0.13813183403E+03 -0.98864268936E+02  0.90718343217E+03  0.92653141612E+03  0.81388808962E+02 0.  0.
        254    2    1    2    0    0 -0.13813183403E+03  0.98864268936E+02 -0.51070214451E+02  0.93544192942E+03  0.91847095178E+03 0.  0.
         23    2    4    4    0    0 -0.42970995720E+03  0.31779596582E+03 -0.11568876767E+03  0.55427510958E+03  0.90510126115E+02 0.  0.
         23    2    4    4    0    0  0.29157812317E+03 -0.21893169689E+03  0.64618553224E+02  0.38116681983E+03  0.90353180951E+02 0.  0.
          1    1    3    3  502    0  0.79982971879E+02 -0.96126859035E+01  0.33816330574E+03  0.34762638114E+03  0.00000000000E+00 0. -1.
         -2    1    3    3    0  502  0.58148862148E+02 -0.89251583032E+02  0.56902012643E+03  0.57890503498E+03  0.00000000000E+00 0.  1.
         13    1    5    5    0    0 -0.41897198814E+03  0.28512996434E+03 -0.11596255020E+03  0.51988838847E+03  0.00000000000E+00 0. -1.
        -13    1    5    5    0    0 -0.10737969052E+02  0.32666001479E+02  0.27378252862E+00  0.34386721113E+02  0.00000000000E+00 0.  1.
          2    1    6    6  503    0  0.21335416593E+03 -0.11678678946E+03  0.67701619072E+02  0.25247309468E+03  0.00000000000E+00 0. -1.
         -2    1    6    6    0  503  0.78223957243E+02 -0.10214490742E+03 -0.30830658482E+01  0.12869372515E+03  0.00000000000E+00 0.  1.
<mgrwt>
<rscale>  0 0.16534857E+04</rscale>
<asrwt>0</asrwt>
<pdfrwt beam="1">  1        3 0.20908358E+00 0.16534857E+04</pdfrwt>
<pdfrwt beam="2">  1       -4 0.77373857E-01 0.16534857E+04</pdfrwt>
<totfact> 0.42363570E-01</totfact>
</mgrwt>
</event>
<event>
12    5  0.5029243E-008  0.1799092E+04  0.7818608E-02  0.8706783E-01
         -2   -1    0    0    0  501 -0.00000000000E+00  0.00000000000E+00  0.60309303214E+03  0.60309303214E+03  0.00000000000E+00 0.  1.
          1   -1    0    0  501    0  0.00000000000E+00 -0.00000000000E+00 -0.13417210780E+04  0.13417210780E+04  0.00000000000E+00 0. -1.
        -24    2    1    2    0    0 -0.27724440775E+03  0.46762457271E+03 -0.69994339021E+03  0.89014896332E+03  0.83109715163E+02 0.  0.
        254    2    1    2    0    0  0.27724440775E+03 -0.46762457271E+03 -0.38684655658E+02  0.10546651468E+04  0.90293126357E+03 0.  0.
         23    2    4    4    0    0  0.91403152796E+02 -0.70644581548E+03  0.67207518629E+02  0.72125776062E+03  0.90970765328E+02 0.  0.
         23    2    4    4    0    0  0.18584125496E+03  0.23882124276E+03 -0.10589217429E+03  0.33340738622E+03  0.91513794449E+02 0.  0.
          3    1    3    3  502    0 -0.19401214325E+03  0.38204449677E+03 -0.51390316926E+03  0.66910027396E+03  0.00000000000E+00 0. -1.
         -4    1    3    3    0  502 -0.83232264502E+02  0.85580075943E+02 -0.18604022096E+03  0.22104868936E+03  0.00000000000E+00 0.  1.
         13    1    5    5    0    0  0.13703439666E+02 -0.10716109706E+03  0.43588260449E+02  0.11649558546E+03  0.00000000000E+00 0. -1.
        -13    1    5    5    0    0  0.77699713131E+02 -0.59928471842E+03  0.23619258180E+02  0.60476217516E+03  0.00000000000E+00 0.  1.
          1    1    6    6  503    0  0.47304079747E+02  0.47337058800E+02 -0.65489905854E+02  0.93634400011E+02  0.00000000000E+00 0. -1.
         -1    1    6    6    0  503  0.13853717521E+03  0.19148418396E+03 -0.40402268433E+02  0.23977298621E+03  0.00000000000E+00 0.  1.
<mgrwt>
<rscale>  0 0.17990916E+04</rscale>
<asrwt>0</asrwt>
<pdfrwt beam="1">  1        1 0.20641862E+00 0.17990916E+04</pdfrwt>
<pdfrwt beam="2">  1       -2 0.92783545E-01 0.17990916E+04</pdfrwt>
<totfact> 0.68873066E+00</totfact>
</mgrwt>
</event>
<event>
12    5  0.5029243E-008  0.1314531E+04  0.7818608E-02  0.9018121E-01
         -4   -1    0    0    0  501 -0.00000000000E+00  0.00000000000E+00  0.98867965630E+03  0.98867965630E+03  0.00000000000E+00 0.  1.
          3   -1    0    0  501    0  0.00000000000E+00 -0.00000000000E+00 -0.43694414686E+03  0.43694414686E+03  0.00000000000E+00 0. -1.
        -24    2    1    2    0    0  0.82475058840E+01 -0.33254282449E+03  0.61720985548E+02  0.34735485011E+03  0.78696635013E+02 0.  0.
        254    2    1    2    0    0 -0.82475058840E+01  0.33254282449E+03  0.49001452389E+03  0.10782689531E+04  0.90105324483E+03 0.  0.
         23    2    4    4    0    0  0.30056097118E+03  0.49649410879E+03  0.38643854416E+03  0.70282887466E+03  0.88263136068E+02 0.  0.
         23    2    4    4    0    0 -0.30880847706E+03 -0.16395128430E+03  0.10357597973E+03  0.37544007839E+03  0.89356419802E+02 0.  0.
          1    1    3    3  502    0 -0.19468908558E+02 -0.36806645041E+02 -0.76355966158E+01  0.42332846057E+02  0.00000000000E+00 0. -1.
         -2    1    3    3    0  502  0.27716414442E+02 -0.29573617945E+03  0.69356582163E+02  0.30502200405E+03  0.00000000000E+00 0.  1.
         13    1    5    5    0    0  0.26824762380E+03  0.47867305605E+03  0.37331413233E+03  0.66366265803E+03  0.00000000000E+00 0.  1.
        -13    1    5    5    0    0  0.32313347378E+02  0.17821052733E+02  0.13124411831E+02  0.39166216631E+02  0.00000000000E+00 0. -1.
          3    1    6    6  503    0 -0.47078969675E+02 -0.21495671395E+02  0.51360103034E+02  0.72913328398E+02  0.00000000000E+00 0. -1.
         -3    1    6    6    0  503 -0.26172950739E+03 -0.14245561290E+03  0.52215876694E+02  0.30252675000E+03  0.00000000000E+00 0.  1.
<mgrwt>
<rscale>  0 0.13145308E+04</rscale>
<asrwt>0</asrwt>
<pdfrwt beam="1">  1        3 0.67222177E-01 0.13145308E+04</pdfrwt>
<pdfrwt beam="2">  1       -4 0.15210456E+00 0.13145308E+04</pdfrwt>
<totfact> 0.13692423E+00</totfact>
</mgrwt>
</event>
<event>
12    5  0.5029243E-008  0.1268771E+04  0.7818608E-02  0.9054703E-01
          1   -1    0    0  501    0  0.00000000000E+00  0.00000000000E+00  0.17729874045E+04  0.17729874045E+04  0.00000000000E+00 0. -1.
         -2   -1    0    0    0  501 -0.00000000000E+00 -0.00000000000E+00 -0.22698692650E+03  0.22698692650E+03  0.00000000000E+00 0.  1.
        -24    2    1    2    0    0  0.78269245859E+02 -0.20414271958E+03  0.52834924749E+02  0.23873017677E+03  0.80001520112E+02 0.  0.
        254    2    1    2    0    0 -0.78269245859E+02  0.20414271958E+03  0.14931655532E+04  0.17612441542E+04  0.90809541162E+03 0.  0.
         23    2    4    4    0    0 -0.85764989351E+02 -0.21826886338E+03  0.12279646089E+04  0.12540709449E+04  0.98994565191E+02 0.  0.
         23    2    4    4    0    0  0.74957434922E+01  0.42241158296E+03  0.26520094432E+03  0.50717320934E+03  0.91680923927E+02 0.  0.
          3    1    3    3  502    0 -0.12355902269E+02 -0.48866103546E+02  0.26741390016E+02  0.57058446672E+02  0.00000000000E+00 0. -1.
         -2    1    3    3    0  502  0.90625148128E+02 -0.15527661604E+03  0.26093534733E+02  0.18167173009E+03  0.00000000000E+00 0.  1.
         13    1    5    5    0    0  0.11895601123E+02 -0.78998071007E+02  0.51082389421E+03  0.51703312413E+03  0.00000000000E+00 0.  1.
        -13    1    5    5    0    0 -0.97660590474E+02 -0.13927079237E+03  0.71714071471E+03  0.73703782076E+03  0.00000000000E+00 0. -1.
          2    1    6    6  503    0 -0.28276487623E+02  0.35383203600E+03  0.21843365224E+03  0.41678523232E+03  0.00000000000E+00 0.  1.
         -2    1    6    6    0  503  0.35772231115E+02  0.68579546963E+02  0.46767292080E+02  0.90387977016E+02  0.00000000000E+00 0. -1.
<mgrwt>
<rscale>  0 0.12687710E+04</rscale>
<asrwt>0</asrwt>
<pdfrwt beam="1">  1        1 0.27276729E+00 0.12687710E+04</pdfrwt>
<pdfrwt beam="2">  1       -2 0.34921067E-01 0.12687710E+04</pdfrwt>
<totfact> 0.28279117E+01</totfact>
</mgrwt>
</event>
<event>
12    5  0.5029243E-008  0.1508733E+04  0.7818608E-02  0.8878666E-01
         -2   -1    0    0    0  501 -0.00000000000E+00  0.00000000000E+00  0.23621591500E+03  0.23621591500E+03  0.00000000000E+00 0.  1.
          1   -1    0    0  501    0  0.00000000000E+00 -0.00000000000E+00 -0.24091040990E+04  0.24091040990E+04  0.00000000000E+00 0. -1.
        -24    2    1    2    0    0  0.20740937167E+03 -0.17546601417E+03 -0.53309054811E+01  0.28306964234E+03  0.79328647279E+02 0.  0.
        254    2    1    2    0    0 -0.20740937167E+03  0.17546601417E+03 -0.21675572785E+04  0.23622503717E+04  0.89895233087E+03 0.  0.
         23    2    4    4    0    0  0.24302278193E+03 -0.20864850727E+03 -0.63314827848E+03  0.71504548963E+03  0.88425322049E+02 0.  0.
         23    2    4    4    0    0 -0.45043215360E+03  0.38411452143E+03 -0.15344090001E+04  0.16472048820E+04  0.91868674824E+02 0.  0.
          3    1    3    3  502    0  0.31099116753E+02  0.15082653158E+01 -0.11477307782E+02  0.33183708669E+02  0.00000000000E+00 0. -1.
         -4    1    3    3    0  502  0.17631025491E+03 -0.17697427948E+03  0.61464023013E+01  0.24988593367E+03  0.00000000000E+00 0.  1.
         13    1    5    5    0    0 -0.43636833390E+00 -0.83946328089E+01 -0.75819540837E+00  0.84400910894E+01  0.00000000000E+00 0. -1.
        -13    1    5    5    0    0  0.24345915026E+03 -0.20025387446E+03 -0.63239008307E+03  0.70660539854E+03  0.00000000000E+00 0.  1.
          2    1    6    6  503    0 -0.38481713864E+02  0.65881420084E+02 -0.15293568281E+03  0.17091087411E+03  0.00000000000E+00 0. -1.
         -2    1    6    6    0  503 -0.41195043973E+03  0.31823310135E+03 -0.13814733172E+04  0.14762940079E+04  0.00000000000E+00 0.  1.
<mgrwt>
<rscale>  0 0.15087329E+04</rscale>
<asrwt>0</asrwt>
<pdfrwt beam="1">  1        1 0.37063142E+00 0.15087329E+04</pdfrwt>
<pdfrwt beam="2">  1       -2 0.36340908E-01 0.15087329E+04</pdfrwt>
<totfact> 0.94923505E+00</totfact>
</mgrwt>
</event>
<event>
12    5  0.5029243E-008  0.2221376E+04  0.7818608E-02  0.8509583E-01
          1   -1    0    0  501    0  0.00000000000E+00  0.00000000000E+00  0.87981459971E+03  0.87981459971E+03  0.00000000000E+00 0. -1.
         -2   -1    0    0    0  501 -0.00000000000E+00 -0.00000000000E+00 -0.14021455239E+04  0.14021455239E+04  0.00000000000E+00 0.  1.
        -24    2    1    2    0    0 -0.59008120131E+03 -0.16021633148E+03  0.50846969175E+03  0.79916498948E+03  0.79108507551E+02 0.  0.
        254    2    1    2    0    0  0.59008120131E+03  0.16021633148E+03 -0.10308006159E+04  0.14827951341E+04  0.87307869229E+03 0.  0.
         23    2    4    4    0    0  0.23446658408E+03  0.43284691231E+03 -0.21042697379E+03  0.54298930386E+03  0.90701952955E+02 0.  0.
         23    2    4    4    0    0  0.35561461723E+03 -0.27263058082E+03 -0.82037364214E+03  0.93980583025E+03  0.97123098483E+02 0.  0.
          3    1    3    3  502    0 -0.45634673621E+03 -0.15383567755E+03  0.37786742104E+03  0.61212870152E+03  0.00000000000E+00 0. -1.
         -4    1    3    3    0  502 -0.13373446510E+03 -0.63806539337E+01  0.13060227071E+03  0.18703628796E+03  0.00000000000E+00 0.  1.
         13    1    5    5    0    0  0.14063239372E+02  0.53408514352E+02  0.24273412477E+01  0.55282330744E+02  0.00000000000E+00 0.  1.
        -13    1    5    5    0    0  0.22040334471E+03  0.37943839795E+03 -0.21285431504E+03  0.48770697312E+03  0.00000000000E+00 0. -1.
          1    1    6    6  503    0  0.27225420328E+03 -0.24387451892E+03 -0.60163264683E+03  0.70395949735E+03  0.00000000000E+00 0. -1.
         -1    1    6    6    0  503  0.83360413952E+02 -0.28756061906E+02 -0.21874099531E+03  0.23584633290E+03  0.00000000000E+00 0.  1.
<mgrwt>
<rscale>  0 0.22213762E+04</rscale>
<asrwt>0</asrwt>
<pdfrwt beam="1">  1        1 0.13535609E+00 0.22213762E+04</pdfrwt>
<pdfrwt beam="2">  1       -2 0.21571469E+00 0.22213762E+04</pdfrwt>
<totfact> 0.15869385E+00</totfact>
</mgrwt>
</event>
<event>
12    5  0.5029243E-008  0.1205329E+04  0.7818608E-02  0.9108205E-01
         -2   -1    0    0    0  501 -0.00000000000E+00  0.00000000000E+00  0.44680374558E+04  0.44680374558E+04  0.00000000000E+00 0.  1.
          1   -1    0    0  501    0  0.00000000000E+00 -0.00000000000E+00 -0.81289476753E+02  0.81289476753E+02  0.00000000000E+00 0. -1.
        -24    2    1    2    0    0  0.11982792240E+03 -0.11919312297E+02  0.18086260630E+04  0.18144546899E+04  0.81343623556E+02 0.  0.
        254    2    1    2    0    0 -0.11982792240E+03  0.11919312297E+02  0.25781219161E+04  0.27348722427E+04  0.90460641631E+03 0.  0.
         23    2    4    4    0    0 -0.25217102871E+03  0.75096758885E+02  0.25460088117E+04  0.25608618596E+04  0.81380858467E+02 0.  0.
         23    2    4    4    0    0  0.13234310631E+03 -0.63177446588E+02  0.32113104449E+02  0.17401038305E+03  0.87990194827E+02 0.  0.
          1    1    3    3  502    0  0.15344903551E+02 -0.24024795383E+02  0.16326317972E+03  0.16573328787E+03  0.00000000000E+00 0. -1.
         -2    1    3    3    0  502  0.10448301885E+03  0.12105483086E+02  0.16453628833E+04  0.16487214020E+04  0.00000000000E+00 0.  1.
         13    1    5    5    0    0 -0.24542504546E+03  0.86656819141E+02  0.23429504141E+04  0.23573628274E+04  0.00000000000E+00 0.  1.
        -13    1    5    5    0    0 -0.67459832505E+01 -0.11560060256E+02  0.20305839759E+03  0.20349903222E+03  0.00000000000E+00 0. -1.
          4    1    6    6  503    0  0.65033767361E+02 -0.72207304658E+02 -0.36735942495E+01  0.97245982116E+02  0.00000000000E+00 0. -1.
         -4    1    6    6    0  503  0.67309338948E+02  0.90298580701E+01  0.35786698698E+02  0.76764400930E+02  0.00000000000E+00 0.  1.
<mgrwt>
<rscale>  0 0.12053289E+04</rscale>
<asrwt>0</asrwt>
<pdfrwt beam="1">  1        1 0.12506077E-01 0.12053289E+04</pdfrwt>
<pdfrwt beam="2">  1       -2 0.68739018E+00 0.12053289E+04</pdfrwt>
<totfact> 0.10787153E-01</totfact>
</mgrwt>
</event>
<event>
12    5  0.5029243E-008  0.3238719E+04  0.7818608E-02  0.8178666E-01
         -2   -1    0    0    0  501 -0.00000000000E+00  0.00000000000E+00  0.15380611553E+04  0.15380611553E+04  0.00000000000E+00 0.  1.
          1   -1    0    0  501    0  0.00000000000E+00 -0.00000000000E+00 -0.17049554080E+04  0.17049554080E+04  0.00000000000E+00 0. -1.
        -24    2    1    2    0    0 -0.47235948935E+03  0.13974526372E+04  0.17009784283E+03  0.14870325168E+04  0.79593150597E+02 0.  0.
        254    2    1    2    0    0  0.47235948935E+03 -0.13974526372E+04 -0.33699209556E+03  0.17559840465E+04  0.89102128964E+03 0.  0.
         23    2    4    4    0    0 -0.75969005625E+00  0.54678412577E+02 -0.19166543798E+03  0.21910878081E+03  0.91009404900E+02 0.  0.
         23    2    4    4    0    0  0.47311917941E+03 -0.14521310498E+04 -0.14532665758E+03  0.15368752656E+04  0.91320321801E+02 0.  0.
          3    1    3    3  502    0 -0.36077132908E+03  0.10652746321E+04  0.16367088775E+03  0.11365536297E+04  0.00000000000E+00 0. -1.
         -4    1    3    3    0  502 -0.11158816027E+03  0.33217800510E+03  0.64269550857E+01  0.35047888715E+03  0.00000000000E+00 0.  1.
         13    1    5    5    0    0 -0.14339331102E+02 -0.17140713396E+02 -0.12496139766E+02  0.25604178979E+02  0.00000000000E+00 0. -1.
        -13    1    5    5    0    0  0.13579641046E+02  0.71819125972E+02 -0.17916929821E+03  0.19350460183E+03  0.00000000000E+00 0.  1.
          2    1    6    6  503    0  0.46057786419E+03 -0.13955372666E+04 -0.12284785436E+03  0.14747026232E+04  0.00000000000E+00 0.  1.
         -2    1    6    6    0  503  0.12541315220E+02 -0.56593783137E+02 -0.22478803217E+02  0.62172642467E+02  0.00000000000E+00 0. -1.
<mgrwt>
<rscale>  0 0.32387193E+04</rscale>
<asrwt>0</asrwt>
<pdfrwt beam="1">  1        1 0.26230083E+00 0.32387193E+04</pdfrwt>
<pdfrwt beam="2">  1       -2 0.23662479E+00 0.32387193E+04</pdfrwt>
<totfact> 0.26937873E-01</totfact>
</mgrwt>
</event>
<event>
12    5  0.5029243E-008  0.2965160E+04  0.7818608E-02  0.8253750E-01
          1   -1    0    0  501    0  0.00000000000E+00  0.00000000000E+00  0.27529503703E+04  0.27529503703E+04  0.00000000000E+00 0. -1.
         -2   -1    0    0    0  501 -0.00000000000E+00 -0.00000000000E+00 -0.79843201936E+03  0.79843201936E+03  0.00000000000E+00 0.  1.
        -24    2    1    2    0    0 -0.92750475065E+03  0.78044493906E+03  0.16051938522E+04  0.20130002660E+04  0.78507341767E+02 0.  0.
        254    2    1    2    0    0  0.92750475065E+03 -0.78044493906E+03  0.34932449883E+03  0.15383821237E+04  0.88047293401E+03 0.  0.
         23    2    4    4    0    0  0.66849884941E+03 -0.41563125261E+03  0.62115136258E+03  0.10069012669E+04  0.91548326874E+02 0.  0.
         23    2    4    4    0    0  0.25900590125E+03 -0.36481368645E+03 -0.27182686374E+03  0.53148085681E+03  0.91700461264E+02 0.  0.
          1    1    3    3  502    0 -0.92738943386E+03  0.77940779428E+03  0.16060174478E+04  0.20116708763E+04  0.00000000000E+00 0. -1.
         -2    1    3    3    0  502 -0.11531679193E+00  0.10371447793E+01 -0.82359567481E+00  0.13293897439E+01  0.00000000000E+00 0.  1.
         13    1    5    5    0    0  0.28212433283E+03 -0.19048993916E+03  0.21370607112E+03  0.40193387631E+03  0.00000000000E+00 0. -1.
        -13    1    5    5    0    0  0.38637451658E+03 -0.22514131344E+03  0.40744529146E+03  0.60496739054E+03  0.00000000000E+00 0.  1.
          3    1    6    6  503    0  0.83465840249E+02 -0.11536189356E+03 -0.13833587728E+03  0.19852387241E+03  0.00000000000E+00 0. -1.
         -3    1    6    6    0  503  0.17554006100E+03 -0.24945179289E+03 -0.13349098647E+03  0.33295698440E+03  0.00000000000E+00 0.  1.
<mgrwt>
<rscale>  0 0.29651602E+04</rscale>
<asrwt>0</asrwt>
<pdfrwt beam="1">  1        1 0.42353082E+00 0.29651602E+04</pdfrwt>
<pdfrwt beam="2">  1       -2 0.12283570E+00 0.29651602E+04</pdfrwt>
<totfact> 0.33852697E-01</totfact>
</mgrwt>
</event>
<event>
12    5  0.5029243E-008  0.1226202E+04  0.7818608E-02  0.9090226E-01
          1   -1    0    0  501    0  0.00000000000E+00  0.00000000000E+00  0.95582047925E+03  0.95582047925E+03  0.00000000000E+00 0. -1.
         -2   -1    0    0    0  501 -0.00000000000E+00 -0.00000000000E+00 -0.39326697310E+03  0.39326697310E+03  0.00000000000E+00 0.  1.
        -24    2    1    2    0    0  0.21503815886E+03  0.11418074504E+03  0.30284748113E+03  0.39601512544E+03  0.76372314687E+02 0.  0.
        254    2    1    2    0    0 -0.21503815886E+03 -0.11418074504E+03  0.25970602503E+03  0.95307232690E+03  0.88409331440E+03 0.  0.
         23    2    4    4    0    0  0.42614298224E+02 -0.28819835784E+03 -0.21785721433E+03  0.37606426148E+03  0.95332528846E+02 0.  0.
         23    2    4    4    0    0 -0.25765245708E+03  0.17401761279E+03  0.47756323935E+03  0.57700806542E+03  0.90580029682E+02 0.  0.
          3    1    3    3  502    0  0.18003673391E+03  0.12413876408E+03  0.26329761408E+03  0.34227078737E+03  0.00000000000E+00 0. -1.
         -4    1    3    3    0  502  0.35001424945E+02 -0.99580190420E+01  0.39549867046E+02  0.53744338072E+02  0.00000000000E+00 0.  1.
         13    1    5    5    0    0  0.10555285936E+02 -0.21317292314E+03 -0.10793990104E+03  0.23917594248E+03  0.00000000000E+00 0. -1.
        -13    1    5    5    0    0  0.32059012288E+02 -0.75025434694E+02 -0.10991731329E+03  0.13688831901E+03  0.00000000000E+00 0.  1.
          1    1    6    6  503    0 -0.23888155141E+03  0.15240458720E+03  0.46748978192E+03  0.54666100099E+03  0.00000000000E+00 0. -1.
         -1    1    6    6    0  503 -0.18770905667E+02  0.21613025597E+02  0.10073457438E+02  0.30347064434E+02  0.00000000000E+00 0.  1.
<mgrwt>
<rscale>  0 0.12262017E+04</rscale>
<asrwt>0</asrwt>
<pdfrwt beam="1">  1        1 0.14704930E+00 0.12262017E+04</pdfrwt>
<pdfrwt beam="2">  1       -2 0.60502611E-01 0.12262017E+04</pdfrwt>
<totfact> 0.36134694E+01</totfact>
</mgrwt>
</event>
<event>
12    5  0.5029243E-008  0.1637581E+04  0.7818608E-02  0.8797787E-01
          1   -1    0    0  501    0  0.00000000000E+00  0.00000000000E+00  0.12621252040E+04  0.12621252040E+04  0.00000000000E+00 0. -1.
         -4   -1    0    0    0  501 -0.00000000000E+00 -0.00000000000E+00 -0.53118191154E+03  0.53118191154E+03  0.00000000000E+00 0.  1.
        -24    2    1    2    0    0  0.13163714180E+03  0.38205987089E+03 -0.17238472390E+03  0.44679722745E+03  0.81321506247E+02 0.  0.
        254    2    1    2    0    0 -0.13163714180E+03 -0.38205987089E+03  0.90332801638E+03  0.13465098881E+04  0.91312063362E+03 0.  0.
         23    2    4    4    0    0  0.27756679467E+03 -0.25396998904E+03  0.81123434018E+03  0.89888619469E+03  0.91384656728E+02 0.  0.
         23    2    4    4    0    0 -0.40920393647E+03 -0.12808988185E+03  0.92093676202E+02  0.44762369341E+03  0.89614988992E+02 0.  0.
          1    1    3    3  502    0  0.97141864924E+02  0.16680589189E+03 -0.97789718228E+02  0.21638756083E+03  0.00000000000E+00 0. -1.
         -2    1    3    3    0  502  0.34495276874E+02  0.21525397900E+03 -0.74595005674E+02  0.23040966662E+03  0.00000000000E+00 0.  1.
         13    1    5    5    0    0  0.27139455679E+03 -0.25630395477E+03  0.81039154003E+03  0.89223380952E+03  0.00000000000E+00 0. -1.
        -13    1    5    5    0    0  0.61722378783E+01  0.23339657291E+01  0.84280014706E+00  0.66523851767E+01  0.00000000000E+00 0.  1.
          4    1    6    6  503    0 -0.40978139246E+03 -0.11704874733E+03  0.85227560618E+02  0.43460894600E+03  0.00000000000E+00 0. -1.
         -4    1    6    6    0  503  0.57745599010E+00 -0.11041134517E+02  0.68661155841E+01  0.13014747406E+02  0.00000000000E+00 0.  1.
<mgrwt>
<rscale>  0 0.16375812E+04</rscale>
<asrwt>0</asrwt>
<pdfrwt beam="1">  1        1 0.19417311E+00 0.16375812E+04</pdfrwt>
<pdfrwt beam="2">  1       -4 0.81720294E-01 0.16375812E+04</pdfrwt>
<totfact> 0.59507805E+00</totfact>
</mgrwt>
</event>
<event>
12    5  0.5029243E-008  0.1505729E+04  0.7818608E-02  0.8880652E-01
          1   -1    0    0  501    0  0.00000000000E+00  0.00000000000E+00  0.94116100114E+03  0.94116100114E+03  0.00000000000E+00 0. -1.
         -2   -1    0    0    0  501 -0.00000000000E+00 -0.00000000000E+00 -0.60224029113E+03  0.60224029113E+03  0.00000000000E+00 0.  1.
        -24    2    1    2    0    0 -0.22758761847E+03  0.26414935713E+03  0.43211106767E+03  0.56083770318E+03  0.79043959608E+02 0.  0.
        254    2    1    2    0    0  0.22758761847E+03 -0.26414935713E+03 -0.93190357667E+02  0.98256358909E+03  0.91387950896E+03 0.  0.
         23    2    4    4    0    0 -0.24921951956E+03 -0.10472215263E+02 -0.29646533824E+03  0.39807693657E+03  0.91397562489E+02 0.  0.
         23    2    4    4    0    0  0.47680713803E+03 -0.25367714186E+03  0.20327498057E+03  0.58448665252E+03  0.92772787331E+02 0.  0.
          3    1    3    3  502    0 -0.23192457280E+03  0.25662404081E+03  0.40625426656E+03  0.53356108824E+03  0.00000000000E+00 0. -1.
         -4    1    3    3    0  502  0.43369543271E+01  0.75253163132E+01  0.25856801117E+02  0.27276614938E+02  0.00000000000E+00 0.  1.
         13    1    5    5    0    0 -0.22004268649E+03  0.10662545118E+02 -0.28510347438E+03  0.36030052019E+03  0.00000000000E+00 0.  1.
        -13    1    5    5    0    0 -0.29176833063E+02 -0.21134760381E+02 -0.11361863865E+02  0.37776416379E+02  0.00000000000E+00 0. -1.
          3    1    6    6  503    0  0.28772681330E+02 -0.40882124541E+01  0.33280455897E+02  0.44183361311E+02  0.00000000000E+00 0. -1.
         -3    1    6    6    0  503  0.44803445670E+03 -0.24958892941E+03  0.16999452468E+03  0.54030329121E+03  0.00000000000E+00 0.  1.
<mgrwt>
<rscale>  0 0.15057292E+04</rscale>
<asrwt>0</asrwt>
<pdfrwt beam="1">  1        1 0.14479400E+00 0.15057292E+04</pdfrwt>
<pdfrwt beam="2">  1       -2 0.92652353E-01 0.15057292E+04</pdfrwt>
<totfact> 0.14107841E+01</totfact>
</mgrwt>
</event>
<event>
12    5  0.5029243E-008  0.1205905E+04  0.7818608E-02  0.9107704E-01
         -2   -1    0    0    0  501 -0.00000000000E+00  0.00000000000E+00  0.10590626207E+04  0.10590626207E+04  0.00000000000E+00 0.  1.
          1   -1    0    0  501    0  0.00000000000E+00 -0.00000000000E+00 -0.34327674001E+03  0.34327674001E+03  0.00000000000E+00 0. -1.
        -24    2    1    2    0    0  0.17200741584E+03 -0.19466586905E+03  0.31177196151E+03  0.41337454539E+03  0.78710908491E+02 0.  0.
        254    2    1    2    0    0 -0.17200741584E+03  0.19466586905E+03  0.40401391921E+03  0.98896481535E+03  0.86448991169E+03 0.  0.
         23    2    4    4    0    0 -0.10386166628E+03  0.47581206515E+03  0.14690661160E+02  0.49553943948E+03  0.90328032655E+02 0.  0.
         23    2    4    4    0    0 -0.68145749557E+02 -0.28114619610E+03  0.38932325805E+03  0.49342537588E+03  0.90603396942E+02 0.  0.
          3    1    3    3  502    0  0.93229821071E+02 -0.10706069843E+03  0.22883617958E+03  0.26929498653E+03  0.00000000000E+00 0. -1.
         -4    1    3    3    0  502  0.78777594767E+02 -0.87605170622E+02  0.82935781929E+02  0.14407955886E+03  0.00000000000E+00 0.  1.
         13    1    5    5    0    0  0.11967492302E+02  0.33145133119E+02 -0.11907545447E+02  0.37196913313E+02  0.00000000000E+00 0. -1.
        -13    1    5    5    0    0 -0.11582915858E+03  0.44266693203E+03  0.26598206607E+02  0.45834252616E+03  0.00000000000E+00 0.  1.
          4    1    6    6  503    0 -0.57643619380E+02 -0.19964146528E+03  0.20636391036E+03  0.29285758487E+03  0.00000000000E+00 0. -1.
         -4    1    6    6    0  503 -0.10502130177E+02 -0.81504730817E+02  0.18295934769E+03  0.20056779101E+03  0.00000000000E+00 0.  1.
<mgrwt>
<rscale>  0 0.12059047E+04</rscale>
<asrwt>0</asrwt>
<pdfrwt beam="1">  1        1 0.52811807E-01 0.12059047E+04</pdfrwt>
<pdfrwt beam="2">  1       -2 0.16293271E+00 0.12059047E+04</pdfrwt>
<totfact> 0.15194959E+01</totfact>
</mgrwt>
</event>
<event>
12    5  0.5029243E-008  0.1383406E+04  0.7818608E-02  0.8965918E-01
         -2   -1    0    0    0  501 -0.00000000000E+00  0.00000000000E+00  0.43311647605E+03  0.43311647605E+03  0.00000000000E+00 0.  1.
          1   -1    0    0  501    0  0.00000000000E+00 -0.00000000000E+00 -0.11046753116E+04  0.11046753116E+04  0.00000000000E+00 0. -1.
        -24    2    1    2    0    0 -0.20198601514E+03  0.21447498072E+03  0.90234415253E+02  0.31825416280E+03  0.79659241600E+02 0.  0.
        254    2    1    2    0    0  0.20198601514E+03 -0.21447498072E+03 -0.76179325076E+03  0.12195376248E+04  0.90561868012E+03 0.  0.
         23    2    4    4    0    0 -0.90662874130E+02  0.14350547218E+03 -0.72133379169E+03  0.74651753339E+03  0.90290704604E+02 0.  0.
         23    2    4    4    0    0  0.29264888927E+03 -0.35798045290E+03 -0.40459459066E+02  0.47302009142E+03  0.91201217146E+02 0.  0.
          1    1    3    3  502    0 -0.93752957895E+00  0.77587972145E+01 -0.10247607689E+02  0.12887643666E+02  0.00000000000E+00 0. -1.
         -2    1    3    3    0  502 -0.20104848556E+03  0.20671618351E+03  0.10048202294E+03  0.30536651913E+03  0.00000000000E+00 0.  1.
         13    1    5    5    0    0 -0.17399629100E+02  0.85171828047E+02 -0.47688880641E+03  0.48474727546E+03  0.00000000000E+00 0. -1.
        -13    1    5    5    0    0 -0.73263245030E+02  0.58333644135E+02 -0.24444498528E+03  0.26177025793E+03  0.00000000000E+00 0.  1.
          1    1    6    6  503    0  0.24445712574E+03 -0.33904151617E+03 -0.23928776744E+02  0.41866576451E+03  0.00000000000E+00 0. -1.
         -1    1    6    6    0  503  0.48191763528E+02 -0.18938936735E+02 -0.16530682322E+02  0.54354326918E+02  0.00000000000E+00 0.  1.
<mgrwt>
<rscale>  0 0.13834061E+04</rscale>
<asrwt>0</asrwt>
<pdfrwt beam="1">  1        1 0.16995005E+00 0.13834061E+04</pdfrwt>
<pdfrwt beam="2">  1       -2 0.66633304E-01 0.13834061E+04</pdfrwt>
<totfact> 0.22280301E+01</totfact>
</mgrwt>
</event>
<event>
12    5  0.5029243E-008  0.1906080E+04  0.7818608E-02  0.8651836E-01
          1   -1    0    0  501    0  0.00000000000E+00  0.00000000000E+00  0.13312367590E+04  0.13312367590E+04  0.00000000000E+00 0. -1.
         -2   -1    0    0    0  501 -0.00000000000E+00 -0.00000000000E+00 -0.68228707545E+03  0.68228707545E+03  0.00000000000E+00 0.  1.
        -24    2    1    2    0    0 -0.64403564189E+03 -0.35661692036E+03  0.45113708560E+03  0.86709692320E+03  0.79842772389E+02 0.  0.
        254    2    1    2    0    0  0.64403564189E+03  0.35661692036E+03  0.19781259797E+03  0.11464269113E+04  0.85627524958E+03 0.  0.
         23    2    4    4    0    0 -0.17325665729E+03 -0.65254091732E+02  0.50916420893E+02  0.21058559251E+03  0.86474528477E+02 0.  0.
         23    2    4    4    0    0  0.81729229918E+03  0.42187101209E+03  0.14689617708E+03  0.93584131875E+03  0.90986998565E+02 0.  0.
          3    1    3    3  502    0 -0.35141446572E+03 -0.20892480720E+03  0.29421084133E+03  0.50368811872E+03  0.00000000000E+00 0. -1.
         -4    1    3    3    0  502 -0.29262117617E+03 -0.14769211316E+03  0.15692624427E+03  0.36340880448E+03  0.00000000000E+00 0.  1.
         13    1    5    5    0    0 -0.75214949423E+02  0.97088471548E+01  0.42373479467E+02  0.86873828578E+02  0.00000000000E+00 0. -1.
        -13    1    5    5    0    0 -0.98041707863E+02 -0.74962938887E+02  0.85429414258E+01  0.12371176393E+03  0.00000000000E+00 0.  1.
          3    1    6    6  503    0  0.16476941715E+03  0.60020795622E+02 -0.10273785884E+00  0.17536096285E+03  0.00000000000E+00 0. -1.
         -3    1    6    6    0  503  0.65252288202E+03  0.36185021647E+03  0.14699891493E+03  0.76048035590E+03  0.00000000000E+00 0.  1.
<mgrwt>
<rscale>  0 0.19060804E+04</rscale>
<asrwt>0</asrwt>
<pdfrwt beam="1">  1        1 0.20480566E+00 0.19060804E+04</pdfrwt>
<pdfrwt beam="2">  1       -2 0.10496724E+00 0.19060804E+04</pdfrwt>
<totfact> 0.51868089E+00</totfact>
</mgrwt>
</event>
<event>
12    5  0.5029243E-008  0.1566359E+04  0.7818608E-02  0.8841485E-01
         -2   -1    0    0    0  501 -0.00000000000E+00  0.00000000000E+00  0.85994361279E+03  0.85994361279E+03  0.00000000000E+00 0.  1.
          1   -1    0    0  501    0  0.00000000000E+00 -0.00000000000E+00 -0.71326823873E+03  0.71326823873E+03  0.00000000000E+00 0. -1.
        -24    2    1    2    0    0 -0.36306019168E+02  0.49389948176E+03  0.21614435883E+03  0.54602693101E+03  0.78563352937E+02 0.  0.
        254    2    1    2    0    0  0.36306019168E+02 -0.49389948176E+03 -0.69468984781E+02  0.10271849205E+04  0.89723357938E+03 0.  0.
         23    2    4    4    0    0 -0.40614473116E+03 -0.11404717767E+03  0.58707526703E+01  0.43188270812E+03  0.92346664562E+02 0.  0.
         23    2    4    4    0    0  0.44245075032E+03 -0.37985230409E+03 -0.75339737451E+02  0.59530221239E+03  0.93049495699E+02 0.  0.
          1    1    3    3  502    0 -0.12890838968E+02  0.49433533980E+02  0.48431082066E+02  0.70394727935E+02  0.00000000000E+00 0. -1.
         -2    1    3    3    0  502 -0.23415180200E+02  0.44446594778E+03  0.16771327677E+03  0.47563220308E+03  0.00000000000E+00 0.  1.
         13    1    5    5    0    0 -0.38508917728E+03 -0.91567944425E+02  0.23266696177E+02  0.39650939718E+03  0.00000000000E+00 0.  1.
        -13    1    5    5    0    0 -0.21055553882E+02 -0.22479233241E+02 -0.17395943507E+02  0.35373310940E+02  0.00000000000E+00 0. -1.
          3    1    6    6  503    0  0.23763324729E+02 -0.55338853653E+02 -0.15648845589E+02  0.62225161262E+02  0.00000000000E+00 0. -1.
         -3    1    6    6    0  503  0.41868742560E+03 -0.32451345044E+03 -0.59690891862E+02  0.53307705113E+03  0.00000000000E+00 0.  1.
<mgrwt>
<rscale>  0 0.15663594E+04</rscale>
<asrwt>0</asrwt>
<pdfrwt beam="1">  1        1 0.10973358E+00 0.15663594E+04</pdfrwt>
<pdfrwt beam="2">  1       -2 0.13229902E+00 0.15663594E+04</pdfrwt>
<totfact> 0.92618128E+00</totfact>
</mgrwt>
</event>
<event>
12    5  0.5029243E-008  0.1360188E+04  0.7818608E-02  0.8983151E-01
          1   -1    0    0  501    0  0.00000000000E+00  0.00000000000E+00  0.19317335817E+04  0.19317335817E+04  0.00000000000E+00 0. -1.
         -2   -1    0    0    0  501 -0.00000000000E+00 -0.00000000000E+00 -0.23943673474E+03  0.23943673474E+03  0.00000000000E+00 0.  1.
        -24    2    1    2    0    0  0.14821523125E+03  0.14104091138E+03  0.97904717975E+03  0.10034484329E+04  0.80716069063E+02 0.  0.
        254    2    1    2    0    0 -0.14821523125E+03 -0.14104091138E+03  0.71324966722E+03  0.11677218836E+04  0.90165903541E+03 0.  0.
         23    2    4    4    0    0  0.35753865649E+03 -0.13624073103E+03  0.20104565768E+03  0.44200282481E+03  0.92475472398E+02 0.  0.
         23    2    4    4    0    0 -0.50575388774E+03 -0.48001803546E+01  0.51220400954E+03  0.72571905876E+03  0.92223468632E+02 0.  0.
          1    1    3    3  502    0  0.15588583801E+03  0.14215467397E+03  0.91909825318E+03  0.94300050097E+03  0.00000000000E+00 0. -1.
         -2    1    3    3    0  502 -0.76706067615E+01 -0.11137625858E+01  0.59948926568E+02  0.60447931907E+02  0.00000000000E+00 0.  1.
         13    1    5    5    0    0  0.32635172487E+03 -0.10991809137E+03  0.20538544895E+03  0.40096211514E+03  0.00000000000E+00 0.  1.
        -13    1    5    5    0    0  0.31186931613E+02 -0.26322639654E+02 -0.43397912703E+01  0.41040709668E+02  0.00000000000E+00 0. -1.
          3    1    6    6  503    0 -0.90766455889E+02 -0.25647236946E+02  0.13394157781E+03  0.16381903597E+03  0.00000000000E+00 0. -1.
         -3    1    6    6    0  503 -0.41498743185E+03  0.20847056592E+02  0.37826243173E+03  0.56190002280E+03  0.00000000000E+00 0.  1.
<mgrwt>
<rscale>  0 0.13601882E+04</rscale>
<asrwt>0</asrwt>
<pdfrwt beam="1">  1        1 0.29718977E+00 0.13601882E+04</pdfrwt>
<pdfrwt beam="2">  1       -2 0.36836422E-01 0.13601882E+04</pdfrwt>
<totfact> 0.19779783E+01</totfact>
</mgrwt>
</event>
<event>
12    5  0.5029243E-008  0.1170163E+04  0.7818608E-02  0.9139382E-01
         -2   -1    0    0    0  501 -0.00000000000E+00  0.00000000000E+00  0.60701748946E+03  0.60701748946E+03  0.00000000000E+00 0.  1.
          1   -1    0    0  501    0  0.00000000000E+00 -0.00000000000E+00 -0.56393783203E+03  0.56393783203E+03  0.00000000000E+00 0. -1.
        -24    2    1    2    0    0 -0.16916725548E+03 -0.12219309622E+03 -0.93415743169E+02  0.24221019953E+03  0.79941019463E+02 0.  0.
        254    2    1    2    0    0  0.16916725548E+03  0.12219309622E+03  0.13649540059E+03  0.92874512196E+03  0.89464394823E+03 0.  0.
         23    2    4    4    0    0  0.33328460197E+03 -0.29463664047E+03  0.12946222449E+03  0.47112635417E+03  0.85499697151E+02 0.  0.
         23    2    4    4    0    0 -0.16411734649E+03  0.41682973669E+03  0.70331760990E+01  0.45761876779E+03  0.93187650783E+02 0.  0.
          1    1    3    3  502    0 -0.17076391012E+03 -0.12890812841E+03 -0.96423767562E+02  0.23468097818E+03  0.00000000000E+00 0. -1.
         -2    1    3    3    0  502  0.15966546396E+01  0.67150321885E+01  0.30080243933E+01  0.75292213463E+01  0.00000000000E+00 0.  1.
         13    1    5    5    0    0  0.37497565980E+02 -0.73754988016E+02  0.11245772022E+02  0.83500497603E+02  0.00000000000E+00 0. -1.
        -13    1    5    5    0    0  0.29578703599E+03 -0.22088165245E+03  0.11821645247E+03  0.38762585657E+03  0.00000000000E+00 0.  1.
          2    1    6    6  503    0 -0.39842827661E+02  0.14191715181E+03  0.43592343521E+02  0.15371474004E+03  0.00000000000E+00 0. -1.
         -2    1    6    6    0  503 -0.12427451883E+03  0.27491258488E+03 -0.36559167422E+02  0.30390402775E+03  0.00000000000E+00 0.  1.
<mgrwt>
<rscale>  0 0.11701626E+04</rscale>
<asrwt>0</asrwt>
<pdfrwt beam="1">  1        1 0.86759666E-01 0.11701626E+04</pdfrwt>
<pdfrwt beam="2">  1       -2 0.93387306E-01 0.11701626E+04</pdfrwt>
<totfact> 0.31519774E+01</totfact>
</mgrwt>
</event>
<event>
12    5  0.5029243E-008  0.1741208E+04  0.7818608E-02  0.8738205E-01
          1   -1    0    0  501    0  0.00000000000E+00  0.00000000000E+00  0.14988985712E+04  0.14988985712E+04  0.00000000000E+00 0. -1.
         -2   -1    0    0    0  501 -0.00000000000E+00 -0.00000000000E+00 -0.50567190159E+03  0.50567190159E+03  0.00000000000E+00 0.  1.
        -24    2    1    2    0    0 -0.28406488673E+03  0.42685969742E+03 -0.62142457095E+02  0.52268698760E+03  0.80236780088E+02 0.  0.
        254    2    1    2    0    0  0.28406488673E+03 -0.42685969742E+03  0.10553691267E+04  0.14818834851E+04  0.90513679015E+03 0.  0.
         23    2    4    4    0    0  0.32538933854E+03 -0.22318518835E+03  0.11635301104E+04  0.12319965183E+04  0.91231865229E+02 0.  0.
         23    2    4    4    0    0 -0.41324451807E+02 -0.20367450907E+03 -0.10816098379E+03  0.24988696685E+03  0.86911919941E+02 0.  0.
          1    1    3    3  502    0 -0.14960199620E+03  0.19224125532E+03  0.65479328615E+01  0.24368080133E+03  0.00000000000E+00 0. -1.
         -2    1    3    3    0  502 -0.13446289054E+03  0.23461844210E+03 -0.68690389957E+02  0.27900618627E+03  0.00000000000E+00 0.  1.
         13    1    5    5    0    0  0.56646333821E+02 -0.74856224912E+02  0.35362007843E+03  0.36586803825E+03  0.00000000000E+00 0.  1.
        -13    1    5    5    0    0  0.26874300472E+03 -0.14832896344E+03  0.80991003201E+03  0.86612848004E+03  0.00000000000E+00 0. -1.
          3    1    6    6  503    0 -0.66576000453E+02 -0.15754556063E+03 -0.95120186826E+02  0.19570594639E+03  0.00000000000E+00 0. -1.
         -3    1    6    6    0  503  0.25251548646E+02 -0.46128948438E+02 -0.13040796960E+02  0.54181020463E+02  0.00000000000E+00 0.  1.
<mgrwt>
<rscale>  0 0.17412075E+04</rscale>
<asrwt>0</asrwt>
<pdfrwt beam="1">  1        1 0.23059978E+00 0.17412075E+04</pdfrwt>
<pdfrwt beam="2">  1       -2 0.77795678E-01 0.17412075E+04</pdfrwt>
<totfact> 0.80261239E+00</totfact>
</mgrwt>
</event>
<event>
12    5  0.5029243E-008  0.1777526E+04  0.7818608E-02  0.8718343E-01
          1   -1    0    0  501    0  0.00000000000E+00  0.00000000000E+00  0.70481585310E+03  0.70481585310E+03  0.00000000000E+00 0. -1.
         -2   -1    0    0    0  501 -0.00000000000E+00 -0.00000000000E+00 -0.11207182985E+04  0.11207182985E+04  0.00000000000E+00 0.  1.
        -24    2    1    2    0    0 -0.55476487604E+03 -0.14392590950E+02 -0.51230518263E+03  0.75943300451E+03  0.79439749670E+02 0.  0.
        254    2    1    2    0    0  0.55476487604E+03  0.14392590950E+02  0.96402737235E+02  0.10661011471E+04  0.90515576212E+03 0.  0.
         23    2    4    4    0    0  0.28471171655E+03 -0.37883761867E+03 -0.17048830896E+03  0.51179418128E+03  0.91040197957E+02 0.  0.
         23    2    4    4    0    0  0.27005315949E+03  0.39323020962E+03  0.26689104619E+03  0.55430696580E+03  0.92014537395E+02 0.  0.
          1    1    3    3  502    0 -0.14056902949E+03  0.30955799897E+02 -0.13191534697E+03  0.19524234266E+03  0.00000000000E+00 0. -1.
         -2    1    3    3    0  502 -0.41419584655E+03 -0.45348390847E+02 -0.38038983566E+03  0.56419066185E+03  0.00000000000E+00 0.  1.
         13    1    5    5    0    0  0.20835424100E+03 -0.20458457452E+03 -0.94239673948E+02  0.30683457110E+03  0.00000000000E+00 0.  1.
        -13    1    5    5    0    0  0.76357475553E+02 -0.17425304414E+03 -0.76248635009E+02  0.20495961018E+03  0.00000000000E+00 0. -1.
          1    1    6    6  503    0  0.55956070509E+02  0.99952880162E+02  0.22845647456E+02  0.11680575194E+03  0.00000000000E+00 0. -1.
         -1    1    6    6    0  503  0.21409708898E+03  0.29327732946E+03  0.24404539874E+03  0.43750121386E+03  0.00000000000E+00 0.  1.
<mgrwt>
<rscale>  0 0.17775264E+04</rscale>
<asrwt>0</asrwt>
<pdfrwt beam="1">  1        1 0.10843321E+00 0.17775264E+04</pdfrwt>
<pdfrwt beam="2">  1       -2 0.17241820E+00 0.17775264E+04</pdfrwt>
<totfact> 0.45702801E+00</totfact>
</mgrwt>
</event>
<event>
12    5  0.5029243E-008  0.1614500E+04  0.7818608E-02  0.8811689E-01
         -2   -1    0    0    0  501 -0.00000000000E+00  0.00000000000E+00  0.30215515012E+03  0.30215515012E+03  0.00000000000E+00 0.  1.
          1   -1    0    0  501    0  0.00000000000E+00 -0.00000000000E+00 -0.21566814521E+04  0.21566814521E+04  0.00000000000E+00 0. -1.
        -24    2    1    2    0    0 -0.43283460516E+03  0.32927129668E+03 -0.56537821737E+03  0.78830605297E+03  0.77514658125E+02 0.  0.
        254    2    1    2    0    0  0.43283460516E+03 -0.32927129668E+03 -0.12891480846E+04  0.16705305492E+04  0.91269061007E+03 0.  0.
         23    2    4    4    0    0  0.68591208487E+03 -0.16901455782E+03 -0.67629474469E+03  0.98265200747E+03  0.95859674334E+02 0.  0.
         23    2    4    4    0    0 -0.25307747971E+03 -0.16025673885E+03 -0.61285333989E+03  0.68787854176E+03  0.88641067928E+02 0.  0.
          1    1    3    3  502    0 -0.22994613486E+03  0.17978791685E+03 -0.35819911386E+03  0.46206658086E+03  0.00000000000E+00 0. -1.
         -2    1    3    3    0  502 -0.20288847030E+03  0.14948337982E+03 -0.20717910352E+03  0.32623947210E+03  0.00000000000E+00 0.  1.
         13    1    5    5    0    0  0.47117213370E+03 -0.13728741047E+03 -0.52103360686E+03  0.71577023696E+03  0.00000000000E+00 0. -1.
        -13    1    5    5    0    0  0.21473995117E+03 -0.31727147349E+02 -0.15526113783E+03  0.26688177050E+03  0.00000000000E+00 0.  1.
          4    1    6    6  503    0 -0.25887016168E+03 -0.14767735224E+03 -0.57656675565E+03  0.64903897009E+03  0.00000000000E+00 0. -1.
         -4    1    6    6    0  503  0.57926819776E+01 -0.12579386613E+02 -0.36286584239E+02  0.38839571673E+02  0.00000000000E+00 0.  1.
<mgrwt>
<rscale>  0 0.16144998E+04</rscale>
<asrwt>0</asrwt>
<pdfrwt beam="1">  1        1 0.33179714E+00 0.16144998E+04</pdfrwt>
<pdfrwt beam="2">  1       -2 0.46485408E-01 0.16144998E+04</pdfrwt>
<totfact> 0.86155062E+00</totfact>
</mgrwt>
</event>
<event>
12    5  0.5029243E-008  0.1344625E+04  0.7818608E-02  0.8994907E-01
         -2   -1    0    0    0  501 -0.00000000000E+00  0.00000000000E+00  0.33535019671E+03  0.33535019671E+03  0.00000000000E+00 0.  1.
          1   -1    0    0  501    0  0.00000000000E+00 -0.00000000000E+00 -0.13478574566E+04  0.13478574566E+04  0.00000000000E+00 0. -1.
        -24    2    1    2    0    0 -0.28976042304E+03 -0.19120180272E+03 -0.30169029909E+03  0.46684880147E+03  0.80072059756E+02 0.  0.
        254    2    1    2    0    0  0.28976042304E+03  0.19120180272E+03 -0.71081696084E+03  0.12163588519E+04  0.92398532054E+03 0.  0.
         23    2    4    4    0    0  0.60853319427E+03  0.46686044543E+02 -0.50860408185E+03  0.79980263860E+03  0.92270869409E+02 0.  0.
         23    2    4    4    0    0 -0.31877277124E+03  0.14451575817E+03 -0.20221287898E+03  0.41655621327E+03  0.10063869209E+03 0.  0.
          1    1    3    3  502    0 -0.28233435437E+03 -0.16152646881E+03 -0.28175141776E+03  0.43033399725E+03  0.00000000000E+00 0. -1.
         -2    1    3    3    0  502 -0.74260686629E+01 -0.29675333911E+02 -0.19938881331E+02  0.36514804220E+02  0.00000000000E+00 0.  1.
         13    1    5    5    0    0  0.26399498222E+03  0.61229421092E+02 -0.25076375387E+03  0.36922195614E+03  0.00000000000E+00 0. -1.
        -13    1    5    5    0    0  0.34453821205E+03 -0.14543376549E+02 -0.25784032799E+03  0.43058068245E+03  0.00000000000E+00 0.  1.
          2    1    6    6  503    0 -0.13558735933E+03  0.11104946847E+02 -0.57628347434E+02  0.14774396192E+03  0.00000000000E+00 0.  1.
         -2    1    6    6    0  503 -0.18318541190E+03  0.13341081133E+03 -0.14458453155E+03  0.26881225135E+03  0.00000000000E+00 0. -1.
<mgrwt>
<rscale>  0 0.13446252E+04</rscale>
<asrwt>0</asrwt>
<pdfrwt beam="1">  1        1 0.20736269E+00 0.13446252E+04</pdfrwt>
<pdfrwt beam="2">  1       -2 0.51592337E-01 0.13446252E+04</pdfrwt>
<totfact> 0.25491823E+01</totfact>
</mgrwt>
</event>
<event>
12    5  0.5029243E-008  0.1555715E+04  0.7818608E-02  0.8848226E-01
         -2   -1    0    0    0  501 -0.00000000000E+00  0.00000000000E+00  0.15212836458E+03  0.15212836458E+03  0.00000000000E+00 0.  1.
          1   -1    0    0  501    0  0.00000000000E+00 -0.00000000000E+00 -0.39773137068E+04  0.39773137068E+04  0.00000000000E+00 0. -1.
        -24    2    1    2    0    0 -0.55451431951E+02  0.40923992287E+03 -0.43431018459E+03  0.60462640222E+03  0.79972333076E+02 0.  0.
        254    2    1    2    0    0  0.55451431951E+02 -0.40923992287E+03 -0.33908751576E+04  0.35248156692E+04  0.86933249742E+03 0.  0.
         23    2    4    4    0    0 -0.22848114574E+03 -0.56490245795E+03 -0.19427006066E+04  0.20380456287E+04  0.90696839693E+02 0.  0.
         23    2    4    4    0    0  0.28393257769E+03  0.15566253508E+03 -0.14481745510E+04  0.14867700405E+04  0.91799180224E+02 0.  0.
          1    1    3    3  502    0 -0.73942592794E+00  0.54737920510E+01  0.35067488910E+01  0.65426629063E+01  0.00000000000E+00 0. -1.
         -2    1    3    3    0  502 -0.54712006023E+02  0.40376613082E+03 -0.43781693348E+03  0.59808373932E+03  0.00000000000E+00 0.  1.
         13    1    5    5    0    0 -0.22510027198E+03 -0.47217014462E+03 -0.16679470255E+04  0.17480452105E+04  0.00000000000E+00 0. -1.
        -13    1    5    5    0    0 -0.33808737655E+01 -0.92732313331E+02 -0.27475358111E+03  0.29000041823E+03  0.00000000000E+00 0.  1.
          1    1    6    6  503    0  0.18540838590E+03  0.12265872598E+03 -0.11422316894E+04  0.11636643266E+04  0.00000000000E+00 0. -1.
         -1    1    6    6    0  503  0.98524191798E+02  0.33003809097E+02 -0.30594286159E+03  0.32310571388E+03  0.00000000000E+00 0.  1.
<mgrwt>
<rscale>  0 0.15557149E+04</rscale>
<asrwt>0</asrwt>
<pdfrwt beam="1">  1        1 0.61189449E+00 0.15557149E+04</pdfrwt>
<pdfrwt beam="2">  1       -2 0.23404361E-01 0.15557149E+04</pdfrwt>
<totfact> 0.13970185E+00</totfact>
</mgrwt>
</event>
<event>
12    5  0.5029243E-008  0.1674661E+04  0.7818608E-02  0.8775949E-01
          1   -1    0    0  501    0  0.00000000000E+00  0.00000000000E+00  0.17948880307E+04  0.17948880307E+04  0.00000000000E+00 0. -1.
         -2   -1    0    0    0  501 -0.00000000000E+00 -0.00000000000E+00 -0.39062184891E+03  0.39062184891E+03  0.00000000000E+00 0.  1.
        -24    2    1    2    0    0 -0.31642557665E+03 -0.21647140484E+03  0.10721598452E+04  0.11414083291E+04  0.79380257903E+02 0.  0.
        254    2    1    2    0    0  0.31642557665E+03  0.21647140484E+03  0.33210633659E+03  0.10441015505E+04  0.91261624703E+03 0.  0.
         23    2    4    4    0    0  0.35113299362E+03  0.50456188555E+03  0.39074395690E+03  0.73368299665E+03  0.87936478037E+02 0.  0.
         23    2    4    4    0    0 -0.34707416976E+02 -0.28809048070E+03 -0.58637620311E+02  0.31041855388E+03  0.93384036168E+02 0.  0.
          3    1    3    3  502    0 -0.30916661398E+03 -0.21151700814E+03  0.98531717303E+03  0.10541220856E+04  0.00000000000E+00 0. -1.
         -4    1    3    3    0  502 -0.72589626690E+01 -0.49543967046E+01  0.86842672178E+02  0.87286243457E+02  0.00000000000E+00 0.  1.
         13    1    5    5    0    0  0.10915513705E+03  0.18860015834E+03  0.94331052438E+02  0.23745149215E+03  0.00000000000E+00 0.  1.
        -13    1    5    5    0    0  0.24197785657E+03  0.31596172720E+03  0.29641290446E+03  0.49623150450E+03  0.00000000000E+00 0. -1.
          1    1    6    6  503    0 -0.25558181118E+02 -0.29026817177E+03 -0.46522815306E+02  0.29508169124E+03  0.00000000000E+00 0. -1.
         -1    1    6    6    0  503 -0.91492358576E+01  0.21776910639E+01 -0.12114805006E+02  0.15336862635E+02  0.00000000000E+00 0.  1.
<mgrwt>
<rscale>  0 0.16746611E+04</rscale>
<asrwt>0</asrwt>
<pdfrwt beam="1">  1        1 0.27613662E+00 0.16746611E+04</pdfrwt>
<pdfrwt beam="2">  1       -2 0.60095670E-01 0.16746611E+04</pdfrwt>
<totfact> 0.88744737E+00</totfact>
</mgrwt>
</event>
<event>
12    5  0.5029243E-008  0.1548717E+04  0.7818608E-02  0.8852688E-01
         -4   -1    0    0    0  501 -0.00000000000E+00  0.00000000000E+00  0.71053656324E+03  0.71053656324E+03  0.00000000000E+00 0.  1.
          3   -1    0    0  501    0  0.00000000000E+00 -0.00000000000E+00 -0.84391275609E+03  0.84391275609E+03  0.00000000000E+00 0. -1.
        -24    2    1    2    0    0  0.65202400638E+02  0.35322701645E+03 -0.38811490103E+03  0.53473153786E+03  0.79271451225E+02 0.  0.
        254    2    1    2    0    0 -0.65202400638E+02 -0.35322701645E+03  0.25473870819E+03  0.10197177815E+04  0.91973467163E+03 0.  0.
         23    2    4    4    0    0  0.40703835789E+03 -0.27094432467E+03  0.15969297072E+03  0.52244095822E+03  0.91387406499E+02 0.  0.
         23    2    4    4    0    0 -0.47224075853E+03 -0.82282691780E+02  0.95045737470E+02  0.49727682325E+03  0.92025927578E+02 0.  0.
          3    1    3    3  502    0  0.42325638586E+02  0.28650645644E+03 -0.26354005934E+03  0.39157473379E+03  0.00000000000E+00 0. -1.
         -4    1    3    3    0  502  0.22876762052E+02  0.66720560011E+02 -0.12457484168E+03  0.14315680407E+03  0.00000000000E+00 0.  1.
         13    1    5    5    0    0  0.16154728913E+02 -0.14872578833E+01 -0.90596411939E+01  0.18581288998E+02  0.00000000000E+00 0. -1.
        -13    1    5    5    0    0  0.39088362898E+03 -0.26945706679E+03  0.16875261191E+03  0.50385966923E+03  0.00000000000E+00 0.  1.
          2    1    6    6  503    0 -0.12812176391E+03 -0.62346273281E+02  0.13931076639E+02  0.14316535571E+03  0.00000000000E+00 0. -1.
         -2    1    6    6    0  503 -0.34411899462E+03 -0.19936418499E+02  0.81114660831E+02  0.35411146754E+03  0.00000000000E+00 0.  1.
<mgrwt>
<rscale>  0 0.15487167E+04</rscale>
<asrwt>0</asrwt>
<pdfrwt beam="1">  1        3 0.12983273E+00 0.15487167E+04</pdfrwt>
<pdfrwt beam="2">  1       -4 0.10931332E+00 0.15487167E+04</pdfrwt>
<totfact> 0.68498366E-01</totfact>
</mgrwt>
</event>
<event>
12    5  0.5029243E-008  0.1277543E+04  0.7818608E-02  0.9047566E-01
          1   -1    0    0  501    0  0.00000000000E+00  0.00000000000E+00  0.24003300232E+04  0.24003300232E+04  0.00000000000E+00 0. -1.
         -2   -1    0    0    0  501 -0.00000000000E+00 -0.00000000000E+00 -0.16998872206E+03  0.16998872206E+03  0.00000000000E+00 0.  1.
        -24    2    1    2    0    0 -0.11151947285E+03 -0.27587458467E+03  0.35336982156E+03  0.46892487170E+03  0.80479346545E+02 0.  0.
        254    2    1    2    0    0  0.11151947285E+03  0.27587458467E+03  0.18769714796E+04  0.21013938736E+04  0.89682266775E+03 0.  0.
         23    2    4    4    0    0  0.22073725642E+03 -0.27205776661E+03  0.54915605747E+03  0.65792593408E+03  0.92486726243E+02 0.  0.
         23    2    4    4    0    0 -0.10921778357E+03  0.54793235128E+03  0.13278154221E+04  0.14434679395E+04  0.91364715780E+02 0.  0.
          1    1    3    3  502    0 -0.98650238990E+02 -0.26689502672E+03  0.35276677906E+03  0.45322094540E+03  0.00000000000E+00 0. -1.
         -2    1    3    3    0  502 -0.12869233857E+02 -0.89795579557E+01  0.60304249950E+00  0.15703926305E+02  0.00000000000E+00 0.  1.
         13    1    5    5    0    0  0.20893685019E+03 -0.19982505642E+03  0.44233994986E+03  0.52844043352E+03  0.00000000000E+00 0. -1.
        -13    1    5    5    0    0  0.11800406228E+02 -0.72232710190E+02  0.10681610761E+03  0.12948550055E+03  0.00000000000E+00 0.  1.
          1    1    6    6  503    0 -0.10346805789E+03  0.55027499433E+03  0.13139160185E+04  0.14282449062E+04  0.00000000000E+00 0. -1.
         -1    1    6    6    0  503 -0.57497256793E+01 -0.23426430499E+01  0.13899403591E+02  0.15223033273E+02  0.00000000000E+00 0.  1.
<mgrwt>
<rscale>  0 0.12775430E+04</rscale>
<asrwt>0</asrwt>
<pdfrwt beam="1">  1        1 0.36928152E+00 0.12775430E+04</pdfrwt>
<pdfrwt beam="2">  1       -2 0.26152113E-01 0.12775430E+04</pdfrwt>
<totfact> 0.18206164E+01</totfact>
</mgrwt>
</event>
<event>
12    5  0.5029243E-008  0.1845650E+04  0.7818608E-02  0.8682393E-01
         -2   -1    0    0    0  501 -0.00000000000E+00  0.00000000000E+00  0.29476591982E+03  0.29476591982E+03  0.00000000000E+00 0.  1.
          1   -1    0    0  501    0  0.00000000000E+00 -0.00000000000E+00 -0.28890929343E+04  0.28890929343E+04  0.00000000000E+00 0. -1.
        -24    2    1    2    0    0  0.42358034831E+03 -0.35897997819E+03 -0.25209985476E+03  0.61527936779E+03  0.82020896397E+02 0.  0.
        254    2    1    2    0    0 -0.42358034831E+03  0.35897997819E+03 -0.23422271598E+04  0.25685794864E+04  0.89626200058E+03 0.  0.
         23    2    4    4    0    0 -0.45241326272E+03  0.47333482386E+03 -0.23262176023E+04  0.24182567850E+04  0.89184802523E+02 0.  0.
         23    2    4    4    0    0  0.28832914415E+02 -0.11435484567E+03 -0.16009557418E+02  0.15032270137E+03  0.91827234181E+02 0.  0.
          3    1    3    3  502    0  0.12337989399E+03 -0.93827415796E+02 -0.32058220686E+02  0.15828427499E+03  0.00000000000E+00 0. -1.
         -4    1    3    3    0  502  0.30020045431E+03 -0.26515256239E+03 -0.22004163408E+03  0.45699509280E+03  0.00000000000E+00 0.  1.
         13    1    5    5    0    0 -0.38270832322E+03  0.43753365144E+03 -0.20002831527E+04  0.20830348167E+04  0.00000000000E+00 0.  1.
        -13    1    5    5    0    0 -0.69704939504E+02  0.35801172420E+02 -0.32593444969E+03  0.33522196830E+03  0.00000000000E+00 0. -1.
          3    1    6    6  503    0  0.67817988901E+01 -0.47256074690E+01 -0.35815808123E+02  0.36757261509E+02  0.00000000000E+00 0. -1.
         -3    1    6    6    0  503  0.22051115525E+02 -0.10962923820E+03  0.19806250706E+02  0.11356543986E+03  0.00000000000E+00 0.  1.
<mgrwt>
<rscale>  0 0.18456502E+04</rscale>
<asrwt>0</asrwt>
<pdfrwt beam="1">  1        1 0.44447585E+00 0.18456502E+04</pdfrwt>
<pdfrwt beam="2">  1       -2 0.45348602E-01 0.18456502E+04</pdfrwt>
<totfact> 0.27451598E+00</totfact>
</mgrwt>
</event>
<event>
12    5  0.5029243E-008  0.1400895E+04  0.7818608E-02  0.8953171E-01
         -2   -1    0    0    0  501 -0.00000000000E+00  0.00000000000E+00  0.14857131874E+04  0.14857131874E+04  0.00000000000E+00 0.  1.
          1   -1    0    0  501    0  0.00000000000E+00 -0.00000000000E+00 -0.33022994247E+03  0.33022994247E+03  0.00000000000E+00 0. -1.
        -24    2    1    2    0    0 -0.20883866251E+03 -0.28287493110E+03  0.38020457752E+03  0.52395076798E+03  0.79605734076E+02 0.  0.
        254    2    1    2    0    0  0.20883866251E+03  0.28287493110E+03  0.77527866737E+03  0.12919923618E+04  0.97188241953E+03 0.  0.
         23    2    4    4    0    0  0.82075600681E+02  0.63512386013E+03  0.45177543842E+03  0.78890427261E+03  0.90278362035E+02 0.  0.
         23    2    4    4    0    0  0.12676306183E+03 -0.35224892903E+03  0.32350322895E+03  0.50308808924E+03  0.91077464522E+02 0.  0.
          1    1    3    3  502    0 -0.97141620312E+02 -0.16674800035E+03  0.15762880268E+03  0.24917509798E+03  0.00000000000E+00 0. -1.
         -4    1    3    3    0  502 -0.11169704220E+03 -0.11612693075E+03  0.22257577483E+03  0.27477567000E+03  0.00000000000E+00 0.  1.
         13    1    5    5    0    0  0.22555408311E+02  0.25372614389E+02  0.20155195691E+02  0.39480981730E+02  0.00000000000E+00 0.  1.
        -13    1    5    5    0    0  0.59520192369E+02  0.60975124574E+03  0.43162024273E+03  0.74942329088E+03  0.00000000000E+00 0. -1.
          2    1    6    6  503    0  0.12500705755E+03 -0.35095853808E+03  0.32909059312E+03  0.49709081501E+03  0.00000000000E+00 0. -1.
         -2    1    6    6    0  503  0.17560042742E+01 -0.12903909535E+01 -0.55873641678E+01  0.59972742281E+01  0.00000000000E+00 0.  1.
<mgrwt>
<rscale>  0 0.14008954E+04</rscale>
<asrwt>0</asrwt>
<pdfrwt beam="1">  1        1 0.50804607E-01 0.14008954E+04</pdfrwt>
<pdfrwt beam="2">  1       -2 0.22857126E+00 0.14008954E+04</pdfrwt>
<totfact> 0.57459634E+00</totfact>
</mgrwt>
</event>
<event>
12    5  0.5029243E-008  0.1949102E+04  0.7818608E-02  0.8630794E-01
          1   -1    0    0  501    0  0.00000000000E+00  0.00000000000E+00  0.41664484783E+04  0.41664484783E+04  0.00000000000E+00 0. -1.
         -2   -1    0    0    0  501 -0.00000000000E+00 -0.00000000000E+00 -0.22795186696E+03  0.22795186696E+03  0.00000000000E+00 0.  1.
        -24    2    1    2    0    0  0.13051595043E+03 -0.48054714580E+03  0.28711080686E+04  0.29151260991E+04  0.82089336789E+02 0.  0.
        254    2    1    2    0    0 -0.13051595043E+03  0.48054714580E+03  0.10673885428E+04  0.14792742462E+04  0.89497152003E+03 0.  0.
         23    2    4    4    0    0  0.20685626664E+03  0.46821748762E+03  0.99323924523E+03  0.11210821806E+04  0.91016078572E+02 0.  0.
         23    2    4    4    0    0 -0.33737221707E+03  0.12329658178E+02  0.74149297533E+02  0.35819206565E+03  0.93975551336E+02 0.  0.
          3    1    3    3  502    0  0.79861413642E+02 -0.30269278474E+03  0.20241050845E+04  0.20481704422E+04  0.00000000000E+00 0. -1.
         -2    1    3    3    0  502  0.50654536786E+02 -0.17785436106E+03  0.84700298415E+03  0.86695565689E+03  0.00000000000E+00 0.  1.
         13    1    5    5    0    0  0.42015452295E+02  0.16176923277E+03  0.39671752236E+03  0.43048736968E+03  0.00000000000E+00 0. -1.
        -13    1    5    5    0    0  0.16484081435E+03  0.30644825485E+03  0.59652172287E+03  0.69059481089E+03  0.00000000000E+00 0.  1.
          3    1    6    6  503    0  0.56122565831E+01  0.47650329646E+01  0.13435889902E+01  0.74838622704E+01  0.00000000000E+00 0. -1.
         -3    1    6    6    0  503 -0.34298447366E+03  0.75646252133E+01  0.72805708542E+02  0.35070820338E+03  0.00000000000E+00 0.  1.
<mgrwt>
<rscale>  0 0.19491021E+04</rscale>
<asrwt>0</asrwt>
<pdfrwt beam="1">  1        1 0.64099202E+00 0.19491021E+04</pdfrwt>
<pdfrwt beam="2">  1       -2 0.35069521E-01 0.19491021E+04</pdfrwt>
<totfact> 0.42900572E-01</totfact>
</mgrwt>
</event>
<event>
12    5  0.5029243E-008  0.1537582E+04  0.7818608E-02  0.8859839E-01
         -2   -1    0    0    0  501 -0.00000000000E+00  0.00000000000E+00  0.26821160181E+03  0.26821160181E+03  0.00000000000E+00 0.  1.
          1   -1    0    0  501    0  0.00000000000E+00 -0.00000000000E+00 -0.22036313194E+04  0.22036313194E+04  0.00000000000E+00 0. -1.
        -24    2    1    2    0    0 -0.12034230102E+03 -0.37292554850E+03 -0.11524435220E+04  0.12200859410E+04  0.83233994697E+02 0.  0.
        254    2    1    2    0    0  0.12034230102E+03  0.37292554850E+03 -0.78297619562E+03  0.12517569802E+04  0.89458821842E+03 0.  0.
         23    2    4    4    0    0  0.13533377570E+03  0.11978880508E+03 -0.92555373497E+03  0.94749187946E+03  0.91796278097E+02 0.  0.
         23    2    4    4    0    0 -0.14991474677E+02  0.25313674342E+03  0.14257753935E+03  0.30426510077E+03  0.89140011450E+02 0.  0.
          3    1    3    3  502    0 -0.10372326251E+03 -0.21590036414E+03 -0.61760745587E+03  0.66242769565E+03  0.00000000000E+00 0. -1.
         -4    1    3    3    0  502 -0.16619038513E+02 -0.15702518436E+03 -0.53483606614E+03  0.55765824535E+03  0.00000000000E+00 0.  1.
         13    1    5    5    0    0 -0.74979131986E+01  0.29464867716E+02 -0.89319194838E+02  0.94352083699E+02  0.00000000000E+00 0. -1.
        -13    1    5    5    0    0  0.14283168890E+03  0.90323937367E+02 -0.83623454013E+03  0.85313979576E+03  0.00000000000E+00 0.  1.
          3    1    6    6  503    0 -0.27343406474E+02  0.13978470047E+03  0.33176745569E+02  0.14624678051E+03  0.00000000000E+00 0. -1.
         -3    1    6    6    0  503  0.12351931796E+02  0.11335204295E+03  0.10940079378E+03  0.15801832027E+03  0.00000000000E+00 0.  1.
<mgrwt>
<rscale>  0 0.15375818E+04</rscale>
<asrwt>0</asrwt>
<pdfrwt beam="1">  1        1 0.33902020E+00 0.15375818E+04</pdfrwt>
<pdfrwt beam="2">  1       -2 0.41263324E-01 0.15375818E+04</pdfrwt>
<totfact> 0.10216101E+01</totfact>
</mgrwt>
</event>
<event>
12    5  0.5029243E-008  0.3421113E+04  0.7818608E-02  0.8132744E-01
         -2   -1    0    0    0  501 -0.00000000000E+00  0.00000000000E+00  0.10718614552E+04  0.10718614552E+04  0.00000000000E+00 0.  1.
          1   -1    0    0  501    0  0.00000000000E+00 -0.00000000000E+00 -0.27298343598E+04  0.27298343598E+04  0.00000000000E+00 0. -1.
        -24    2    1    2    0    0 -0.10390849528E+03 -0.40998220101E+02  0.99167623200E+03  0.10012316888E+04  0.81026638028E+02 0.  0.
        254    2    1    2    0    0  0.10390849528E+03  0.40998220101E+02 -0.26496491366E+04  0.28004641262E+04  0.89971159028E+03 0.  0.
         23    2    4    4    0    0  0.24504216155E+03  0.36870675052E+03 -0.20306823780E+04  0.20803258454E+04  0.89968738695E+02 0.  0.
         23    2    4    4    0    0 -0.14113366628E+03 -0.32770853042E+03 -0.61896675857E+03  0.72013828077E+03  0.90375342645E+02 0.  0.
          3    1    3    3  502    0 -0.49588605979E+02 -0.28016461454E+02  0.21074028744E+03  0.21830121554E+03  0.00000000000E+00 0. -1.
         -4    1    3    3    0  502 -0.54319889297E+02 -0.12981758647E+02  0.78093594456E+03  0.78293047325E+03  0.00000000000E+00 0.  1.
         13    1    5    5    0    0 -0.10009701992E+01  0.40150799247E+02 -0.22712048228E+03  0.23064431944E+03  0.00000000000E+00 0. -1.
        -13    1    5    5    0    0  0.24604313175E+03  0.32855595127E+03 -0.18035618958E+04  0.18496815260E+04  0.00000000000E+00 0.  1.
          2    1    6    6  503    0  0.80752154010E+01 -0.25816001975E+02 -0.22540564747E+02  0.35210113900E+02  0.00000000000E+00 0. -1.
         -2    1    6    6    0  503 -0.14920888168E+03 -0.30189252844E+03 -0.59642619382E+03  0.68492816687E+03  0.00000000000E+00 0.  1.
<mgrwt>
<rscale>  0 0.34211134E+04</rscale>
<asrwt>0</asrwt>
<pdfrwt beam="1">  1        1 0.41997451E+00 0.34211134E+04</pdfrwt>
<pdfrwt beam="2">  1       -2 0.16490176E+00 0.34211134E+04</pdfrwt>
<totfact> 0.15664604E-01</totfact>
</mgrwt>
</event>
<event>
12    5  0.5029243E-008  0.1140764E+04  0.7818608E-02  0.9166347E-01
         -2   -1    0    0    0  501 -0.00000000000E+00  0.00000000000E+00  0.38061588423E+03  0.38061588423E+03  0.00000000000E+00 0.  1.
          1   -1    0    0  501    0  0.00000000000E+00 -0.00000000000E+00 -0.85476051667E+03  0.85476051667E+03  0.00000000000E+00 0. -1.
        -24    2    1    2    0    0 -0.77775525009E+02  0.36669245286E+02  0.11538128408E+03  0.16175662359E+03  0.73883006967E+02 0.  0.
        254    2    1    2    0    0  0.77775525009E+02 -0.36669245286E+02 -0.58952591652E+03  0.10736197773E+04  0.89315449624E+03 0.  0.
         23    2    4    4    0    0 -0.29366264302E+03  0.26119939660E+03 -0.18886982619E+03  0.44635271647E+03  0.95373285427E+02 0.  0.
         23    2    4    4    0    0  0.37143816803E+03 -0.29786864188E+03 -0.40065609033E+03  0.62726706084E+03  0.79035576882E+02 0.  0.
          1    1    3    3  502    0 -0.31824135029E+02 -0.15498636786E+02  0.12400718361E+02  0.37506814427E+02  0.00000000000E+00 0. -1.
         -2    1    3    3    0  502 -0.45951389979E+02  0.52167882072E+02  0.10298056572E+03  0.12424980916E+03  0.00000000000E+00 0.  1.
         13    1    5    5    0    0 -0.24048341252E+03  0.25030372775E+03 -0.14348449223E+03  0.37559556352E+03  0.00000000000E+00 0. -1.
        -13    1    5    5    0    0 -0.53179230499E+02  0.10895668843E+02 -0.45385333958E+02  0.70757152956E+02  0.00000000000E+00 0.  1.
          3    1    6    6  503    0  0.26744571732E+03 -0.18584683857E+03 -0.23332526075E+03  0.40063316940E+03  0.00000000000E+00 0. -1.
         -3    1    6    6    0  503  0.10399245071E+03 -0.11202180332E+03 -0.16733082958E+03  0.22663389144E+03  0.00000000000E+00 0.  1.
<mgrwt>
<rscale>  0 0.11407637E+04</rscale>
<asrwt>0</asrwt>
<pdfrwt beam="1">  1        1 0.13150162E+00 0.11407637E+04</pdfrwt>
<pdfrwt beam="2">  1       -2 0.58556290E-01 0.11407637E+04</pdfrwt>
<totfact> 0.47125502E+01</totfact>
</mgrwt>
</event>
<event>
12    5  0.5029243E-008  0.1850387E+04  0.7818608E-02  0.8679954E-01
          1   -1    0    0  501    0  0.00000000000E+00  0.00000000000E+00  0.85825576232E+03  0.85825576232E+03  0.00000000000E+00 0. -1.
         -2   -1    0    0    0  501 -0.00000000000E+00 -0.00000000000E+00 -0.99735190512E+03  0.99735190512E+03  0.00000000000E+00 0.  1.
        -24    2    1    2    0    0 -0.63654670122E+02  0.85931787453E+02  0.63841213600E+03  0.65224856258E+03  0.80137025600E+02 0.  0.
        254    2    1    2    0    0  0.63654670122E+02 -0.85931787453E+02 -0.77750827880E+03  0.12033591049E+04  0.91220492354E+03 0.  0.
         23    2    4    4    0    0  0.39568648011E+03 -0.23105575438E+03 -0.66604996903E+03  0.81349111496E+03  0.90502379560E+02 0.  0.
         23    2    4    4    0    0 -0.33203180998E+03  0.14512396692E+03 -0.11145830978E+03  0.38986798991E+03  0.90928577017E+02 0.  0.
          1    1    3    3  502    0 -0.36486565044E+02  0.36840378179E+02  0.50310138380E+03  0.50576623580E+03  0.00000000000E+00 0. -1.
         -2    1    3    3    0  502 -0.27168105078E+02  0.49091409274E+02  0.13531075220E+03  0.14648232678E+03  0.00000000000E+00 0.  1.
         13    1    5    5    0    0  0.11002908961E+03 -0.94558765976E+02 -0.15484123793E+03  0.21218758151E+03  0.00000000000E+00 0.  1.
        -13    1    5    5    0    0  0.28565739050E+03 -0.13649698840E+03 -0.51120873110E+03  0.60130353345E+03  0.00000000000E+00 0. -1.
          3    1    6    6  503    0 -0.62665843540E+02  0.29590399604E+02  0.14583312336E+02  0.70818590031E+02  0.00000000000E+00 0. -1.
         -3    1    6    6    0  503 -0.26936596644E+03  0.11553356732E+03 -0.12604162211E+03  0.31904939987E+03  0.00000000000E+00 0.  1.
<mgrwt>
<rscale>  0 0.18503870E+04</rscale>
<asrwt>0</asrwt>
<pdfrwt beam="1">  1        1 0.13203935E+00 0.18503870E+04</pdfrwt>
<pdfrwt beam="2">  1       -2 0.15343875E+00 0.18503870E+04</pdfrwt>
<totfact> 0.45755204E+00</totfact>
</mgrwt>
</event>
<event>
12    5  0.5029243E-008  0.2512980E+04  0.7818608E-02  0.8398376E-01
          1   -1    0    0  501    0  0.00000000000E+00  0.00000000000E+00  0.79900493316E+03  0.79900493316E+03  0.00000000000E+00 0. -1.
         -2   -1    0    0    0  501 -0.00000000000E+00 -0.00000000000E+00 -0.19759163515E+04  0.19759163515E+04  0.00000000000E+00 0.  1.
        -24    2    1    2    0    0 -0.74106650097E+02 -0.94680746014E+03  0.73039468111E+02  0.95574462815E+03  0.78593054155E+02 0.  0.
        254    2    1    2    0    0  0.74106650097E+02  0.94680746014E+03 -0.12499508864E+04  0.18191766565E+04  0.91928794554E+03 0.  0.
         23    2    4    4    0    0 -0.24557473311E+03  0.45196382199E+03 -0.11316233738E+03  0.53603058977E+03  0.99723781689E+02 0.  0.
         23    2    4    4    0    0  0.31968138321E+03  0.49484363815E+03 -0.11367885490E+04  0.12831460667E+04  0.84316132987E+02 0.  0.
          1    1    3    3  502    0 -0.46495817874E+02 -0.80101542169E+03  0.85141331428E+02  0.80686839892E+03  0.00000000000E+00 0. -1.
         -2    1    3    3    0  502 -0.27610832222E+02 -0.14579203845E+03 -0.12101863317E+02  0.14887622922E+03  0.00000000000E+00 0.  1.
         13    1    5    5    0    0 -0.23738249744E+03  0.43921235907E+03 -0.12737835095E+03  0.51525060965E+03  0.00000000000E+00 0.  1.
        -13    1    5    5    0    0 -0.81922356726E+01  0.12751462922E+02  0.14216013573E+02  0.20779980122E+02  0.00000000000E+00 0. -1.
          3    1    6    6  503    0  0.99675158793E+02  0.96929843673E+02 -0.30502192420E+03  0.33521471644E+03  0.00000000000E+00 0. -1.
         -3    1    6    6    0  503  0.22000622442E+03  0.39791379448E+03 -0.83176662483E+03  0.94793135026E+03  0.00000000000E+00 0.  1.
<mgrwt>
<rscale>  0 0.25129798E+04</rscale>
<asrwt>0</asrwt>
<pdfrwt beam="1">  1        1 0.12292384E+00 0.25129798E+04</pdfrwt>
<pdfrwt beam="2">  1       -2 0.30398713E+00 0.25129798E+04</pdfrwt>
<totfact> 0.51797828E-01</totfact>
</mgrwt>
</event>
<event>
12    5  0.5029243E-008  0.2334804E+04  0.7818608E-02  0.8464323E-01
          1   -1    0    0  501    0  0.00000000000E+00  0.00000000000E+00  0.21516049620E+04  0.21516049620E+04  0.00000000000E+00 0. -1.
         -2   -1    0    0    0  501 -0.00000000000E+00 -0.00000000000E+00 -0.63340035525E+03  0.63340035525E+03  0.00000000000E+00 0.  1.
        -24    2    1    2    0    0 -0.56925952127E+03  0.79965653076E+03  0.46350745417E+03  0.10884439190E+04  0.79774901429E+02 0.  0.
        254    2    1    2    0    0  0.56925952127E+03 -0.79965653076E+03  0.10546971525E+04  0.16965613983E+04  0.89578319071E+03 0.  0.
         23    2    4    4    0    0  0.38862038151E+03 -0.92377504513E+01  0.70214240182E+03  0.80784381884E+03  0.92176712056E+02 0.  0.
         23    2    4    4    0    0  0.18063913976E+03 -0.79041878031E+03  0.35255475073E+03  0.88871757943E+03  0.90176142330E+02 0.  0.
          1    1    3    3  502    0 -0.34105748614E+03  0.52486612957E+03  0.26427061184E+03  0.67944360995E+03  0.00000000000E+00 0. -1.
         -2    1    3    3    0  502 -0.22820203513E+03  0.27479040119E+03  0.19923684234E+03  0.40900030901E+03  0.00000000000E+00 0.  1.
         13    1    5    5    0    0  0.28131280209E+01  0.10087859989E+02  0.70511830315E+01  0.12625283781E+02  0.00000000000E+00 0.  1.
        -13    1    5    5    0    0  0.38580725349E+03 -0.19325610440E+02  0.69509121878E+03  0.79521853506E+03  0.00000000000E+00 0. -1.
          2    1    6    6  503    0  0.16911746971E+03 -0.64620872560E+03  0.31886746894E+03  0.74017761271E+03  0.00000000000E+00 0. -1.
         -2    1    6    6    0  503  0.11521670047E+02 -0.14421005471E+03  0.33687281795E+02  0.14853996672E+03  0.00000000000E+00 0.  1.
<mgrwt>
<rscale>  0 0.23348039E+04</rscale>
<asrwt>0</asrwt>
<pdfrwt beam="1">  1        1 0.33101615E+00 0.23348039E+04</pdfrwt>
<pdfrwt beam="2">  1       -2 0.97446209E-01 0.23348039E+04</pdfrwt>
<totfact> 0.16341047E+00</totfact>
</mgrwt>
</event>
<event>
12    5  0.5029243E-008  0.1849198E+04  0.7818608E-02  0.8680565E-01
          1   -1    0    0  501    0  0.00000000000E+00  0.00000000000E+00  0.65986245332E+03  0.65986245332E+03  0.00000000000E+00 0. -1.
         -2   -1    0    0    0  501 -0.00000000000E+00 -0.00000000000E+00 -0.12955473575E+04  0.12955473575E+04  0.00000000000E+00 0.  1.
        -24    2    1    2    0    0 -0.12385778057E+03 -0.68284535460E+03 -0.23034279172E+03  0.73569625900E+03  0.81071916850E+02 0.  0.
        254    2    1    2    0    0  0.12385778057E+03  0.68284535460E+03 -0.40534211251E+03  0.12197135519E+04  0.91748590851E+03 0.  0.
         23    2    4    4    0    0  0.32949787065E+03  0.73226484158E+03 -0.68137489784E+02  0.81183493689E+03  0.98247657849E+02 0.  0.
         23    2    4    4    0    0 -0.20564009008E+03 -0.49419486980E+02 -0.33720462273E+03  0.40787861497E+03  0.89038613100E+02 0.  0.
          1    1    3    3  502    0 -0.35185186935E+01 -0.10183660110E+03 -0.60590570327E+02  0.11855079295E+03  0.00000000000E+00 0. -1.
         -2    1    3    3    0  502 -0.12033926188E+03 -0.58100875350E+03 -0.16975222139E+03  0.61714546605E+03  0.00000000000E+00 0.  1.
         13    1    5    5    0    0  0.33264538734E+03  0.69442035976E+03 -0.56212114516E+02  0.77203134107E+03  0.00000000000E+00 0. -1.
        -13    1    5    5    0    0 -0.31475166959E+01  0.37844481820E+02 -0.11925375268E+02  0.39803595828E+02  0.00000000000E+00 0.  1.
          4    1    6    6  503    0 -0.20336236011E+03 -0.33105472408E+02 -0.27556519117E+03  0.34407614913E+03  0.00000000000E+00 0. -1.
         -4    1    6    6    0  503 -0.22777299652E+01 -0.16314014572E+02 -0.61639431556E+02  0.63802465844E+02  0.00000000000E+00 0.  1.
<mgrwt>
<rscale>  0 0.18491977E+04</rscale>
<asrwt>0</asrwt>
<pdfrwt beam="1">  1        1 0.10151730E+00 0.18491977E+04</pdfrwt>
<pdfrwt beam="2">  1       -2 0.19931498E+00 0.18491977E+04</pdfrwt>
<totfact> 0.32907721E+00</totfact>
</mgrwt>
</event>
<event>
12    5  0.5029243E-008  0.2704954E+04  0.7818608E-02  0.8333399E-01
         -2   -1    0    0    0  501 -0.00000000000E+00  0.00000000000E+00  0.16336868062E+04  0.16336868062E+04  0.00000000000E+00 0.  1.
          1   -1    0    0  501    0  0.00000000000E+00 -0.00000000000E+00 -0.11196722756E+04  0.11196722756E+04  0.00000000000E+00 0. -1.
        -24    2    1    2    0    0  0.39807167323E+02  0.76650286414E+03 -0.71538290951E+03  0.10521170666E+04  0.77886862008E+02 0.  0.
        254    2    1    2    0    0 -0.39807167323E+02 -0.76650286414E+03  0.12293974402E+04  0.17012420152E+04  0.89089566010E+03 0.  0.
         23    2    4    4    0    0  0.22544992350E+03 -0.82318965656E+03  0.10759030536E+04  0.13763435696E+04  0.91023965142E+02 0.  0.
         23    2    4    4    0    0 -0.26525709082E+03  0.56686792416E+02  0.15349438655E+03  0.32489844559E+03  0.91781025157E+02 0.  0.
          1    1    3    3  502    0  0.58093302815E+02  0.68560843193E+03 -0.62661210004E+03  0.93063229993E+03  0.00000000000E+00 0. -1.
         -2    1    3    3    0  502 -0.18286135492E+02  0.80894432214E+02 -0.88770809478E+02  0.12148476666E+03  0.00000000000E+00 0.  1.
         13    1    5    5    0    0  0.11519467997E+03 -0.56885471158E+03  0.70111976959E+03  0.91018373337E+03  0.00000000000E+00 0.  1.
        -13    1    5    5    0    0  0.11025524353E+03 -0.25433494497E+03  0.37478328403E+03  0.46615983626E+03  0.00000000000E+00 0. -1.
          1    1    6    6  503    0 -0.19231620000E+03 -0.26307542748E+01  0.10389397644E+03  0.21860100638E+03  0.00000000000E+00 0. -1.
         -1    1    6    6    0  503 -0.72940890825E+02  0.59317546691E+02  0.49600410110E+02  0.10629743921E+03  0.00000000000E+00 0.  1.
<mgrwt>
<rscale>  0 0.27049538E+04</rscale>
<asrwt>0</asrwt>
<pdfrwt beam="1">  1        1 0.17225727E+00 0.27049538E+04</pdfrwt>
<pdfrwt beam="2">  1       -2 0.25133643E+00 0.27049538E+04</pdfrwt>
<totfact> 0.59174039E-01</totfact>
</mgrwt>
</event>
<event>
12    5  0.5029243E-008  0.1278385E+04  0.7818608E-02  0.9046884E-01
         -2   -1    0    0    0  501 -0.00000000000E+00  0.00000000000E+00  0.23572589265E+03  0.23572589265E+03  0.00000000000E+00 0.  1.
          1   -1    0    0  501    0  0.00000000000E+00 -0.00000000000E+00 -0.17332292393E+04  0.17332292393E+04  0.00000000000E+00 0. -1.
        -24    2    1    2    0    0  0.24902091060E+03 -0.18542417779E+03 -0.31840190059E+03  0.45365337434E+03  0.89599520783E+02 0.  0.
        254    2    1    2    0    0 -0.24902091060E+03  0.18542417779E+03 -0.11791014460E+04  0.15153017576E+04  0.89970309376E+03 0.  0.
         23    2    4    4    0    0  0.15583908406E+03 -0.21903842527E+03 -0.72613165645E+03  0.77975287468E+03  0.92107063814E+02 0.  0.
         23    2    4    4    0    0 -0.40485999465E+03  0.40446260306E+03 -0.45296978958E+03  0.73554888292E+03  0.91372404702E+02 0.  0.
          3    1    3    3  502    0 -0.62424363065E+00  0.67459440565E+01 -0.14107019355E+02  0.15649454828E+02  0.00000000000E+00 0. -1.
         -4    1    3    3    0  502  0.24964515423E+03 -0.19217012185E+03 -0.30429488124E+03  0.43800391951E+03  0.00000000000E+00 0.  1.
         13    1    5    5    0    0 -0.21413525578E+01 -0.37620185972E+02 -0.16466406683E+03  0.16892045077E+03  0.00000000000E+00 0. -1.
        -13    1    5    5    0    0  0.15798043661E+03 -0.18141823930E+03 -0.56146758962E+03  0.61083242391E+03  0.00000000000E+00 0.  1.
          4    1    6    6  503    0 -0.38615140148E+03  0.35149184719E+03 -0.39427861374E+03  0.65430501202E+03  0.00000000000E+00 0.  1.
         -4    1    6    6    0  503 -0.18708593173E+02  0.52970755869E+02 -0.58691175843E+02  0.81243870893E+02  0.00000000000E+00 0. -1.
<mgrwt>
<rscale>  0 0.12783849E+04</rscale>
<asrwt>0</asrwt>
<pdfrwt beam="1">  1        1 0.26665064E+00 0.12783849E+04</pdfrwt>
<pdfrwt beam="2">  1       -2 0.36265523E-01 0.12783849E+04</pdfrwt>
<totfact> 0.27967153E+01</totfact>
</mgrwt>
</event>
<event>
12    5  0.5029243E-008  0.1761528E+04  0.7818608E-02  0.8727031E-01
          1   -1    0    0  501    0  0.00000000000E+00  0.00000000000E+00  0.16835136162E+04  0.16835136162E+04  0.00000000000E+00 0. -1.
         -2   -1    0    0    0  501 -0.00000000000E+00 -0.00000000000E+00 -0.46078913951E+03  0.46078913951E+03  0.00000000000E+00 0.  1.
        -24    2    1    2    0    0 -0.41163752776E+03  0.45588288725E+03  0.69670529958E+03  0.93229852998E+03  0.80669779872E+02 0.  0.
        254    2    1    2    0    0  0.41163752776E+03 -0.45588288725E+03  0.52601917711E+03  0.12120042257E+04  0.90276431440E+03 0.  0.
         23    2    4    4    0    0 -0.10869665302E+03 -0.15746323165E+03 -0.18074081745E+03  0.28063865190E+03  0.97371341520E+02 0.  0.
         23    2    4    4    0    0  0.52033418077E+03 -0.29841965560E+03  0.70675999455E+03  0.93136557383E+03  0.90167575594E+02 0.  0.
          3    1    3    3  502    0 -0.23332229764E+03  0.28626624504E+03  0.46960048751E+03  0.59742135507E+03  0.00000000000E+00 0. -1.
         -4    1    3    3    0  502 -0.17831523012E+03  0.16961664221E+03  0.22710481207E+03  0.33487717491E+03  0.00000000000E+00 0.  1.
         13    1    5    5    0    0  0.57599213669E+01 -0.60062853185E+02 -0.77880416113E+02  0.98519451078E+02  0.00000000000E+00 0.  1.
        -13    1    5    5    0    0 -0.11445657438E+03 -0.97400378467E+02 -0.10286040133E+03  0.18211920082E+03  0.00000000000E+00 0. -1.
          1    1    6    6  503    0  0.52270282799E+03 -0.29814301296E+03  0.70756700395E+03  0.92884797876E+03  0.00000000000E+00 0. -1.
         -1    1    6    6    0  503 -0.23686472159E+01 -0.27664263943E+00 -0.80700939725E+00  0.25175950728E+01  0.00000000000E+00 0.  1.
<mgrwt>
<rscale>  0 0.17615275E+04</rscale>
<asrwt>0</asrwt>
<pdfrwt beam="1">  1        1 0.25900209E+00 0.17615275E+04</pdfrwt>
<pdfrwt beam="2">  1       -2 0.70890638E-01 0.17615275E+04</pdfrwt>
<totfact> 0.73490986E+00</totfact>
</mgrwt>
</event>
<event>
12    5  0.5029243E-008  0.1462354E+04  0.7818608E-02  0.8909880E-01
          1   -1    0    0  501    0  0.00000000000E+00  0.00000000000E+00  0.43171026573E+03  0.43171026573E+03  0.00000000000E+00 0. -1.
         -4   -1    0    0    0  501 -0.00000000000E+00 -0.00000000000E+00 -0.12383766672E+04  0.12383766672E+04  0.00000000000E+00 0.  1.
        -24    2    1    2    0    0 -0.15766226464E+03 -0.27080852451E+03  0.11132567634E+03  0.34202341028E+03  0.79949736238E+02 0.  0.
        254    2    1    2    0    0  0.15766226464E+03  0.27080852451E+03 -0.91799207778E+03  0.13280635226E+04  0.90711003667E+03 0.  0.
         23    2    4    4    0    0 -0.19447878046E+03  0.20128061799E+03 -0.90950691667E+03  0.95578876587E+03  0.89406097513E+02 0.  0.
         23    2    4    4    0    0  0.35214104511E+03  0.69527906523E+02 -0.84851611090E+01  0.37227475675E+03  0.98382168722E+02 0.  0.
          1    1    3    3  502    0 -0.13202010586E+03 -0.26244997693E+03  0.11354284485E+03  0.31496234118E+03  0.00000000000E+00 0. -1.
         -2    1    3    3    0  502 -0.25642158781E+02 -0.83585475803E+01 -0.22171685115E+01  0.27061069100E+02  0.00000000000E+00 0.  1.
         13    1    5    5    0    0 -0.61309594867E+02  0.12300244237E+02 -0.20400802205E+03  0.21337627678E+03  0.00000000000E+00 0. -1.
        -13    1    5    5    0    0 -0.13316918560E+03  0.18898037375E+03 -0.70549889462E+03  0.74241248910E+03  0.00000000000E+00 0.  1.
          4    1    6    6  503    0  0.17212933315E+03 -0.15670089059E+02  0.18535652241E+01  0.17285107673E+03  0.00000000000E+00 0. -1.
         -4    1    6    6    0  503  0.18001171196E+03  0.85197995583E+02 -0.10338726333E+02  0.19942368002E+03  0.00000000000E+00 0.  1.
<mgrwt>
<rscale>  0 0.14623542E+04</rscale>
<asrwt>0</asrwt>
<pdfrwt beam="1">  1        1 0.66416964E-01 0.14623542E+04</pdfrwt>
<pdfrwt beam="2">  1       -4 0.19051949E+00 0.14623542E+04</pdfrwt>
<totfact> 0.38189340E+00</totfact>
</mgrwt>
</event>
<event>
12    5  0.5029243E-008  0.2749638E+04  0.7818608E-02  0.8319077E-01
         -2   -1    0    0    0  501 -0.00000000000E+00  0.00000000000E+00  0.14244385034E+04  0.14244385034E+04  0.00000000000E+00 0.  1.
          1   -1    0    0  501    0  0.00000000000E+00 -0.00000000000E+00 -0.13269277987E+04  0.13269277987E+04  0.00000000000E+00 0. -1.
        -24    2    1    2    0    0 -0.87424882018E+03 -0.83001160662E+03  0.13938408890E+03  0.12160664574E+04  0.78482085768E+02 0.  0.
        254    2    1    2    0    0  0.87424882018E+03  0.83001160662E+03 -0.41873384142E+02  0.15352998447E+04  0.94982207081E+03 0.  0.
         23    2    4    4    0    0  0.37187130709E+03  0.17720188055E+03  0.41247613389E+03  0.59009729154E+03  0.91594087938E+02 0.  0.
         23    2    4    4    0    0  0.50237751309E+03  0.65280972607E+03 -0.45434951803E+03  0.94520255318E+03  0.91818723076E+02 0.  0.
          3    1    3    3  502    0 -0.63824960482E+03 -0.57370922771E+03  0.72087532845E+02  0.86122090570E+03  0.00000000000E+00 0. -1.
         -4    1    3    3    0  502 -0.23599921536E+03 -0.25630237891E+03  0.67296556059E+02  0.35484555167E+03  0.00000000000E+00 0.  1.
         13    1    5    5    0    0  0.35391660903E+03  0.14612073989E+03  0.39518938118E+03  0.55025710697E+03  0.00000000000E+00 0. -1.
        -13    1    5    5    0    0  0.17954698062E+02  0.31081140662E+02  0.17286752708E+02  0.39840184569E+02  0.00000000000E+00 0.  1.
          1    1    6    6  503    0  0.42464802801E+03  0.56005478996E+03 -0.42252534098E+03  0.82007010628E+03  0.00000000000E+00 0. -1.
         -1    1    6    6    0  503  0.77729485079E+02  0.92754936107E+02 -0.31824177056E+02  0.12513244690E+03  0.00000000000E+00 0.  1.
<mgrwt>
<rscale>  0 0.27496378E+04</rscale>
<asrwt>0</asrwt>
<pdfrwt beam="1">  1        1 0.20414274E+00 0.27496378E+04</pdfrwt>
<pdfrwt beam="2">  1       -2 0.21914439E+00 0.27496378E+04</pdfrwt>
<totfact> 0.66104452E-01</totfact>
</mgrwt>
</event>
<event>
12    5  0.5029243E-008  0.1891795E+04  0.7818608E-02  0.8658951E-01
          1   -1    0    0  501    0  0.00000000000E+00  0.00000000000E+00  0.34825811650E+04  0.34825811650E+04  0.00000000000E+00 0. -1.
         -2   -1    0    0    0  501 -0.00000000000E+00 -0.00000000000E+00 -0.25691344567E+03  0.25691344567E+03  0.00000000000E+00 0.  1.
        -24    2    1    2    0    0  0.58744570797E+02  0.51421395750E+03  0.19229425363E+04  0.19935006423E+04  0.92032029386E+02 0.  0.
        254    2    1    2    0    0 -0.58744570797E+02 -0.51421395750E+03  0.13027251830E+04  0.17459939683E+04  0.10409299286E+04 0.  0.
         23    2    4    4    0    0 -0.50258367216E+03 -0.18428795921E+03  0.36562017926E+03  0.65429021362E+03  0.88685786467E+02 0.  0.
         23    2    4    4    0    0  0.44383910136E+03 -0.32992599829E+03  0.93710500378E+03  0.10917037547E+04  0.88357159894E+02 0.  0.
          3    1    3    3  502    0  0.80508697150E+02  0.37981573281E+03  0.13606056119E+04  0.14149167015E+04  0.00000000000E+00 0. -1.
         -4    1    3    3    0  502 -0.21764126353E+02  0.13439822468E+03  0.56233692441E+03  0.57858394080E+03  0.00000000000E+00 0.  1.
         13    1    5    5    0    0 -0.14301976882E+03 -0.10953224172E+02  0.96108913702E+02  0.17266021744E+03  0.00000000000E+00 0. -1.
        -13    1    5    5    0    0 -0.35956390334E+03 -0.17333473504E+03  0.26951126556E+03  0.48162999618E+03  0.00000000000E+00 0.  1.
          3    1    6    6  503    0  0.17958555114E+03 -0.18805505135E+03  0.42558985160E+03  0.49874080874E+03  0.00000000000E+00 0. -1.
         -3    1    6    6    0  503  0.26425355022E+03 -0.14187094693E+03  0.51151515219E+03  0.59296294598E+03  0.00000000000E+00 0.  1.
<mgrwt>
<rscale>  0 0.18917948E+04</rscale>
<asrwt>0</asrwt>
<pdfrwt beam="1">  1        1 0.53578168E+00 0.18917948E+04</pdfrwt>
<pdfrwt beam="2">  1       -2 0.39525148E-01 0.18917948E+04</pdfrwt>
<totfact> 0.12912171E+00</totfact>
</mgrwt>
</event>
<event>
12    5  0.5029243E-008  0.1971309E+04  0.7818608E-02  0.8620153E-01
          3   -1    0    0  501    0  0.00000000000E+00  0.00000000000E+00  0.45161619444E+03  0.45161619444E+03  0.00000000000E+00 0. -1.
         -4   -1    0    0    0  501 -0.00000000000E+00 -0.00000000000E+00 -0.21511957591E+04  0.21511957591E+04  0.00000000000E+00 0.  1.
        -24    2    1    2    0    0 -0.31128817688E+03  0.35646213163E+02  0.25055669578E+03  0.40915616435E+03  0.80368696938E+02 0.  0.
        254    2    1    2    0    0  0.31128817688E+03 -0.35646213163E+02 -0.19501362604E+04  0.21936557892E+04  0.95442302234E+03 0.  0.
         23    2    4    4    0    0  0.96251145385E+02 -0.44992390004E+02 -0.19550835646E+04  0.19602196272E+04  0.93918283955E+02 0.  0.
         23    2    4    4    0    0  0.21503703149E+03  0.93461768408E+01  0.49473041606E+01  0.23343616201E+03  0.90220230436E+02 0.  0.
          1    1    3    3  502    0 -0.62811663447E+02 -0.36096897270E+01  0.93160146992E+02  0.11241506977E+03  0.00000000000E+00 0. -1.
         -2    1    3    3    0  502 -0.24847651343E+03  0.39255902890E+02  0.15739654879E+03  0.29674109457E+03  0.00000000000E+00 0.  1.
         13    1    5    5    0    0 -0.12425718606E+02 -0.54445608513E+00 -0.57968671166E+03  0.57982012607E+03  0.00000000000E+00 0. -1.
        -13    1    5    5    0    0  0.10867686399E+03 -0.44447933919E+02 -0.13753968529E+04  0.13803995011E+04  0.00000000000E+00 0.  1.
          4    1    6    6  503    0  0.84791839509E+02 -0.36946644582E+02 -0.15251442375E+02  0.93740690672E+02  0.00000000000E+00 0. -1.
         -4    1    6    6    0  503  0.13024519198E+03  0.46292821423E+02  0.20198746535E+02  0.13969547134E+03  0.00000000000E+00 0.  1.
<mgrwt>
<rscale>  0 0.19713090E+04</rscale>
<asrwt>0</asrwt>
<pdfrwt beam="1">  1        3 0.69479414E-01 0.19713090E+04</pdfrwt>
<pdfrwt beam="2">  1       -4 0.33095320E+00 0.19713090E+04</pdfrwt>
<totfact> 0.83257028E-02</totfact>
</mgrwt>
</event>
<event>
12    5  0.5029243E-008  0.1567484E+04  0.7818608E-02  0.8840777E-01
          1   -1    0    0  501    0  0.00000000000E+00  0.00000000000E+00  0.25742094323E+04  0.25742094323E+04  0.00000000000E+00 0. -1.
         -2   -1    0    0    0  501 -0.00000000000E+00 -0.00000000000E+00 -0.23861744815E+03  0.23861744815E+03  0.00000000000E+00 0.  1.
        -24    2    1    2    0    0 -0.10529968037E+03 -0.39968328072E+03  0.13353021068E+04  0.14000837147E+04  0.79799399105E+02 0.  0.
        254    2    1    2    0    0  0.10529968037E+03  0.39968328072E+03  0.10002898773E+04  0.14127431658E+04  0.90798054282E+03 0.  0.
         23    2    4    4    0    0  0.13890209575E+03  0.16099143511E+03  0.11100514102E+04  0.11337816567E+04  0.89636361770E+02 0.  0.
         23    2    4    4    0    0 -0.33602415386E+02  0.23869184560E+03 -0.10976153289E+03  0.27896150906E+03  0.87572883692E+02 0.  0.
          3    1    3    3  502    0 -0.45907323677E+02 -0.23112198047E+03  0.87884163453E+03  0.90988321822E+03  0.00000000000E+00 0. -1.
         -4    1    3    3    0  502 -0.59392356691E+02 -0.16856130025E+03  0.45646047232E+03  0.49020049649E+03  0.00000000000E+00 0.  1.
         13    1    5    5    0    0  0.28190938745E+02  0.16007325462E+02  0.61910590943E+02  0.69884796392E+02  0.00000000000E+00 0.  1.
        -13    1    5    5    0    0  0.11071115701E+03  0.14498410965E+03  0.10481408193E+04  0.10638968603E+04  0.00000000000E+00 0. -1.
          1    1    6    6  503    0  0.22772160482E+01  0.15345106429E+03 -0.29012302741E+02  0.15618619835E+03  0.00000000000E+00 0. -1.
         -1    1    6    6    0  503 -0.35879631434E+02  0.85240781315E+02 -0.80749230149E+02  0.12277531071E+03  0.00000000000E+00 0.  1.
<mgrwt>
<rscale>  0 0.15674837E+04</rscale>
<asrwt>0</asrwt>
<pdfrwt beam="1">  1        1 0.39603220E+00 0.15674837E+04</pdfrwt>
<pdfrwt beam="2">  1       -2 0.36710378E-01 0.15674837E+04</pdfrwt>
<totfact> 0.71200800E+00</totfact>
</mgrwt>
</event>
<event>
12    5  0.5029243E-008  0.1674429E+04  0.7818608E-02  0.8776084E-01
          1   -1    0    0  501    0  0.00000000000E+00  0.00000000000E+00  0.70269156961E+03  0.70269156961E+03  0.00000000000E+00 0. -1.
         -2   -1    0    0    0  501 -0.00000000000E+00 -0.00000000000E+00 -0.99749011565E+03  0.99749011565E+03  0.00000000000E+00 0.  1.
        -24    2    1    2    0    0 -0.17482118677E+03  0.11914488990E+03 -0.67374132192E+03  0.71043702480E+03  0.77688127861E+02 0.  0.
        254    2    1    2    0    0  0.17482118677E+03 -0.11914488990E+03  0.37894277587E+03  0.98974466047E+03  0.88951611194E+03 0.  0.
         23    2    4    4    0    0 -0.28315805916E+03 -0.14928335514E+03 -0.71048866166E+02  0.34047906123E+03  0.91728093613E+02 0.  0.
         23    2    4    4    0    0  0.45797924593E+03  0.30138465244E+02  0.44999164203E+03  0.64926559924E+03  0.91651642992E+02 0.  0.
          3    1    3    3  502    0 -0.44975180740E+02  0.73701732104E+02 -0.22142181240E+03  0.23766011699E+03  0.00000000000E+00 0. -1.
         -4    1    3    3    0  502 -0.12984600603E+03  0.45443157795E+02 -0.45231950951E+03  0.47277690781E+03  0.00000000000E+00 0.  1.
         13    1    5    5    0    0 -0.28893573283E+03 -0.15039511119E+03 -0.73791405313E+02  0.33398760257E+03  0.00000000000E+00 0. -1.
        -13    1    5    5    0    0  0.57776736629E+01  0.11117560499E+01  0.27425391468E+01  0.64914586528E+01  0.00000000000E+00 0.  1.
          1    1    6    6  503    0  0.10153165731E+03  0.18157121262E+02  0.15625463213E+03  0.18722678375E+03  0.00000000000E+00 0. -1.
         -1    1    6    6    0  503  0.35644758862E+03  0.11981343982E+02  0.29373700990E+03  0.46203881549E+03  0.00000000000E+00 0.  1.
<mgrwt>
<rscale>  0 0.16744287E+04</rscale>
<asrwt>0</asrwt>
<pdfrwt beam="1">  1        1 0.10810640E+00 0.16744287E+04</pdfrwt>
<pdfrwt beam="2">  1       -2 0.15346002E+00 0.16744287E+04</pdfrwt>
<totfact> 0.63737198E+00</totfact>
</mgrwt>
</event>
<event>
12    5  0.5029243E-008  0.3199982E+04  0.7818608E-02  0.8188822E-01
         -2   -1    0    0    0  501 -0.00000000000E+00  0.00000000000E+00  0.10165497098E+04  0.10165497098E+04  0.00000000000E+00 0.  1.
          1   -1    0    0  501    0  0.00000000000E+00 -0.00000000000E+00 -0.25182940432E+04  0.25182940432E+04  0.00000000000E+00 0. -1.
        -24    2    1    2    0    0  0.94138028944E+03  0.76363822033E+03  0.23422590018E+03  0.12371731048E+04  0.79970857694E+02 0.  0.
        254    2    1    2    0    0 -0.94138028944E+03 -0.76363822033E+03 -0.17359702336E+04  0.22976706482E+04  0.89238869034E+03 0.  0.
         23    2    4    4    0    0 -0.10613863827E+04 -0.45860323013E+03 -0.14189136214E+04  0.18325990900E+04  0.90805196385E+02 0.  0.
         23    2    4    4    0    0  0.12000609322E+03 -0.30503499021E+03 -0.31705661219E+03  0.46507155817E+03  0.91207736666E+02 0.  0.
          3    1    3    3  502    0  0.93550211789E+03  0.75688797117E+03  0.22478167896E+03  0.12241611073E+04  0.00000000000E+00 0. -1.
         -4    1    3    3    0  502  0.58781715480E+01  0.67502491632E+01  0.94442212196E+01  0.13011997501E+02  0.00000000000E+00 0.  1.
         13    1    5    5    0    0 -0.59596548929E+03 -0.25443422837E+03 -0.86577506289E+03  0.10814241076E+04  0.00000000000E+00 0. -1.
        -13    1    5    5    0    0 -0.46542089336E+03 -0.20416900176E+03 -0.55313855856E+03  0.75117498243E+03  0.00000000000E+00 0.  1.
          2    1    6    6  503    0  0.28629935208E+02 -0.18867591654E+03 -0.15707832103E+03  0.24716770341E+03  0.00000000000E+00 0. -1.
         -2    1    6    6    0  503  0.91376158009E+02 -0.11635907367E+03 -0.15997829116E+03  0.21790385476E+03  0.00000000000E+00 0.  1.
<mgrwt>
<rscale>  0 0.31999819E+04</rscale>
<asrwt>0</asrwt>
<pdfrwt beam="1">  1        1 0.38742985E+00 0.31999819E+04</pdfrwt>
<pdfrwt beam="2">  1       -2 0.15639226E+00 0.31999819E+04</pdfrwt>
<totfact> 0.25948025E-01</totfact>
</mgrwt>
</event>
<event>
12    5  0.5029243E-008  0.1744654E+04  0.7818608E-02  0.8736299E-01
          1   -1    0    0  501    0  0.00000000000E+00  0.00000000000E+00  0.74957125306E+03  0.74957125306E+03  0.00000000000E+00 0. -1.
         -2   -1    0    0    0  501 -0.00000000000E+00 -0.00000000000E+00 -0.10151861549E+04  0.10151861549E+04  0.00000000000E+00 0.  1.
        -24    2    1    2    0    0 -0.63223168277E+03  0.44132156895E+02 -0.19692877043E+03  0.66845777406E+03  0.79939396471E+02 0.  0.
        254    2    1    2    0    0  0.63223168277E+03 -0.44132156895E+02 -0.68686131422E+02  0.10962996339E+04  0.89190277200E+03 0.  0.
         23    2    4    4    0    0  0.74211574859E+03 -0.29135308782E+03 -0.10088988499E+03  0.80929391009E+03  0.95684157186E+02 0.  0.
         23    2    4    4    0    0 -0.10988406582E+03  0.24722093093E+03  0.32203753567E+02  0.28700572382E+03  0.90235841858E+02 0.  0.
          1    1    3    3  502    0 -0.57931095918E+03  0.47277909908E+02 -0.15693707189E+03  0.60205118780E+03  0.00000000000E+00 0. -1.
         -2    1    3    3    0  502 -0.52920723589E+02 -0.31457530134E+01 -0.39991698541E+02  0.66406586265E+02  0.00000000000E+00 0.  1.
         13    1    5    5    0    0  0.83011893341E+02 -0.11495559565E+02 -0.32845462517E+02  0.90010814537E+02  0.00000000000E+00 0.  1.
        -13    1    5    5    0    0  0.65910385525E+03 -0.27985752826E+03 -0.68044422472E+02  0.71928309556E+03  0.00000000000E+00 0. -1.
          1    1    6    6  503    0 -0.58173224449E+02  0.19639212572E+03  0.53001064096E+02  0.21157292804E+03  0.00000000000E+00 0. -1.
         -1    1    6    6    0  503 -0.51710841367E+02  0.50828805210E+02 -0.20797310528E+02  0.75432795780E+02  0.00000000000E+00 0.  1.
<mgrwt>
<rscale>  0 0.17446540E+04</rscale>
<asrwt>0</asrwt>
<pdfrwt beam="1">  1        1 0.11531865E+00 0.17446540E+04</pdfrwt>
<pdfrwt beam="2">  1       -2 0.15618249E+00 0.17446540E+04</pdfrwt>
<totfact> 0.54719326E+00</totfact>
</mgrwt>
</event>
<event>
12    5  0.5029243E-008  0.1406503E+04  0.7818608E-02  0.8949125E-01
         -4   -1    0    0    0  501 -0.00000000000E+00  0.00000000000E+00  0.12778071296E+03  0.12778071296E+03  0.00000000000E+00 0.  1.
          3   -1    0    0  501    0  0.00000000000E+00 -0.00000000000E+00 -0.38704008582E+04  0.38704008582E+04  0.00000000000E+00 0. -1.
        -24    2    1    2    0    0  0.41978675696E+03 -0.99644828478E+01 -0.92357768776E+03  0.10175356749E+04  0.77864576008E+02 0.  0.
        254    2    1    2    0    0 -0.41978675696E+03  0.99644828478E+01 -0.28190424575E+04  0.29806458963E+04  0.87231265578E+03 0.  0.
         23    2    4    4    0    0 -0.27253226287E+03 -0.10559709711E+03 -0.22921929788E+03  0.38244121907E+03  0.91078088996E+02 0.  0.
         23    2    4    4    0    0 -0.14725449408E+03  0.11556157996E+03 -0.25898231596E+04  0.25982046772E+04  0.91897669550E+02 0.  0.
          3    1    3    3  502    0  0.31087516271E+03 -0.41583203239E+02 -0.67508449541E+03  0.74438673116E+03  0.00000000000E+00 0. -1.
         -4    1    3    3    0  502  0.10891159425E+03  0.31618720391E+02 -0.24849319235E+03  0.27314894377E+03  0.00000000000E+00 0.  1.
         13    1    5    5    0    0 -0.23725869471E+03 -0.10541982537E+03 -0.16058915310E+03  0.30527676605E+03  0.00000000000E+00 0.  1.
        -13    1    5    5    0    0 -0.35273568164E+02 -0.17727173769E+00 -0.68630144788E+02  0.77164453020E+02  0.00000000000E+00 0. -1.
          1    1    6    6  503    0 -0.36172129292E+01  0.31520755136E+02 -0.19112012046E+03  0.19373575478E+03  0.00000000000E+00 0. -1.
         -1    1    6    6    0  503 -0.14363728115E+03  0.84040824822E+02 -0.23987030392E+04  0.24044689224E+04  0.00000000000E+00 0.  1.
<mgrwt>
<rscale>  0 0.14065029E+04</rscale>
<asrwt>0</asrwt>
<pdfrwt beam="1">  1        3 0.59544625E+00 0.14065029E+04</pdfrwt>
<pdfrwt beam="2">  1       -4 0.19658573E-01 0.14065029E+04</pdfrwt>
<totfact> 0.64883518E-02</totfact>
</mgrwt>
</event>
<event>
12    5  0.5029243E-008  0.2615314E+04  0.7818608E-02  0.8363018E-01
         -2   -1    0    0    0  501 -0.00000000000E+00  0.00000000000E+00  0.11866833717E+04  0.11866833717E+04  0.00000000000E+00 0.  1.
          1   -1    0    0  501    0  0.00000000000E+00 -0.00000000000E+00 -0.14409627060E+04  0.14409627060E+04  0.00000000000E+00 0. -1.
        -24    2    1    2    0    0  0.41435523283E+02 -0.41588975534E+03  0.96651718545E+03  0.10559974250E+04  0.79334107175E+02 0.  0.
        254    2    1    2    0    0 -0.41435523283E+02  0.41588975534E+03 -0.12207965197E+04  0.15716486528E+04  0.89724810058E+03 0.  0.
         23    2    4    4    0    0 -0.25512623521E+03  0.36697222875E+02 -0.32712040193E+01  0.27565999937E+03  0.97681382152E+02 0.  0.
         23    2    4    4    0    0  0.21369071192E+03  0.37919253246E+03 -0.12175253157E+04  0.12959886534E+04  0.88136248668E+02 0.  0.
          1    1    3    3  502    0 -0.10647079501E+02 -0.17181436806E+03  0.32776740630E+03  0.37022291934E+03  0.00000000000E+00 0. -1.
         -2    1    3    3    0  502  0.52082602784E+02 -0.24407538728E+03  0.63874977915E+03  0.68577450562E+03  0.00000000000E+00 0.  1.
         13    1    5    5    0    0 -0.16724382066E+03  0.41865535636E+02 -0.45082592488E+02  0.17820117499E+03  0.00000000000E+00 0. -1.
        -13    1    5    5    0    0 -0.87882414545E+02 -0.51683127609E+01  0.41811388469E+02  0.97458824376E+02  0.00000000000E+00 0.  1.
          3    1    6    6  503    0  0.22211437057E+02  0.64104983518E+02 -0.29081733648E+03  0.29862605387E+03  0.00000000000E+00 0. -1.
         -3    1    6    6    0  503  0.19147927487E+03  0.31508754894E+03 -0.92670797922E+03  0.99736259954E+03  0.00000000000E+00 0.  1.
<mgrwt>
<rscale>  0 0.26153137E+04</rscale>
<asrwt>0</asrwt>
<pdfrwt beam="1">  1        1 0.22168657E+00 0.26153137E+04</pdfrwt>
<pdfrwt beam="2">  1       -2 0.18256667E+00 0.26153137E+04</pdfrwt>
<totfact> 0.96689853E-01</totfact>
</mgrwt>
</event>
<event>
12    5  0.5029243E-008  0.2222790E+04  0.7818608E-02  0.8509002E-01
          1   -1    0    0  501    0  0.00000000000E+00  0.00000000000E+00  0.33742426370E+03  0.33742426370E+03  0.00000000000E+00 0. -1.
         -2   -1    0    0    0  501 -0.00000000000E+00 -0.00000000000E+00 -0.36606690965E+04  0.36606690965E+04  0.00000000000E+00 0.  1.
        -24    2    1    2    0    0  0.60742972747E+03  0.69829877658E+03 -0.11343853564E+04  0.14661875631E+04  0.79270285597E+02 0.  0.
        254    2    1    2    0    0 -0.60742972747E+03 -0.69829877658E+03 -0.21888594765E+04  0.25319057972E+04  0.87341233263E+03 0.  0.
         23    2    4    4    0    0  0.13288776496E+03 -0.45927481174E+03 -0.91476445500E+03  0.10362780135E+04  0.92117329395E+02 0.  0.
         23    2    4    4    0    0 -0.74031749243E+03 -0.23902396484E+03 -0.12740950215E+04  0.14956277837E+04  0.91552706881E+02 0.  0.
          3    1    3    3  502    0  0.46799374412E+03  0.58374566764E+03 -0.89972116871E+03  0.11701603866E+04  0.00000000000E+00 0. -1.
         -4    1    3    3    0  502  0.13943598335E+03  0.11455310894E+03 -0.23466418764E+03  0.29602717643E+03  0.00000000000E+00 0.  1.
         13    1    5    5    0    0  0.11333164506E+03 -0.41671252976E+03 -0.87097104570E+03  0.97215428645E+03  0.00000000000E+00 0. -1.
        -13    1    5    5    0    0  0.19556119898E+02 -0.42562281983E+02 -0.43793409307E+02  0.64123727058E+02  0.00000000000E+00 0.  1.
          2    1    6    6  503    0 -0.58004371398E+03 -0.15102576341E+03 -0.94191820015E+03  0.11164539342E+04  0.00000000000E+00 0. -1.
         -2    1    6    6    0  503 -0.16027377845E+03 -0.87998201423E+02 -0.33217682133E+03  0.37917384949E+03  0.00000000000E+00 0.  1.
<mgrwt>
<rscale>  0 0.22227898E+04</rscale>
<asrwt>0</asrwt>
<pdfrwt beam="1">  1        1 0.51911427E-01 0.22227898E+04</pdfrwt>
<pdfrwt beam="2">  1       -2 0.56317984E+00 0.22227898E+04</pdfrwt>
<totfact> 0.43279524E-02</totfact>
</mgrwt>
</event>
<event>
12    5  0.5029243E-008  0.2313020E+04  0.7818608E-02  0.8472805E-01
         -2   -1    0    0    0  501 -0.00000000000E+00  0.00000000000E+00  0.11872441227E+04  0.11872441227E+04  0.00000000000E+00 0.  1.
          1   -1    0    0  501    0  0.00000000000E+00 -0.00000000000E+00 -0.11265719143E+04  0.11265719143E+04  0.00000000000E+00 0. -1.
        -24    2    1    2    0    0  0.87934218323E+03  0.29357002812E+03 -0.28980639942E+03  0.97455235520E+03  0.79614742678E+02 0.  0.
        254    2    1    2    0    0 -0.87934218323E+03 -0.29357002812E+03  0.35047860774E+03  0.13392636818E+04  0.90075852385E+03 0.  0.
         23    2    4    4    0    0 -0.61841821775E+03 -0.35112220867E+03  0.62204537156E+03  0.94891771884E+03  0.88184439558E+02 0.  0.
         23    2    4    4    0    0 -0.26092396548E+03  0.57552180549E+02 -0.27156676382E+03  0.39034596296E+03  0.85017023821E+02 0.  0.
          1    1    3    3  502    0  0.56447309568E+03  0.16905056744E+03 -0.21904806852E+03  0.62864141322E+03  0.00000000000E+00 0. -1.
         -2    1    3    3    0  502  0.31486908756E+03  0.12451946068E+03 -0.70758330903E+02  0.34591094198E+03  0.00000000000E+00 0.  1.
         13    1    5    5    0    0 -0.45551458700E+03 -0.27554618544E+03  0.51007250964E+03  0.73728773513E+03  0.00000000000E+00 0. -1.
        -13    1    5    5    0    0 -0.16290363075E+03 -0.75576023226E+02  0.11197286192E+03  0.21162998371E+03  0.00000000000E+00 0.  1.
          2    1    6    6  503    0 -0.11409985264E+03  0.62689296392E+02 -0.15755380505E+03  0.20438181362E+03  0.00000000000E+00 0.  1.
         -2    1    6    6    0  503 -0.14682411284E+03 -0.51371158436E+01 -0.11401295877E+03  0.18596414934E+03  0.00000000000E+00 0. -1.
<mgrwt>
<rscale>  0 0.23130204E+04</rscale>
<asrwt>0</asrwt>
<pdfrwt beam="1">  1        1 0.17331876E+00 0.23130204E+04</pdfrwt>
<pdfrwt beam="2">  1       -2 0.18265294E+00 0.23130204E+04</pdfrwt>
<totfact> 0.16672471E+00</totfact>
</mgrwt>
</event>
<event>
12    5  0.5029243E-008  0.1550030E+04  0.7818608E-02  0.8851848E-01
          1   -1    0    0  501    0  0.00000000000E+00  0.00000000000E+00  0.29903130685E+04  0.29903130685E+04  0.00000000000E+00 0. -1.
         -2   -1    0    0    0  501 -0.00000000000E+00 -0.00000000000E+00 -0.20086471442E+03  0.20086471442E+03  0.00000000000E+00 0.  1.
        -24    2    1    2    0    0 -0.26843411638E+03  0.37537884777E+03  0.48220514356E+03  0.67196374826E+03  0.77764544052E+02 0.  0.
        254    2    1    2    0    0  0.26843411638E+03 -0.37537884777E+03  0.23072432105E+04  0.25192140346E+04  0.90005664584E+03 0.  0.
         23    2    4    4    0    0  0.50251023252E+03 -0.64899575875E+02  0.73778487425E+03  0.89960440145E+03  0.90736264509E+02 0.  0.
         23    2    4    4    0    0 -0.23407611614E+03 -0.31047927190E+03  0.15694583362E+04  0.16196096332E+04  0.93524800279E+02 0.  0.
          3    1    3    3  502    0 -0.17772943901E+03  0.27874584307E+03  0.38587169421E+03  0.50811806001E+03  0.00000000000E+00 0. -1.
         -4    1    3    3    0  502 -0.90704677363E+02  0.96633004705E+02  0.96333449353E+02  0.16384568825E+03  0.00000000000E+00 0.  1.
         13    1    5    5    0    0  0.32709139585E+03 -0.84356913336E+02  0.50234973406E+03  0.60535950094E+03  0.00000000000E+00 0. -1.
        -13    1    5    5    0    0  0.17541883667E+03  0.19457337461E+02  0.23543514019E+03  0.29424490051E+03  0.00000000000E+00 0.  1.
          4    1    6    6  503    0 -0.14682411460E+03 -0.12270510744E+03  0.82442948777E+03  0.84634380977E+03  0.00000000000E+00 0. -1.
         -4    1    6    6    0  503 -0.87252001539E+02 -0.18777416445E+03  0.74502884847E+03  0.77326582342E+03  0.00000000000E+00 0.  1.
<mgrwt>
<rscale>  0 0.15500302E+04</rscale>
<asrwt>0</asrwt>
<pdfrwt beam="1">  1        1 0.46004813E+00 0.15500302E+04</pdfrwt>
<pdfrwt beam="2">  1       -2 0.30902266E-01 0.15500302E+04</pdfrwt>
<totfact> 0.50140716E+00</totfact>
</mgrwt>
</event>
<event>
12    5  0.5029243E-008  0.1580159E+04  0.7818608E-02  0.8832831E-01
         -2   -1    0    0    0  501 -0.00000000000E+00  0.00000000000E+00  0.27018443144E+03  0.27018443144E+03  0.00000000000E+00 0.  1.
          1   -1    0    0  501    0  0.00000000000E+00 -0.00000000000E+00 -0.23103680872E+04  0.23103680872E+04  0.00000000000E+00 0. -1.
        -24    2    1    2    0    0  0.93516985971E+02 -0.41638030280E+03 -0.12010971743E+04  0.12770881459E+04  0.78751044512E+02 0.  0.
        254    2    1    2    0    0 -0.93516985971E+02  0.41638030280E+03 -0.83908648149E+03  0.13034643728E+04  0.90157377097E+03 0.  0.
         23    2    4    4    0    0 -0.29480350049E+03  0.42435195223E+03 -0.92648652261E+03  0.10647137048E+04  0.90853251159E+02 0.  0.
         23    2    4    4    0    0  0.20128651452E+03 -0.79716494288E+01  0.87400041123E+02  0.23875066804E+03  0.93719294590E+02 0.  0.
          1    1    3    3  502    0  0.46324600948E+02 -0.33958871479E+03 -0.91244948422E+03  0.97469509341E+03  0.00000000000E+00 0. -1.
         -2    1    3    3    0  502  0.47192385024E+02 -0.76791588006E+02 -0.28864769006E+03  0.30239305245E+03  0.00000000000E+00 0.  1.
         13    1    5    5    0    0 -0.30150099233E+03  0.41511914486E+03 -0.90209878416E+03  0.10377904264E+04  0.00000000000E+00 0.  1.
        -13    1    5    5    0    0  0.66974918414E+01  0.92328073686E+01 -0.24387738457E+02  0.26923278328E+02  0.00000000000E+00 0. -1.
          2    1    6    6  503    0  0.16022499307E+03 -0.41284902998E+02  0.84522117541E+02  0.18579687826E+03  0.00000000000E+00 0.  1.
         -2    1    6    6    0  503  0.41061521453E+02  0.33313253569E+02  0.28779235817E+01  0.52953789775E+02  0.00000000000E+00 0. -1.
<mgrwt>
<rscale>  0 0.15801588E+04</rscale>
<asrwt>0</asrwt>
<pdfrwt beam="1">  1        1 0.35544125E+00 0.15801588E+04</pdfrwt>
<pdfrwt beam="2">  1       -2 0.41566835E-01 0.15801588E+04</pdfrwt>
<totfact> 0.84843564E+00</totfact>
</mgrwt>
</event>
<event>
12    5  0.5029243E-008  0.1451554E+04  0.7818608E-02  0.8917324E-01
         -2   -1    0    0    0  501 -0.00000000000E+00  0.00000000000E+00  0.30868581316E+03  0.30868581316E+03  0.00000000000E+00 0.  1.
          1   -1    0    0  501    0  0.00000000000E+00 -0.00000000000E+00 -0.17064356957E+04  0.17064356957E+04  0.00000000000E+00 0. -1.
        -24    2    1    2    0    0 -0.14106258285E+03  0.41769446101E+03 -0.54519729188E+03  0.70467064759E+03  0.70379822832E+02 0.  0.
        254    2    1    2    0    0  0.14106258285E+03 -0.41769446101E+03 -0.85255259062E+03  0.13104508612E+04  0.89222655468E+03 0.  0.
         23    2    4    4    0    0  0.50083687978E+03 -0.34896415033E+03 -0.54336226847E+03  0.82231855544E+03  0.91387600120E+02 0.  0.
         23    2    4    4    0    0 -0.35977429694E+03 -0.68730310675E+02 -0.30919032215E+03  0.48813230579E+03  0.92266420215E+02 0.  0.
          1    1    3    3  502    0 -0.12856559525E+03  0.37539181874E+03 -0.51921532518E+03  0.65347737816E+03  0.00000000000E+00 0. -1.
         -2    1    3    3    0  502 -0.12496987596E+02  0.42302642264E+02 -0.25981966706E+02  0.51193269435E+02  0.00000000000E+00 0.  1.
         13    1    5    5    0    0  0.35490584221E+03 -0.29535804051E+03 -0.40305057698E+03  0.61289827584E+03  0.00000000000E+00 0.  1.
        -13    1    5    5    0    0  0.14593103757E+03 -0.53606109826E+02 -0.14031169149E+03  0.20942027960E+03  0.00000000000E+00 0. -1.
          4    1    6    6  503    0 -0.32814886862E+01  0.91597919175E+01 -0.21022300793E+02  0.23164781168E+02  0.00000000000E+00 0. -1.
         -4    1    6    6    0  503 -0.35649280825E+03 -0.77890102592E+02 -0.28816802136E+03  0.46496752462E+03  0.00000000000E+00 0.  1.
<mgrwt>
<rscale>  0 0.14515543E+04</rscale>
<asrwt>0</asrwt>
<pdfrwt beam="1">  1        1 0.26252857E+00 0.14515543E+04</pdfrwt>
<pdfrwt beam="2">  1       -2 0.47490125E-01 0.14515543E+04</pdfrwt>
<totfact> 0.16899617E+01</totfact>
</mgrwt>
</event>
<event>
12    5  0.5029243E-008  0.1489052E+04  0.7818608E-02  0.8891766E-01
         -2   -1    0    0    0  501 -0.00000000000E+00  0.00000000000E+00  0.47970644894E+03  0.47970644894E+03  0.00000000000E+00 0.  1.
          1   -1    0    0  501    0  0.00000000000E+00 -0.00000000000E+00 -0.11555380214E+04  0.11555380214E+04  0.00000000000E+00 0. -1.
        -24    2    1    2    0    0 -0.12281357177E+03 -0.11794557482E+03 -0.68916215957E+03  0.71540374453E+03  0.88677525190E+02 0.  0.
        254    2    1    2    0    0  0.12281357177E+03  0.11794557482E+03  0.13330587081E+02  0.91984072583E+03  0.90384452442E+03 0.  0.
         23    2    4    4    0    0  0.38242768021E+03 -0.24544326962E+03  0.13817177313E+02  0.46357758071E+03  0.90663828286E+02 0.  0.
         23    2    4    4    0    0 -0.25961410845E+03  0.36338884444E+03 -0.48659023237E+00  0.45626314512E+03  0.93407083551E+02 0.  0.
          3    1    3    3  502    0 -0.12498895855E+03 -0.11318525729E+03 -0.68981874800E+03  0.71012889486E+03  0.00000000000E+00 0. -1.
         -4    1    3    3    0  502  0.21753867816E+01 -0.47603175348E+01  0.65658842700E+00  0.52748496703E+01  0.00000000000E+00 0.  1.
         13    1    5    5    0    0  0.12060431150E+03 -0.84305796421E+02 -0.37587382940E+02  0.15187389051E+03  0.00000000000E+00 0. -1.
        -13    1    5    5    0    0  0.26182336871E+03 -0.16113747320E+03  0.51404560253E+02  0.31170369021E+03  0.00000000000E+00 0.  1.
          2    1    6    6  503    0 -0.93543486691E+02  0.18260938067E+03 -0.35740507048E+02  0.20826414395E+03  0.00000000000E+00 0.  1.
         -2    1    6    6    0  503 -0.16607062176E+03  0.18077946377E+03  0.35253916816E+02  0.24799900117E+03  0.00000000000E+00 0. -1.
<mgrwt>
<rscale>  0 0.14890521E+04</rscale>
<asrwt>0</asrwt>
<pdfrwt beam="1">  1        1 0.17777508E+00 0.14890521E+04</pdfrwt>
<pdfrwt beam="2">  1       -2 0.73800992E-01 0.14890521E+04</pdfrwt>
<totfact> 0.16191385E+01</totfact>
</mgrwt>
</event>
<event>
12    5  0.5029243E-008  0.1567899E+04  0.7818608E-02  0.8840515E-01
         -2   -1    0    0    0  501 -0.00000000000E+00  0.00000000000E+00  0.54122009754E+03  0.54122009754E+03  0.00000000000E+00 0.  1.
          1   -1    0    0  501    0  0.00000000000E+00 -0.00000000000E+00 -0.11355401662E+04  0.11355401662E+04  0.00000000000E+00 0. -1.
        -24    2    1    2    0    0 -0.19836587642E+03 -0.19443913758E+03  0.27175728905E+03  0.39673886597E+03  0.79963144419E+02 0.  0.
        254    2    1    2    0    0  0.19836587642E+03  0.19443913758E+03 -0.86607735775E+03  0.12800213978E+04  0.90067152174E+03 0.  0.
         23    2    4    4    0    0 -0.28046859081E+03 -0.13537710380E+03 -0.46170930864E+03  0.56574558927E+03  0.99513795190E+02 0.  0.
         23    2    4    4    0    0  0.47883446724E+03  0.32981624138E+03 -0.40436804912E+03  0.71427580853E+03  0.92818163168E+02 0.  0.
          3    1    3    3  502    0 -0.73054187421E+02 -0.28940576061E+02  0.10085035532E+03  0.12784860348E+03  0.00000000000E+00 0. -1.
         -2    1    3    3    0  502 -0.12531168900E+03 -0.16549856152E+03  0.17090693373E+03  0.26889026249E+03  0.00000000000E+00 0.  1.
         13    1    5    5    0    0 -0.76619554482E+02 -0.87748290639E+02 -0.18788255119E+03  0.22106598942E+03  0.00000000000E+00 0. -1.
        -13    1    5    5    0    0 -0.20384903633E+03 -0.47628813156E+02 -0.27382675745E+03  0.34467959985E+03  0.00000000000E+00 0.  1.
          3    1    6    6  503    0  0.93609699765E+02  0.10609749007E+03 -0.74047275628E+02  0.15969487254E+03  0.00000000000E+00 0. -1.
         -3    1    6    6    0  503  0.38522476747E+03  0.22371875131E+03 -0.33032077349E+03  0.55458093599E+03  0.00000000000E+00 0.  1.
<mgrwt>
<rscale>  0 0.15678994E+04</rscale>
<asrwt>0</asrwt>
<pdfrwt beam="1">  1        1 0.17469848E+00 0.15678994E+04</pdfrwt>
<pdfrwt beam="2">  1       -2 0.83264631E-01 0.15678994E+04</pdfrwt>
<totfact> 0.12703912E+01</totfact>
</mgrwt>
</event>
<event>
12    5  0.5029243E-008  0.1733545E+04  0.7818608E-02  0.8742460E-01
         -2   -1    0    0    0  501 -0.00000000000E+00  0.00000000000E+00  0.23855701692E+03  0.23855701692E+03  0.00000000000E+00 0.  1.
          1   -1    0    0  501    0  0.00000000000E+00 -0.00000000000E+00 -0.31493306102E+04  0.31493306102E+04  0.00000000000E+00 0. -1.
        -24    2    1    2    0    0  0.16724169814E+03  0.39481994561E+02  0.11882104907E+03  0.22406341665E+03  0.80977524595E+02 0.  0.
        254    2    1    2    0    0 -0.16724169814E+03 -0.39481994561E+02 -0.30295946424E+04  0.31638242105E+04  0.89543917958E+03 0.  0.
         23    2    4    4    0    0  0.14429088730E+03  0.13412808630E+03 -0.25500780662E+04  0.25593379570E+04  0.92208626459E+02 0.  0.
         23    2    4    4    0    0 -0.31153258544E+03 -0.17361008086E+03 -0.47951657616E+03  0.60448625347E+03  0.90964123999E+02 0.  0.
          3    1    3    3  502    0  0.63201222162E+02  0.54686249797E+02  0.65412678528E+02  0.10613104594E+03  0.00000000000E+00 0. -1.
         -4    1    3    3    0  502  0.10404047598E+03 -0.15204255236E+02  0.53408370542E+02  0.11793237072E+03  0.00000000000E+00 0.  1.
         13    1    5    5    0    0 -0.65774262177E+00  0.49747344729E+02 -0.56244541674E+03  0.56464154802E+03  0.00000000000E+00 0. -1.
        -13    1    5    5    0    0  0.14494862992E+03  0.84380741570E+02 -0.19876326495E+04  0.19946964090E+04  0.00000000000E+00 0.  1.
          4    1    6    6  503    0 -0.26636107718E+03 -0.14583399837E+03 -0.34342440338E+03  0.45842785621E+03  0.00000000000E+00 0.  1.
         -4    1    6    6    0  503 -0.45171508263E+02 -0.27776082491E+02 -0.13609217278E+03  0.14605839726E+03  0.00000000000E+00 0. -1.
<mgrwt>
<rscale>  0 0.17335454E+04</rscale>
<asrwt>0</asrwt>
<pdfrwt beam="1">  1        1 0.48451236E+00 0.17335454E+04</pdfrwt>
<pdfrwt beam="2">  1       -2 0.36701083E-01 0.17335454E+04</pdfrwt>
<totfact> 0.27159222E+00</totfact>
</mgrwt>
</event>
<event>
12    5  0.5029243E-008  0.1710380E+04  0.7818608E-02  0.8755466E-01
          1   -1    0    0  501    0  0.00000000000E+00  0.00000000000E+00  0.10591063448E+04  0.10591063448E+04  0.00000000000E+00 0. -1.
         -4   -1    0    0    0  501 -0.00000000000E+00 -0.00000000000E+00 -0.69053488074E+03  0.69053488074E+03  0.00000000000E+00 0.  1.
        -24    2    1    2    0    0 -0.42542929098E+02 -0.33160832989E+03  0.66138562241E+03  0.74702009567E+03  0.93989874628E+02 0.  0.
        254    2    1    2    0    0  0.42542929098E+02  0.33160832989E+03 -0.29281415834E+03  0.10026211299E+04  0.89874079327E+03 0.  0.
         23    2    4    4    0    0  0.22766847085E+03  0.43119671810E+03 -0.49413291295E+03  0.69988934960E+03  0.88961922743E+02 0.  0.
         23    2    4    4    0    0 -0.18512554175E+03 -0.99588388215E+02  0.20131875460E+03  0.30273178029E+03  0.83234467416E+02 0.  0.
          1    1    3    3  502    0 -0.43565602737E+02 -0.29071499848E+03  0.63083716465E+03  0.69596601957E+03  0.00000000000E+00 0. -1.
         -2    1    3    3    0  502  0.10226736392E+01 -0.40893331412E+02  0.30548457756E+02  0.51054076102E+02  0.00000000000E+00 0.  1.
         13    1    5    5    0    0  0.20256677176E+02  0.12643572493E+02 -0.67868153630E+01  0.24824458874E+02  0.00000000000E+00 0. -1.
        -13    1    5    5    0    0  0.20741179367E+03  0.41855314561E+03 -0.48734609758E+03  0.67506489072E+03  0.00000000000E+00 0.  1.
          3    1    6    6  503    0 -0.18323649596E+03 -0.78711394339E+02  0.15737140118E+03  0.25404104975E+03  0.00000000000E+00 0. -1.
         -3    1    6    6    0  503 -0.18890457931E+01 -0.20876993876E+02  0.43947353424E+02  0.48690730538E+02  0.00000000000E+00 0.  1.
<mgrwt>
<rscale>  0 0.17103799E+04</rscale>
<asrwt>0</asrwt>
<pdfrwt beam="1">  1        1 0.16293944E+00 0.17103799E+04</pdfrwt>
<pdfrwt beam="2">  1       -4 0.10623614E+00 0.17103799E+04</pdfrwt>
<totfact> 0.44950914E+00</totfact>
</mgrwt>
</event>
<event>
12    5  0.5029243E-008  0.2299070E+04  0.7818608E-02  0.8478288E-01
          1   -1    0    0  501    0  0.00000000000E+00  0.00000000000E+00  0.16846442068E+04  0.16846442068E+04  0.00000000000E+00 0. -1.
         -2   -1    0    0    0  501 -0.00000000000E+00 -0.00000000000E+00 -0.78439745288E+03  0.78439745288E+03  0.00000000000E+00 0.  1.
        -24    2    1    2    0    0 -0.99046251808E+02  0.45813920191E+03 -0.53338390247E+03  0.71765923539E+03  0.10408987657E+03 0.  0.
        254    2    1    2    0    0  0.99046251808E+02 -0.45813920191E+03  0.14336306564E+04  0.17513824243E+04  0.89013585980E+03 0.  0.
         23    2    4    4    0    0 -0.21749059300E+03 -0.58110292483E+03  0.71279726379E+03  0.94948164501E+03  0.91938499326E+02 0.  0.
         23    2    4    4    0    0  0.31653684481E+03  0.12296372291E+03  0.72083339264E+03  0.80190077933E+03  0.90157798714E+02 0.  0.
          1    1    3    3  502    0 -0.49628127183E+02  0.57555334107E+02 -0.72658918488E+02  0.10514221763E+03  0.00000000000E+00 0. -1.
         -2    1    3    3    0  502 -0.49418124625E+02  0.40058386780E+03 -0.46072498398E+03  0.61251701776E+03  0.00000000000E+00 0.  1.
         13    1    5    5    0    0 -0.10334039841E+03 -0.21499388727E+03  0.21530307035E+03  0.32133630609E+03  0.00000000000E+00 0.  1.
        -13    1    5    5    0    0 -0.11415019459E+03 -0.36610903756E+03  0.49749419343E+03  0.62814533892E+03  0.00000000000E+00 0. -1.
          3    1    6    6  503    0  0.24503418661E+03  0.79193565660E+02  0.61605757327E+03  0.66771274290E+03  0.00000000000E+00 0. -1.
         -3    1    6    6    0  503  0.71502658203E+02  0.43770157254E+02  0.10477581937E+03  0.13418803643E+03  0.00000000000E+00 0.  1.
<mgrwt>
<rscale>  0 0.22990699E+04</rscale>
<asrwt>0</asrwt>
<pdfrwt beam="1">  1        1 0.25917603E+00 0.22990699E+04</pdfrwt>
<pdfrwt beam="2">  1       -2 0.12067653E+00 0.22990699E+04</pdfrwt>
<totfact> 0.20296477E+00</totfact>
</mgrwt>
</event>
<event>
12    5  0.5029243E-008  0.1710444E+04  0.7818608E-02  0.8755430E-01
         -2   -1    0    0    0  501 -0.00000000000E+00  0.00000000000E+00  0.12947788485E+04  0.12947788485E+04  0.00000000000E+00 0.  1.
          1   -1    0    0  501    0  0.00000000000E+00 -0.00000000000E+00 -0.56488743718E+03  0.56488743718E+03  0.00000000000E+00 0. -1.
        -24    2    1    2    0    0  0.35517079988E+03  0.31198514808E+03 -0.16714905346E+03  0.50786257890E+03  0.80650872689E+02 0.  0.
        254    2    1    2    0    0 -0.35517079988E+03 -0.31198514808E+03  0.89704046479E+03  0.13518037068E+04  0.89398581448E+03 0.  0.
         23    2    4    4    0    0 -0.62254828840E+03 -0.35640759086E+03  0.68091819479E+03  0.99303452388E+03  0.88742523194E+02 0.  0.
         23    2    4    4    0    0  0.26737748852E+03  0.44422442785E+02  0.21612227001E+03  0.35876918290E+03  0.92425192562E+02 0.  0.
          1    1    3    3  502    0  0.13287221388E+03  0.13049627393E+03 -0.10653605608E+03  0.21455589942E+03  0.00000000000E+00 0. -1.
         -2    1    3    3    0  502  0.22229858600E+03  0.18148887415E+03 -0.60612997388E+02  0.29330667948E+03  0.00000000000E+00 0.  1.
         13    1    5    5    0    0 -0.18165545493E+03 -0.59010673090E+02  0.17936956370E+03  0.26201985464E+03  0.00000000000E+00 0. -1.
        -13    1    5    5    0    0 -0.44089283347E+03 -0.29739691777E+03  0.50154863109E+03  0.73101466925E+03  0.00000000000E+00 0.  1.
          3    1    6    6  503    0  0.94437204214E+02 -0.27973007967E+02  0.83455556308E+02  0.12909571873E+03  0.00000000000E+00 0. -1.
         -3    1    6    6    0  503  0.17294028430E+03  0.72395450752E+02  0.13266671370E+03  0.22967346418E+03  0.00000000000E+00 0.  1.
<mgrwt>
<rscale>  0 0.17104436E+04</rscale>
<asrwt>0</asrwt>
<pdfrwt beam="1">  1        1 0.86905760E-01 0.17104436E+04</pdfrwt>
<pdfrwt beam="2">  1       -2 0.19919674E+00 0.17104436E+04</pdfrwt>
<totfact> 0.41801520E+00</totfact>
</mgrwt>
</event>
<event>
12    5  0.5029243E-008  0.1979823E+04  0.7818608E-02  0.8616113E-01
         -2   -1    0    0    0  501 -0.00000000000E+00  0.00000000000E+00  0.29681137694E+03  0.29681137694E+03  0.00000000000E+00 0.  1.
          1   -1    0    0  501    0  0.00000000000E+00 -0.00000000000E+00 -0.33015054367E+04  0.33015054367E+04  0.00000000000E+00 0. -1.
        -24    2    1    2    0    0 -0.22972288086E+03 -0.18468166276E+03  0.12673019535E+03  0.33022730811E+03  0.78164020235E+02 0.  0.
        254    2    1    2    0    0  0.22972288086E+03  0.18468166276E+03 -0.31314242551E+04  0.32680895055E+04  0.88753097531E+03 0.  0.
         23    2    4    4    0    0  0.31749191113E+03  0.47695758607E+03 -0.24153157923E+04  0.24840001313E+04  0.90645589055E+02 0.  0.
         23    2    4    4    0    0 -0.87769030271E+02 -0.29227592331E+03 -0.71610846273E+03  0.78408937423E+03  0.94107376830E+02 0.  0.
          3    1    3    3  502    0 -0.94139600749E+02 -0.12136812009E+03  0.46745379964E+02  0.16055408918E+03  0.00000000000E+00 0. -1.
         -4    1    3    3    0  502 -0.13558328011E+03 -0.63313542665E+02  0.79984815386E+02  0.16967321893E+03  0.00000000000E+00 0.  1.
         13    1    5    5    0    0  0.11642215424E+03  0.11123041855E+03 -0.58985380820E+03  0.61143588303E+03  0.00000000000E+00 0.  1.
        -13    1    5    5    0    0  0.20106975689E+03  0.36572716752E+03 -0.18254619841E+04  0.18725642482E+04  0.00000000000E+00 0. -1.
          2    1    6    6  503    0  0.15099279831E+02 -0.50247696357E+02 -0.78969714354E+02  0.94810521704E+02  0.00000000000E+00 0. -1.
         -2    1    6    6    0  503 -0.10286831010E+03 -0.24202822696E+03 -0.63713874837E+03  0.68927885253E+03  0.00000000000E+00 0.  1.
<mgrwt>
<rscale>  0 0.19798226E+04</rscale>
<asrwt>0</asrwt>
<pdfrwt beam="1">  1        1 0.50792391E+00 0.19798226E+04</pdfrwt>
<pdfrwt beam="2">  1       -2 0.45663289E-01 0.19798226E+04</pdfrwt>
<totfact> 0.13269922E+00</totfact>
</mgrwt>
</event>
<event>
12    5  0.5029243E-008  0.1459397E+04  0.7818608E-02  0.8911911E-01
         -2   -1    0    0    0  501 -0.00000000000E+00  0.00000000000E+00  0.43263868465E+03  0.43263868465E+03  0.00000000000E+00 0.  1.
          1   -1    0    0  501    0  0.00000000000E+00 -0.00000000000E+00 -0.12307272028E+04  0.12307272028E+04  0.00000000000E+00 0. -1.
        -24    2    1    2    0    0 -0.10835381687E+03  0.16656204946E+02  0.24399201673E+03  0.27921160079E+03  0.80056448776E+02 0.  0.
        254    2    1    2    0    0  0.10835381687E+03 -0.16656204946E+02 -0.10420805349E+04  0.13841542866E+04  0.90439663272E+03 0.  0.
         23    2    4    4    0    0 -0.30518296492E+03  0.16172608264E+03 -0.16493503343E+03  0.39427187808E+03  0.94629703122E+02 0.  0.
         23    2    4    4    0    0  0.41353678179E+03 -0.17838228759E+03 -0.87714550142E+03  0.98988240854E+03  0.87464516518E+02 0.  0.
          1    1    3    3  502    0 -0.90109052955E+00  0.21804731425E+02  0.15828024386E+02  0.26958943463E+02  0.00000000000E+00 0. -1.
         -2    1    3    3    0  502 -0.10745272634E+03 -0.51485264792E+01  0.22816399235E+03  0.25225265732E+03  0.00000000000E+00 0.  1.
         13    1    5    5    0    0 -0.10117482059E+03  0.79672545969E+02 -0.10553686944E+03  0.16649951866E+03  0.00000000000E+00 0. -1.
        -13    1    5    5    0    0 -0.20400814433E+03  0.82053536673E+02 -0.59398163986E+02  0.22777235942E+03  0.00000000000E+00 0.  1.
          3    1    6    6  503    0  0.24766340639E+03 -0.92298777032E+02 -0.42292820857E+03  0.49872286564E+03  0.00000000000E+00 0. -1.
         -3    1    6    6    0  503  0.16587337540E+03 -0.86083510556E+02 -0.45421729285E+03  0.49115954290E+03  0.00000000000E+00 0.  1.
<mgrwt>
<rscale>  0 0.14593974E+04</rscale>
<asrwt>0</asrwt>
<pdfrwt beam="1">  1        1 0.18934264E+00 0.14593974E+04</pdfrwt>
<pdfrwt beam="2">  1       -2 0.66559798E-01 0.14593974E+04</pdfrwt>
<totfact> 0.17918185E+01</totfact>
</mgrwt>
</event>
<event>
12    5  0.5029243E-008  0.2096900E+04  0.7818608E-02  0.8562610E-01
         -2   -1    0    0    0  501 -0.00000000000E+00  0.00000000000E+00  0.45070216514E+03  0.45070216514E+03  0.00000000000E+00 0.  1.
          1   -1    0    0  501    0  0.00000000000E+00 -0.00000000000E+00 -0.24389659358E+04  0.24389659358E+04  0.00000000000E+00 0. -1.
        -24    2    1    2    0    0 -0.17190271415E+02 -0.42529862422E+03 -0.18291698759E+04  0.18797488689E+04  0.80118351356E+02 0.  0.
        254    2    1    2    0    0  0.17190271415E+02  0.42529862422E+03 -0.15909389478E+03  0.10099192320E+04  0.90191549639E+03 0.  0.
         23    2    4    4    0    0 -0.41334517662E+03  0.35143446307E+03 -0.56508924832E+02  0.55202509881E+03  0.84723280516E+02 0.  0.
         23    2    4    4    0    0  0.43053544803E+03  0.73864161146E+02 -0.10258496995E+03  0.45789413320E+03  0.91250615607E+02 0.  0.
          1    1    3    3  502    0 -0.31084972673E+02 -0.17056113200E+03 -0.87846582692E+03  0.89541028827E+03  0.00000000000E+00 0. -1.
         -2    1    3    3    0  502  0.13894701258E+02 -0.25473749222E+03 -0.95070404893E+03  0.98433858063E+03  0.00000000000E+00 0.  1.
         13    1    5    5    0    0 -0.13026573273E+03  0.15940566136E+03 -0.36166490435E+01  0.20589416250E+03  0.00000000000E+00 0.  1.
        -13    1    5    5    0    0 -0.28307944388E+03  0.19202880171E+03 -0.52892275789E+02  0.34613093631E+03  0.00000000000E+00 0. -1.
          4    1    6    6  503    0  0.37302303054E+03  0.74574128645E+02 -0.57313065899E+02  0.38469763386E+03  0.00000000000E+00 0. -1.
         -4    1    6    6    0  503  0.57512417493E+02 -0.70996749831E+00 -0.45271904049E+02  0.73196499342E+02  0.00000000000E+00 0.  1.
<mgrwt>
<rscale>  0 0.20968998E+04</rscale>
<asrwt>0</asrwt>
<pdfrwt beam="1">  1        1 0.37522552E+00 0.20968998E+04</pdfrwt>
<pdfrwt beam="2">  1       -2 0.69338796E-01 0.20968998E+04</pdfrwt>
<totfact> 0.22909500E+00</totfact>
</mgrwt>
</event>
<event>
12    5  0.5029243E-008  0.1754623E+04  0.7818608E-02  0.8730810E-01
          1   -1    0    0  501    0  0.00000000000E+00  0.00000000000E+00  0.56760066922E+03  0.56760066922E+03  0.00000000000E+00 0. -1.
         -2   -1    0    0    0  501 -0.00000000000E+00 -0.00000000000E+00 -0.13560161118E+04  0.13560161118E+04  0.00000000000E+00 0.  1.
        -24    2    1    2    0    0  0.73935989317E+01 -0.64088813209E+03 -0.17339835783E+03  0.66864870674E+03  0.78942000035E+02 0.  0.
        254    2    1    2    0    0 -0.73935989317E+01  0.64088813209E+03 -0.61501708480E+03  0.12549680743E+04  0.88651372793E+03 0.  0.
         23    2    4    4    0    0 -0.30048545903E+02  0.62139880259E+03  0.39850687871E+01  0.62865073512E+03  0.90257847443E+02 0.  0.
         23    2    4    4    0    0  0.22654946971E+02  0.19489329498E+02 -0.61900215359E+03  0.62631733920E+03  0.90645808784E+02 0.  0.
          3    1    3    3  502    0 -0.69402144301E+01 -0.28432918449E+03 -0.37834398658E+02  0.28691931522E+03  0.00000000000E+00 0. -1.
         -4    1    3    3    0  502  0.14333813362E+02 -0.35655894761E+03 -0.13556395917E+03  0.38172939152E+03  0.00000000000E+00 0.  1.
         13    1    5    5    0    0  0.24996380832E+02  0.69275642336E+02 -0.36527868172E+01  0.73737890717E+02  0.00000000000E+00 0. -1.
        -13    1    5    5    0    0 -0.55044926735E+02  0.55212316026E+03  0.76378556042E+01  0.55491284441E+03  0.00000000000E+00 0.  1.
          3    1    6    6  503    0  0.19562256779E+01  0.49570294178E+02 -0.21410918724E+03  0.21978122063E+03  0.00000000000E+00 0. -1.
         -3    1    6    6    0  503  0.20698721293E+02 -0.30080964679E+02 -0.40489296635E+03  0.40653611856E+03  0.00000000000E+00 0.  1.
<mgrwt>
<rscale>  0 0.17546232E+04</rscale>
<asrwt>0</asrwt>
<pdfrwt beam="1">  1        1 0.87323181E-01 0.17546232E+04</pdfrwt>
<pdfrwt beam="2">  1       -2 0.20861786E+00 0.17546232E+04</pdfrwt>
<totfact> 0.35916324E+00</totfact>
</mgrwt>
</event>
<event>
12    5  0.5029243E-008  0.2349855E+04  0.7818608E-02  0.8458519E-01
         -2   -1    0    0    0  501 -0.00000000000E+00  0.00000000000E+00  0.68026561645E+03  0.68026561645E+03  0.00000000000E+00 0.  1.
          1   -1    0    0  501    0  0.00000000000E+00 -0.00000000000E+00 -0.20292875795E+04  0.20292875795E+04  0.00000000000E+00 0. -1.
        -24    2    1    2    0    0  0.26070099944E+03 -0.80451801950E+02  0.53416969050E+03  0.60479367295E+03  0.77463701472E+02 0.  0.
        254    2    1    2    0    0 -0.26070099944E+03  0.80451801950E+02 -0.18831916536E+04  0.21047595230E+04  0.89953562579E+03 0.  0.
         23    2    4    4    0    0 -0.21642876975E+03  0.46084316751E+03 -0.13207241218E+04  0.14182364349E+04  0.88682252941E+02 0.  0.
         23    2    4    4    0    0 -0.44272229684E+02 -0.38039136555E+03 -0.56246753180E+03  0.68652308813E+03  0.91030790899E+02 0.  0.
          1    1    3    3  502    0  0.94454141345E+01 -0.21280730720E+02  0.68743757448E+02  0.72579539377E+02  0.00000000000E+00 0. -1.
         -2    1    3    3    0  502  0.25125558530E+03 -0.59171071230E+02  0.46542593306E+03  0.53221413357E+03  0.00000000000E+00 0.  1.
         13    1    5    5    0    0 -0.10637406772E+03  0.23691758081E+03 -0.79424798979E+03  0.83562865656E+03  0.00000000000E+00 0.  1.
        -13    1    5    5    0    0 -0.11005470203E+03  0.22392558669E+03 -0.52647613200E+03  0.58260777834E+03  0.00000000000E+00 0. -1.
          4    1    6    6  503    0  0.16144279870E+02 -0.45703685754E+02 -0.11240976976E+03  0.12241495416E+03  0.00000000000E+00 0. -1.
         -4    1    6    6    0  503 -0.60416509554E+02 -0.33468767980E+03 -0.45005776204E+03  0.56410813397E+03  0.00000000000E+00 0.  1.
<mgrwt>
<rscale>  0 0.23498549E+04</rscale>
<asrwt>0</asrwt>
<pdfrwt beam="1">  1        1 0.31219809E+00 0.23498549E+04</pdfrwt>
<pdfrwt beam="2">  1       -2 0.10465625E+00 0.23498549E+04</pdfrwt>
<totfact> 0.16676594E+00</totfact>
</mgrwt>
</event>
<event>
12    5  0.5029243E-008  0.2098816E+04  0.7818608E-02  0.8561765E-01
         -2   -1    0    0    0  501 -0.00000000000E+00  0.00000000000E+00  0.59168049933E+03  0.59168049933E+03  0.00000000000E+00 0.  1.
          1   -1    0    0  501    0  0.00000000000E+00 -0.00000000000E+00 -0.18612353455E+04  0.18612353455E+04  0.00000000000E+00 0. -1.
        -24    2    1    2    0    0  0.50936764946E+03 -0.22693464936E+03 -0.12735896302E+04  0.13921713269E+04  0.71803341563E+02 0.  0.
        254    2    1    2    0    0 -0.50936764946E+03  0.22693464936E+03  0.40347840388E+01  0.10607445179E+04  0.90233470256E+03 0.  0.
         23    2    4    4    0    0 -0.74346144953E+03  0.19425125605E+03 -0.11262888915E+03  0.78127764539E+03  0.85094154329E+02 0.  0.
         23    2    4    4    0    0  0.23409380007E+03  0.32683393316E+02  0.11666367319E+03  0.27946687254E+03  0.92861233958E+02 0.  0.
          3    1    3    3  502    0  0.27295892189E+03 -0.11135463087E+03 -0.75803940066E+03  0.81334504351E+03  0.00000000000E+00 0. -1.
         -4    1    3    3    0  502  0.23640872757E+03 -0.11558001850E+03 -0.51555022952E+03  0.57882628336E+03  0.00000000000E+00 0.  1.
         13    1    5    5    0    0 -0.60274058490E+03  0.12306899445E+03 -0.97476829125E+02  0.62285144480E+03  0.00000000000E+00 0.  1.
        -13    1    5    5    0    0 -0.14072086463E+03  0.71182261600E+02 -0.15152060028E+02  0.15842620059E+03  0.00000000000E+00 0. -1.
          3    1    6    6  503    0  0.17061493003E+02  0.12728965586E+02  0.45436314651E+02  0.50175490007E+02  0.00000000000E+00 0. -1.
         -3    1    6    6    0  503  0.21703230707E+03  0.19954427731E+02  0.71227358541E+02  0.22929138253E+03  0.00000000000E+00 0.  1.
<mgrwt>
<rscale>  0 0.20988155E+04</rscale>
<asrwt>0</asrwt>
<pdfrwt beam="1">  1        1 0.28634390E+00 0.20988155E+04</pdfrwt>
<pdfrwt beam="2">  1       -2 0.91027769E-01 0.20988155E+04</pdfrwt>
<totfact> 0.30779668E+00</totfact>
</mgrwt>
</event>
<event>
12    5  0.5029243E-008  0.1677020E+04  0.7818608E-02  0.8774580E-01
         -2   -1    0    0    0  501 -0.00000000000E+00  0.00000000000E+00  0.70859537111E+03  0.70859537111E+03  0.00000000000E+00 0.  1.
          1   -1    0    0  501    0  0.00000000000E+00 -0.00000000000E+00 -0.99224307981E+03  0.99224307981E+03  0.00000000000E+00 0. -1.
        -24    2    1    2    0    0  0.90358442530E+02 -0.54705064119E+03  0.97937180047E+02  0.56827492595E+03  0.76913250273E+02 0.  0.
        254    2    1    2    0    0 -0.90358442530E+02  0.54705064119E+03 -0.38158488875E+03  0.11325635250E+04  0.91085896746E+03 0.  0.
         23    2    4    4    0    0  0.29437593425E+03  0.13407496035E+03 -0.44302754816E+03  0.55777461895E+03  0.10102391528E+03 0.  0.
         23    2    4    4    0    0 -0.38473437678E+03  0.41297568083E+03  0.61442659407E+02  0.57478890602E+03  0.89652844069E+02 0.  0.
          1    1    3    3  502    0  0.21104604125E+02 -0.69369601898E+02 -0.11323802428E+02  0.73387836077E+02  0.00000000000E+00 0. -1.
         -2    1    3    3    0  502  0.69253838405E+02 -0.47768103929E+03  0.10926098247E+03  0.49488708987E+03  0.00000000000E+00 0.  1.
         13    1    5    5    0    0  0.46039550084E+02  0.36259729881E+01 -0.12738113009E+03  0.13549442850E+03  0.00000000000E+00 0.  1.
        -13    1    5    5    0    0  0.24833638417E+03  0.13044898737E+03 -0.31564641807E+03  0.42228019045E+03  0.00000000000E+00 0. -1.
          3    1    6    6  503    0 -0.29931836158E+03  0.27594905148E+03  0.70037185979E+02  0.41309147656E+03  0.00000000000E+00 0. -1.
         -3    1    6    6    0  503 -0.85416015204E+02  0.13702662935E+03 -0.85945265713E+01  0.16169742945E+03  0.00000000000E+00 0.  1.
<mgrwt>
<rscale>  0 0.16770198E+04</rscale>
<asrwt>0</asrwt>
<pdfrwt beam="1">  1        1 0.15265278E+00 0.16770198E+04</pdfrwt>
<pdfrwt beam="2">  1       -2 0.10901467E+00 0.16770198E+04</pdfrwt>
<totfact> 0.86117796E+00</totfact>
</mgrwt>
</event>
<event>
12    5  0.5029243E-008  0.1311168E+04  0.7818608E-02  0.9020756E-01
          1   -1    0    0  501    0  0.00000000000E+00  0.00000000000E+00  0.77524285706E+03  0.77524285706E+03  0.00000000000E+00 0. -1.
         -2   -1    0    0    0  501 -0.00000000000E+00 -0.00000000000E+00 -0.55439432226E+03  0.55439432226E+03  0.00000000000E+00 0.  1.
        -24    2    1    2    0    0 -0.39599912601E+02 -0.17990002129E+03 -0.23538692325E+03  0.30910311316E+03  0.78775378053E+02 0.  0.
        254    2    1    2    0    0  0.39599912601E+02  0.17990002129E+03  0.45623545806E+03  0.10205340662E+04  0.89409552972E+03 0.  0.
         23    2    4    4    0    0 -0.12803626956E+03 -0.25646507392E+03  0.45369795208E+03  0.54445558839E+03  0.91773828211E+02 0.  0.
         23    2    4    4    0    0  0.16763618216E+03  0.43636509521E+03  0.25375059789E+01  0.47607847777E+03  0.90154823377E+02 0.  0.
          1    1    3    3  502    0 -0.45787249818E+02 -0.56252050693E+02 -0.11791996412E+03  0.13844090216E+03  0.00000000000E+00 0. -1.
         -2    1    3    3    0  502  0.61873372171E+01 -0.12364797059E+03 -0.11746695913E+03  0.17066221099E+03  0.00000000000E+00 0.  1.
         13    1    5    5    0    0 -0.13081567835E+03 -0.26059338291E+03  0.42549848656E+03  0.51582033208E+03  0.00000000000E+00 0. -1.
        -13    1    5    5    0    0  0.27794087910E+01  0.41283089965E+01  0.28199465515E+02  0.28635256307E+02  0.00000000000E+00 0.  1.
          1    1    6    6  503    0  0.69421992032E+02  0.24974332431E+03  0.38785044969E+02  0.26209811279E+03  0.00000000000E+00 0. -1.
         -1    1    6    6    0  503  0.98214190132E+02  0.18662177090E+03 -0.36247538990E+02  0.21398036499E+03  0.00000000000E+00 0.  1.
<mgrwt>
<rscale>  0 0.13111678E+04</rscale>
<asrwt>0</asrwt>
<pdfrwt beam="1">  1        1 0.11926813E+00 0.13111678E+04</pdfrwt>
<pdfrwt beam="2">  1       -2 0.85291433E-01 0.13111678E+04</pdfrwt>
<totfact> 0.23906331E+01</totfact>
</mgrwt>
</event>
<event>
12    5  0.5029243E-008  0.2234435E+04  0.7818608E-02  0.8504231E-01
          1   -1    0    0  501    0  0.00000000000E+00  0.00000000000E+00  0.66019994477E+03  0.66019994477E+03  0.00000000000E+00 0. -1.
         -2   -1    0    0    0  501 -0.00000000000E+00 -0.00000000000E+00 -0.18906019987E+04  0.18906019987E+04  0.00000000000E+00 0.  1.
        -24    2    1    2    0    0 -0.54675452447E+03 -0.44205798445E+03  0.18410815619E+03  0.73184895832E+03  0.85739798031E+02 0.  0.
        254    2    1    2    0    0  0.54675452447E+03  0.44205798445E+03 -0.14145102101E+04  0.18189529851E+04  0.90188416993E+03 0.  0.
         23    2    4    4    0    0 -0.20106419818E+03 -0.70287217038E+02 -0.28191035604E+03  0.36533281474E+03  0.92884401346E+02 0.  0.
         23    2    4    4    0    0  0.74781872265E+03  0.51234520149E+03 -0.11325998541E+04  0.14536201704E+04  0.92188518329E+02 0.  0.
          1    1    3    3  502    0 -0.49004748157E+03 -0.38125015198E+03  0.18766575256E+03  0.64862673955E+03  0.00000000000E+00 0. -1.
         -2    1    3    3    0  502 -0.56707042902E+02 -0.60807832473E+02 -0.35575963637E+01  0.83222218768E+02  0.00000000000E+00 0.  1.
         13    1    5    5    0    0 -0.99848362952E+02 -0.44471470633E+01 -0.18591405693E+03  0.21107702211E+03  0.00000000000E+00 0. -1.
        -13    1    5    5    0    0 -0.10121583523E+03 -0.65840069975E+02 -0.95996299115E+02  0.15425579263E+03  0.00000000000E+00 0.  1.
          4    1    6    6  503    0  0.18275615737E+03  0.79145579166E+02 -0.24873430607E+03  0.31864179069E+03  0.00000000000E+00 0. -1.
         -4    1    6    6    0  503  0.56506256528E+03  0.43319962232E+03 -0.88386554800E+03  0.11349783797E+04  0.00000000000E+00 0.  1.
<mgrwt>
<rscale>  0 0.22344354E+04</rscale>
<asrwt>0</asrwt>
<pdfrwt beam="1">  1        1 0.10156922E+00 0.22344354E+04</pdfrwt>
<pdfrwt beam="2">  1       -2 0.29086184E+00 0.22344354E+04</pdfrwt>
<totfact> 0.85705983E-01</totfact>
</mgrwt>
</event>
<event>
12    5  0.5029243E-008  0.1720413E+04  0.7818608E-02  0.8749807E-01
         -2   -1    0    0    0  501 -0.00000000000E+00  0.00000000000E+00  0.12504039735E+04  0.12504039735E+04  0.00000000000E+00 0.  1.
          1   -1    0    0  501    0  0.00000000000E+00 -0.00000000000E+00 -0.59177290357E+03  0.59177290357E+03  0.00000000000E+00 0. -1.
        -24    2    1    2    0    0 -0.54549004095E+03  0.13937277252E+03 -0.38146099963E+02  0.56991009536E+03  0.79738556263E+02 0.  0.
        254    2    1    2    0    0  0.54549004095E+03 -0.13937277252E+03  0.69677716985E+03  0.12722667817E+04  0.90342691172E+03 0.  0.
         23    2    4    4    0    0  0.56488557844E+03  0.12266385678E+03  0.74025413788E+02  0.59035961598E+03  0.94353462065E+02 0.  0.
         23    2    4    4    0    0 -0.19395537492E+02 -0.26203662930E+03  0.62275175606E+03  0.68190716569E+03  0.90212255090E+02 0.  0.
          1    1    3    3  502    0 -0.19694889368E+03  0.64870457452E+02 -0.49991948238E+02  0.21329847131E+03  0.00000000000E+00 0. -1.
         -2    1    3    3    0  502 -0.34854114726E+03  0.74502315071E+02  0.11845848275E+02  0.35661162405E+03  0.00000000000E+00 0.  1.
         13    1    5    5    0    0  0.50627577476E+03  0.13175686533E+03  0.85121765560E+02  0.53001957195E+03  0.00000000000E+00 0.  1.
        -13    1    5    5    0    0  0.58609803675E+02 -0.90930085460E+01 -0.11096351772E+02  0.60340044033E+02  0.00000000000E+00 0. -1.
          3    1    6    6  503    0 -0.10296212889E+02 -0.26715795284E+03  0.60046621757E+03  0.65729678396E+03  0.00000000000E+00 0.  1.
         -3    1    6    6    0  503 -0.90993246029E+01  0.51213235305E+01  0.22285538495E+02  0.24610381731E+02  0.00000000000E+00 0. -1.
<mgrwt>
<rscale>  0 0.17204130E+04</rscale>
<asrwt>0</asrwt>
<pdfrwt beam="1">  1        1 0.91041985E-01 0.17204130E+04</pdfrwt>
<pdfrwt beam="2">  1       -2 0.19236984E+00 0.17204130E+04</pdfrwt>
<totfact> 0.43376647E+00</totfact>
</mgrwt>
</event>
<event>
12    5  0.5029243E-008  0.1621375E+04  0.7818608E-02  0.8807523E-01
          1   -1    0    0  501    0  0.00000000000E+00  0.00000000000E+00  0.24342076822E+04  0.24342076822E+04  0.00000000000E+00 0. -1.
         -2   -1    0    0    0  501 -0.00000000000E+00 -0.00000000000E+00 -0.26999104938E+03  0.26999104938E+03  0.00000000000E+00 0.  1.
        -24    2    1    2    0    0  0.26470313641E+03  0.82210340067E+02  0.15505776562E+04  0.15770633212E+04  0.77532965877E+02 0.  0.
        254    2    1    2    0    0 -0.26470313641E+03 -0.82210340067E+02  0.61363897660E+03  0.11271354103E+04  0.90391102948E+03 0.  0.
         23    2    4    4    0    0 -0.19582184856E+03  0.33606158539E+03  0.33831794882E+02  0.40310740828E+03  0.10033646753E+03 0.  0.
         23    2    4    4    0    0 -0.68881287854E+02 -0.41827192545E+03  0.57980718171E+03  0.72402800206E+03  0.91346288193E+02 0.  0.
          1    1    3    3  502    0  0.16180905447E+03  0.10035057216E+02  0.88039190782E+03  0.89519427156E+03  0.00000000000E+00 0. -1.
         -2    1    3    3    0  502  0.10289408194E+03  0.72175282851E+02  0.67018574838E+03  0.68186904966E+03  0.00000000000E+00 0.  1.
         13    1    5    5    0    0 -0.72799251728E+02  0.14934920126E+03 -0.33706734227E+02  0.16953188166E+03  0.00000000000E+00 0.  1.
        -13    1    5    5    0    0 -0.12302259683E+03  0.18671238413E+03  0.67538529109E+02  0.23357552661E+03  0.00000000000E+00 0. -1.
          1    1    6    6  503    0 -0.37781677896E+02 -0.36790993351E+03  0.45869090692E+03  0.58922196365E+03  0.00000000000E+00 0. -1.
         -1    1    6    6    0  503 -0.31099609959E+02 -0.50361991944E+02  0.12111627479E+03  0.13480603841E+03  0.00000000000E+00 0.  1.
<mgrwt>
<rscale>  0 0.16213751E+04</rscale>
<asrwt>0</asrwt>
<pdfrwt beam="1">  1        1 0.37449348E+00 0.16213751E+04</pdfrwt>
<pdfrwt beam="2">  1       -2 0.41537086E-01 0.16213751E+04</pdfrwt>
<totfact> 0.69610967E+00</totfact>
</mgrwt>
</event>
<event>
12    5  0.5029243E-008  0.3022846E+04  0.7818608E-02  0.8237237E-01
         -2   -1    0    0    0  501 -0.00000000000E+00  0.00000000000E+00  0.15257026468E+04  0.15257026468E+04  0.00000000000E+00 0.  1.
          1   -1    0    0  501    0  0.00000000000E+00 -0.00000000000E+00 -0.14972769958E+04  0.14972769958E+04  0.00000000000E+00 0. -1.
        -24    2    1    2    0    0 -0.12888369609E+04  0.74430130771E+02 -0.45880452152E+03  0.13734978650E+04  0.96717319572E+02 0.  0.
        254    2    1    2    0    0  0.12888369609E+04 -0.74430130771E+02  0.48723017256E+03  0.16494817776E+04  0.90374572615E+03 0.  0.
         23    2    4    4    0    0  0.76835136379E+03 -0.38113442061E+03  0.56982261435E+03  0.10337010151E+04  0.90624014129E+02 0.  0.
         23    2    4    4    0    0  0.52048559712E+03  0.30670428984E+03 -0.82592441791E+02  0.61578076257E+03  0.85974751461E+02 0.  0.
          1    1    3    3  502    0 -0.93177461403E+03  0.52449625378E+02 -0.28516283684E+03  0.97584462804E+03  0.00000000000E+00 0. -1.
         -2    1    3    3    0  502 -0.35706234689E+03  0.21980505393E+02 -0.17364168468E+03  0.39765323693E+03  0.00000000000E+00 0.  1.
         13    1    5    5    0    0  0.40936273707E+03 -0.22663889393E+03  0.35806902191E+03  0.58919984997E+03  0.00000000000E+00 0.  1.
        -13    1    5    5    0    0  0.35898862672E+03 -0.15449552667E+03  0.21175359244E+03  0.44450116511E+03  0.00000000000E+00 0. -1.
          4    1    6    6  503    0  0.10298205450E+03  0.49240433102E+02  0.16587041741E+02  0.11534753467E+03  0.00000000000E+00 0.  1.
         -4    1    6    6    0  503  0.41750354263E+03  0.25746385673E+03 -0.99179483532E+02  0.50043322790E+03  0.00000000000E+00 0. -1.
<mgrwt>
<rscale>  0 0.30228460E+04</rscale>
<asrwt>0</asrwt>
<pdfrwt beam="1">  1        1 0.23035031E+00 0.30228460E+04</pdfrwt>
<pdfrwt beam="2">  1       -2 0.23472348E+00 0.30228460E+04</pdfrwt>
<totfact> 0.39155039E-01</totfact>
</mgrwt>
</event>
<event>
12    5  0.5029243E-008  0.1925280E+04  0.7818608E-02  0.8642374E-01
          1   -1    0    0  501    0  0.00000000000E+00  0.00000000000E+00  0.12112699439E+04  0.12112699439E+04  0.00000000000E+00 0. -1.
         -2   -1    0    0    0  501 -0.00000000000E+00 -0.00000000000E+00 -0.76504499658E+03  0.76504499658E+03  0.00000000000E+00 0.  1.
        -24    2    1    2    0    0  0.37106606154E+03 -0.51780588454E+03  0.58058578770E+03  0.86561063600E+03  0.79930971439E+02 0.  0.
        254    2    1    2    0    0 -0.37106606154E+03  0.51780588454E+03 -0.13436084040E+03  0.11107043045E+04  0.89988791548E+03 0.  0.
         23    2    4    4    0    0 -0.62183321607E+03  0.23178807357E+03 -0.22621075353E+03  0.70698618373E+03  0.90861979483E+02 0.  0.
         23    2    4    4    0    0  0.25076715453E+03  0.28601781097E+03  0.91849913130E+02  0.40371812073E+03  0.99305389978E+02 0.  0.
          3    1    3    3  502    0  0.33617308354E+03 -0.50070642638E+03  0.54210796879E+03  0.81092559297E+03  0.00000000000E+00 0. -1.
         -4    1    3    3    0  502  0.34892977998E+02 -0.17099458154E+02  0.38477818911E+02  0.54685043027E+02  0.00000000000E+00 0.  1.
         13    1    5    5    0    0 -0.58389261137E+03  0.19168123593E+03 -0.20494622274E+03  0.64782345746E+03  0.00000000000E+00 0. -1.
        -13    1    5    5    0    0 -0.37940604706E+02  0.40106837633E+02 -0.21264530790E+02  0.59162726274E+02  0.00000000000E+00 0.  1.
          2    1    6    6  503    0  0.20708056854E+03  0.23445802039E+03  0.11347958617E+03  0.33276198952E+03  0.00000000000E+00 0. -1.
         -2    1    6    6    0  503  0.43686585990E+02  0.51559790579E+02 -0.21629673040E+02  0.70956131207E+02  0.00000000000E+00 0.  1.
<mgrwt>
<rscale>  0 0.19252802E+04</rscale>
<asrwt>0</asrwt>
<pdfrwt beam="1">  1        1 0.18634922E+00 0.19252802E+04</pdfrwt>
<pdfrwt beam="2">  1       -2 0.11769923E+00 0.19252802E+04</pdfrwt>
<totfact> 0.47834159E+00</totfact>
</mgrwt>
</event>
<event>
12    5  0.5029243E-008  0.1840716E+04  0.7818608E-02  0.8684942E-01
          1   -1    0    0  501    0  0.00000000000E+00  0.00000000000E+00  0.25933614232E+04  0.25933614232E+04  0.00000000000E+00 0. -1.
         -2   -1    0    0    0  501 -0.00000000000E+00 -0.00000000000E+00 -0.32662576109E+03  0.32662576109E+03  0.00000000000E+00 0.  1.
        -24    2    1    2    0    0 -0.46192404916E+03 -0.32125411775E+03  0.23194623950E+03  0.61367592313E+03  0.78873602977E+02 0.  0.
        254    2    1    2    0    0  0.46192404916E+03  0.32125411775E+03  0.20347894226E+04  0.23063112611E+04  0.92850719093E+03 0.  0.
         23    2    4    4    0    0  0.25108648114E+03  0.52242431674E+03  0.60114941414E+03  0.84063269817E+03  0.96494183132E+02 0.  0.
         23    2    4    4    0    0  0.21083756802E+03 -0.20117019900E+03  0.14336400085E+04  0.14656785630E+04  0.89263918048E+02 0.  0.
          3    1    3    3  502    0 -0.27023824958E+03 -0.16584969351E+03  0.92761523087E+02  0.33036272874E+03  0.00000000000E+00 0. -1.
         -4    1    3    3    0  502 -0.19168579959E+03 -0.15540442423E+03  0.13918471642E+03  0.28331319439E+03  0.00000000000E+00 0.  1.
         13    1    5    5    0    0 -0.18456278257E+01  0.63551466504E+02  0.68978854017E+02  0.93809794469E+02  0.00000000000E+00 0.  1.
        -13    1    5    5    0    0  0.25293210897E+03  0.45887285024E+03  0.53217056013E+03  0.74682290370E+03  0.00000000000E+00 0. -1.
          3    1    6    6  503    0  0.55135996280E+02 -0.11195673872E+03  0.54591200926E+03  0.55999483148E+03  0.00000000000E+00 0. -1.
         -3    1    6    6    0  503  0.15570157174E+03 -0.89213460279E+02  0.88772799920E+03  0.90568373150E+03  0.00000000000E+00 0.  1.
<mgrwt>
<rscale>  0 0.18407158E+04</rscale>
<asrwt>0</asrwt>
<pdfrwt beam="1">  1        1 0.39897867E+00 0.18407158E+04</pdfrwt>
<pdfrwt beam="2">  1       -2 0.50250119E-01 0.18407158E+04</pdfrwt>
<totfact> 0.36124911E+00</totfact>
</mgrwt>
</event>
<event>
12    5  0.5029243E-008  0.1136178E+04  0.7818608E-02  0.9170630E-01
          1   -1    0    0  501    0  0.00000000000E+00  0.00000000000E+00  0.76919803252E+03  0.76919803252E+03  0.00000000000E+00 0. -1.
         -2   -1    0    0    0  501 -0.00000000000E+00 -0.00000000000E+00 -0.41956077189E+03  0.41956077189E+03  0.00000000000E+00 0.  1.
        -24    2    1    2    0    0  0.18468986488E+03  0.44203327374E+02  0.67306004104E+01  0.20721140697E+03  0.82625576277E+02 0.  0.
        254    2    1    2    0    0 -0.18468986488E+03 -0.44203327374E+02  0.34290666021E+03  0.98154739744E+03  0.89988112296E+03 0.  0.
         23    2    4    4    0    0  0.16834442882E+03  0.15113484926E+03  0.48593825974E+03  0.54377790362E+03  0.91525006476E+02 0.  0.
         23    2    4    4    0    0 -0.35303429370E+03 -0.19533817663E+03 -0.14303159953E+03  0.43776949381E+03  0.91618095747E+02 0.  0.
          1    1    3    3  502    0  0.55563082195E+02  0.37930049789E+02  0.33554572712E+02  0.75178814369E+02  0.00000000000E+00 0. -1.
         -2    1    3    3    0  502  0.12912678269E+03  0.62732775858E+01 -0.26823972302E+02  0.13203259260E+03  0.00000000000E+00 0.  1.
         13    1    5    5    0    0  0.16701125476E+03  0.12180057868E+03  0.36640687686E+03  0.42069245251E+03  0.00000000000E+00 0.  1.
        -13    1    5    5    0    0  0.13331740627E+01  0.29334270578E+02  0.11953138288E+03  0.12308545112E+03  0.00000000000E+00 0. -1.
          4    1    6    6  503    0 -0.19603998795E+03 -0.56441786714E+02 -0.65201496920E+02  0.21416952949E+03  0.00000000000E+00 0. -1.
         -4    1    6    6    0  503 -0.15699430576E+03 -0.13889638992E+03 -0.77830102608E+02  0.22359996432E+03  0.00000000000E+00 0.  1.
<mgrwt>
<rscale>  0 0.11361784E+04</rscale>
<asrwt>0</asrwt>
<pdfrwt beam="1">  1        1 0.11833816E+00 0.11361784E+04</pdfrwt>
<pdfrwt beam="2">  1       -2 0.64547811E-01 0.11361784E+04</pdfrwt>
<totfact> 0.45440878E+01</totfact>
</mgrwt>
</event>
<event>
12    5  0.5029243E-008  0.1392954E+04  0.7818608E-02  0.8958935E-01
          1   -1    0    0  501    0  0.00000000000E+00  0.00000000000E+00  0.15422891397E+04  0.15422891397E+04  0.00000000000E+00 0. -1.
         -2   -1    0    0    0  501 -0.00000000000E+00 -0.00000000000E+00 -0.31451963155E+03  0.31451963155E+03  0.00000000000E+00 0.  1.
        -24    2    1    2    0    0 -0.34340036932E+03 -0.20692169019E+03  0.43522692059E+03  0.59695905727E+03  0.78722577018E+02 0.  0.
        254    2    1    2    0    0  0.34340036932E+03  0.20692169019E+03  0.79254258761E+03  0.12598497140E+04  0.89350833754E+03 0.  0.
         23    2    4    4    0    0 -0.20103468238E+03  0.33671710368E+03  0.24221925984E+03  0.46976551279E+03  0.90642792005E+02 0.  0.
         23    2    4    4    0    0  0.54443505170E+03 -0.12979541349E+03  0.55032332777E+03  0.79008420124E+03  0.90116064483E+02 0.  0.
          1    1    3    3  502    0 -0.26905888062E+03 -0.14268370546E+03  0.36911370898E+03  0.47853552763E+03  0.00000000000E+00 0. -1.
         -2    1    3    3    0  502 -0.74341488702E+02 -0.64237984726E+02  0.66113211609E+02  0.11842352964E+03  0.00000000000E+00 0.  1.
         13    1    5    5    0    0 -0.17932249997E+03  0.29286504860E+03  0.17171247484E+03  0.38394227392E+03  0.00000000000E+00 0. -1.
        -13    1    5    5    0    0 -0.21712182411E+02  0.43852055082E+02  0.70506785001E+02  0.85823238876E+02  0.00000000000E+00 0.  1.
          2    1    6    6  503    0  0.59448231426E+02 -0.57640318246E+01  0.10138194959E+03  0.11766739559E+03  0.00000000000E+00 0. -1.
         -2    1    6    6    0  503  0.48498682027E+03 -0.12403138167E+03  0.44894137819E+03  0.67241680565E+03  0.00000000000E+00 0.  1.
<mgrwt>
<rscale>  0 0.13929540E+04</rscale>
<asrwt>0</asrwt>
<pdfrwt beam="1">  1        1 0.23727525E+00 0.13929540E+04</pdfrwt>
<pdfrwt beam="2">  1       -2 0.48387637E-01 0.13929540E+04</pdfrwt>
<totfact> 0.21178743E+01</totfact>
</mgrwt>
</event>
<event>
12    5  0.5029243E-008  0.1127658E+04  0.7818608E-02  0.9178646E-01
         -2   -1    0    0    0  501 -0.00000000000E+00  0.00000000000E+00  0.33738220967E+03  0.33738220967E+03  0.00000000000E+00 0.  1.
          1   -1    0    0  501    0  0.00000000000E+00 -0.00000000000E+00 -0.94226404451E+03  0.94226404451E+03  0.00000000000E+00 0. -1.
        -24    2    1    2    0    0 -0.21740097898E+03 -0.64108309773E+02 -0.20825637075E+03  0.31724757221E+03  0.76826070276E+02 0.  0.
        254    2    1    2    0    0  0.21740097898E+03  0.64108309773E+02 -0.39662546409E+03  0.96239868197E+03  0.84706930251E+03 0.  0.
         23    2    4    4    0    0  0.52369218771E+03  0.44503975155E+02 -0.35314182639E+03  0.63926245288E+03  0.87824955716E+02 0.  0.
         23    2    4    4    0    0 -0.30629120872E+03  0.19604334617E+02 -0.43483637697E+02  0.32313622909E+03  0.91255472853E+02 0.  0.
          1    1    3    3  502    0 -0.48648409735E+02 -0.42796880482E+02 -0.86460476390E+02  0.10804468856E+03  0.00000000000E+00 0. -1.
         -2    1    3    3    0  502 -0.16875256925E+03 -0.21311429290E+02 -0.12179589436E+03  0.20920288365E+03  0.00000000000E+00 0.  1.
         13    1    5    5    0    0  0.45631720237E+03  0.48207527200E+02 -0.33853228692E+03  0.57022229363E+03  0.00000000000E+00 0.  1.
        -13    1    5    5    0    0  0.67374985331E+02 -0.37035520443E+01 -0.14609539471E+02  0.69040159253E+02  0.00000000000E+00 0. -1.
          4    1    6    6  503    0 -0.50257318810E+02  0.30645828218E+02 -0.31077925491E+02  0.66564272203E+02  0.00000000000E+00 0. -1.
         -4    1    6    6    0  503 -0.25603388991E+03 -0.11041493601E+02 -0.12405712207E+02  0.25657195689E+03  0.00000000000E+00 0.  1.
<mgrwt>
<rscale>  0 0.11276580E+04</rscale>
<asrwt>0</asrwt>
<pdfrwt beam="1">  1        1 0.14496370E+00 0.11276580E+04</pdfrwt>
<pdfrwt beam="2">  1       -2 0.51904956E-01 0.11276580E+04</pdfrwt>
<totfact> 0.51376778E+01</totfact>
</mgrwt>
</event>
<event>
12    5  0.5029243E-008  0.1945919E+04  0.7818608E-02  0.8632331E-01
          1   -1    0    0  501    0  0.00000000000E+00  0.00000000000E+00  0.12088246455E+04  0.12088246455E+04  0.00000000000E+00 0. -1.
         -2   -1    0    0    0  501 -0.00000000000E+00 -0.00000000000E+00 -0.78311587856E+03  0.78311587856E+03  0.00000000000E+00 0.  1.
        -24    2    1    2    0    0  0.24918346874E+03  0.71762328665E+03  0.89350698398E+02  0.76968686471E+03  0.85783097236E+02 0.  0.
        254    2    1    2    0    0 -0.24918346874E+03 -0.71762328665E+03  0.33635806854E+03  0.12222536593E+04  0.89648852467E+03 0.  0.
         23    2    4    4    0    0 -0.14858527763E+03 -0.89748702390E+03  0.38534854473E+03  0.99120829063E+03  0.80248561837E+02 0.  0.
         23    2    4    4    0    0 -0.10059819111E+03  0.17986373725E+03 -0.48990476194E+02  0.23104536871E+03  0.92254732201E+02 0.  0.
          1    1    3    3  502    0 -0.22987093219E+01  0.54922674594E+02  0.15030244464E+02  0.56988529528E+02  0.00000000000E+00 0. -1.
         -2    1    3    3    0  502  0.25148217806E+03  0.66270061206E+03  0.74320453934E+02  0.71269833519E+03  0.00000000000E+00 0.  1.
         13    1    5    5    0    0 -0.32646893838E+01 -0.15106950179E+03  0.86866661933E+02  0.17429420393E+03  0.00000000000E+00 0.  1.
        -13    1    5    5    0    0 -0.14532058825E+03 -0.74641752211E+03  0.29848188280E+03  0.81691408670E+03  0.00000000000E+00 0. -1.
          2    1    6    6  503    0 -0.56789184353E+02  0.16194941333E+03 -0.61135570851E+02  0.18218172785E+03  0.00000000000E+00 0. -1.
         -2    1    6    6    0  503 -0.43809006758E+02  0.17914323922E+02  0.12145094657E+02  0.48863640869E+02  0.00000000000E+00 0.  1.
<mgrwt>
<rscale>  0 0.19459186E+04</rscale>
<asrwt>0</asrwt>
<pdfrwt beam="1">  1        1 0.18597302E+00 0.19459186E+04</pdfrwt>
<pdfrwt beam="2">  1       -2 0.12047937E+00 0.19459186E+04</pdfrwt>
<totfact> 0.45251455E+00</totfact>
</mgrwt>
</event>
<event>
12    5  0.5029243E-008  0.1289544E+04  0.7818608E-02  0.9037898E-01
          3   -1    0    0  501    0  0.00000000000E+00  0.00000000000E+00  0.25187383691E+03  0.25187383691E+03  0.00000000000E+00 0. -1.
         -4   -1    0    0    0  501 -0.00000000000E+00 -0.00000000000E+00 -0.16505526631E+04  0.16505526631E+04  0.00000000000E+00 0.  1.
        -24    2    1    2    0    0 -0.33650727218E+03  0.81473920954E+02 -0.32622028491E+03  0.48229820430E+03  0.79477918656E+02 0.  0.
        254    2    1    2    0    0  0.33650727218E+03 -0.81473920954E+02 -0.10724585413E+04  0.14201282957E+04  0.86413072477E+03 0.  0.
         23    2    4    4    0    0  0.57995334767E+03 -0.13882938277E+03 -0.48110909654E+03  0.77168070095E+03  0.91682378086E+02 0.  0.
         23    2    4    4    0    0 -0.24344607549E+03  0.57355461812E+02 -0.59134944476E+03  0.64844759478E+03  0.90744017368E+02 0.  0.
          3    1    3    3  502    0 -0.29873209260E+02  0.25966535464E+02 -0.16309700126E+02  0.42809764233E+02  0.00000000000E+00 0. -1.
         -4    1    3    3    0  502 -0.30663406292E+03  0.55507385490E+02 -0.30991058479E+03  0.43948844006E+03  0.00000000000E+00 0.  1.
         13    1    5    5    0    0  0.32218173373E+03 -0.83647174187E+02 -0.32552618558E+03  0.46558051591E+03  0.00000000000E+00 0.  1.
        -13    1    5    5    0    0  0.25777161394E+03 -0.55182208579E+02 -0.15558291096E+03  0.30610018504E+03  0.00000000000E+00 0. -1.
          1    1    6    6  503    0 -0.21686487619E+03  0.60547537232E+02 -0.43495008620E+03  0.48977337236E+03  0.00000000000E+00 0. -1.
         -1    1    6    6    0  503 -0.26581199297E+02 -0.31920754204E+01 -0.15639935856E+03  0.15867422242E+03  0.00000000000E+00 0.  1.
<mgrwt>
<rscale>  0 0.12895442E+04</rscale>
<asrwt>0</asrwt>
<pdfrwt beam="1">  1        3 0.38749820E-01 0.12895442E+04</pdfrwt>
<pdfrwt beam="2">  1       -4 0.25393119E+00 0.12895442E+04</pdfrwt>
<totfact> 0.88986443E-01</totfact>
</mgrwt>
</event>
<event>
12    5  0.5029243E-008  0.1843177E+04  0.7818608E-02  0.8683670E-01
          1   -1    0    0  501    0  0.00000000000E+00  0.00000000000E+00  0.12403454995E+04  0.12403454995E+04  0.00000000000E+00 0. -1.
         -2   -1    0    0    0  501 -0.00000000000E+00 -0.00000000000E+00 -0.68474897881E+03  0.68474897881E+03  0.00000000000E+00 0.  1.
        -24    2    1    2    0    0  0.49823370122E+03 -0.43635277399E+03  0.40652905602E+03  0.78124263484E+03  0.80209829230E+02 0.  0.
        254    2    1    2    0    0 -0.49823370122E+03  0.43635277399E+03  0.14906746468E+03  0.11438518435E+04  0.92061684017E+03 0.  0.
         23    2    4    4    0    0  0.21479350727E+03 -0.81199865602E+02  0.50622251389E+02  0.25307609722E+03  0.93569384463E+02 0.  0.
         23    2    4    4    0    0 -0.71302720849E+03  0.51755263959E+03  0.98445213290E+02  0.89077574626E+03  0.86726208890E+02 0.  0.
          3    1    3    3  502    0  0.12960676259E+03 -0.12780288479E+03  0.15291227383E+03  0.23772600564E+03  0.00000000000E+00 0. -1.
         -4    1    3    3    0  502  0.36862693864E+03 -0.30854988919E+03  0.25361678219E+03  0.54351662920E+03  0.00000000000E+00 0.  1.
         13    1    5    5    0    0  0.15165721458E+03 -0.99623172271E+02  0.28440951602E+02  0.18366702185E+03  0.00000000000E+00 0.  1.
        -13    1    5    5    0    0  0.63136292693E+02  0.18423306668E+02  0.22181299787E+02  0.69409075371E+02  0.00000000000E+00 0. -1.
          1    1    6    6  503    0 -0.67504138937E+02  0.58260205871E+02 -0.15096113291E+02  0.90437564088E+02  0.00000000000E+00 0. -1.
         -1    1    6    6    0  503 -0.64552306956E+03  0.45929243372E+03  0.11354132658E+03  0.80033818217E+03  0.00000000000E+00 0.  1.
<mgrwt>
<rscale>  0 0.18431769E+04</rscale>
<asrwt>0</asrwt>
<pdfrwt beam="1">  1        1 0.19082238E+00 0.18431769E+04</pdfrwt>
<pdfrwt beam="2">  1       -2 0.10534600E+00 0.18431769E+04</pdfrwt>
<totfact> 0.60065013E+00</totfact>
</mgrwt>
</event>
<event>
12    5  0.5029243E-008  0.2015877E+04  0.7818608E-02  0.8599233E-01
          1   -1    0    0  501    0  0.00000000000E+00  0.00000000000E+00  0.15414567671E+04  0.15414567671E+04  0.00000000000E+00 0. -1.
         -2   -1    0    0    0  501 -0.00000000000E+00 -0.00000000000E+00 -0.65907794191E+03  0.65907794191E+03  0.00000000000E+00 0.  1.
        -24    2    1    2    0    0  0.19696222857E+03  0.88248944750E+02  0.11999346291E+04  0.12218796879E+04  0.81023834125E+02 0.  0.
        254    2    1    2    0    0 -0.19696222857E+03 -0.88248944750E+02 -0.31755580396E+03  0.97865502113E+03  0.90018996108E+03 0.  0.
         23    2    4    4    0    0 -0.77159333650E+02  0.16227633233E+03  0.26103067881E+03  0.33040372259E+03  0.93500982995E+02 0.  0.
         23    2    4    4    0    0 -0.11980289492E+03 -0.25052527708E+03 -0.57858648277E+03  0.64825129854E+03  0.91388073245E+02 0.  0.
          1    1    3    3  502    0  0.10256359783E+03  0.40577079997E+01  0.47132869521E+03  0.48237588614E+03  0.00000000000E+00 0. -1.
         -2    1    3    3    0  502  0.94398630738E+02  0.84191236750E+02  0.72860593391E+03  0.73950380172E+03  0.00000000000E+00 0.  1.
         13    1    5    5    0    0 -0.34691717328E+02  0.37174273364E+01  0.72285953018E+02  0.80265768051E+02  0.00000000000E+00 0.  1.
        -13    1    5    5    0    0 -0.42467616323E+02  0.15855890500E+03  0.18874472579E+03  0.25013795454E+03  0.00000000000E+00 0. -1.
          4    1    6    6  503    0 -0.10184866117E+03 -0.25428990404E+03 -0.53856347428E+03  0.60422439616E+03  0.00000000000E+00 0. -1.
         -4    1    6    6    0  503 -0.17954233748E+02  0.37646269549E+01 -0.40023008481E+02  0.44026902383E+02  0.00000000000E+00 0.  1.
<mgrwt>
<rscale>  0 0.20158771E+04</rscale>
<asrwt>0</asrwt>
<pdfrwt beam="1">  1        1 0.23714719E+00 0.20158771E+04</pdfrwt>
<pdfrwt beam="2">  1       -2 0.10139661E+00 0.20158771E+04</pdfrwt>
<totfact> 0.39793647E+00</totfact>
</mgrwt>
</event>
<event>
12    5  0.5029243E-008  0.2527563E+04  0.7818608E-02  0.8393231E-01
         -2   -1    0    0    0  501 -0.00000000000E+00  0.00000000000E+00  0.17589178553E+04  0.17589178553E+04  0.00000000000E+00 0.  1.
          1   -1    0    0  501    0  0.00000000000E+00 -0.00000000000E+00 -0.90802622630E+03  0.90802622630E+03  0.00000000000E+00 0. -1.
        -24    2    1    2    0    0 -0.54198178026E+03  0.77222140229E+03 -0.23047518259E+03  0.97444018740E+03  0.79653780522E+02 0.  0.
        254    2    1    2    0    0  0.54198178026E+03 -0.77222140229E+03  0.10813668115E+04  0.16925038942E+04  0.89729878319E+03 0.  0.
         23    2    4    4    0    0 -0.17167543273E+03 -0.49026014004E+03  0.48565706740E+03  0.71681628401E+03  0.90196112991E+02 0.  0.
         23    2    4    4    0    0  0.71365721298E+03 -0.28196126224E+03  0.59570974415E+03  0.97568761014E+03  0.91035390091E+02 0.  0.
          3    1    3    3  502    0 -0.44999791108E+03  0.59700444053E+03 -0.20278200233E+03  0.77461794612E+03  0.00000000000E+00 0. -1.
         -4    1    3    3    0  502 -0.91983869176E+02  0.17521696176E+03 -0.27693180264E+02  0.19982224128E+03  0.00000000000E+00 0.  1.
         13    1    5    5    0    0 -0.77195037573E+02 -0.33813013317E+03  0.34384116089E+03  0.48838284644E+03  0.00000000000E+00 0. -1.
        -13    1    5    5    0    0 -0.94480395155E+02 -0.15213000687E+03  0.14181590651E+03  0.22843343757E+03  0.00000000000E+00 0.  1.
          1    1    6    6  503    0  0.43518494244E+03 -0.12645020068E+03  0.33088244062E+03  0.56112278236E+03  0.00000000000E+00 0. -1.
         -1    1    6    6    0  503  0.27847227055E+03 -0.15551106156E+03  0.26482730353E+03  0.41456482777E+03  0.00000000000E+00 0.  1.
<mgrwt>
<rscale>  0 0.25275629E+04</rscale>
<asrwt>0</asrwt>
<pdfrwt beam="1">  1        1 0.13969634E+00 0.25275629E+04</pdfrwt>
<pdfrwt beam="2">  1       -2 0.27060275E+00 0.25275629E+04</pdfrwt>
<totfact> 0.66945494E-01</totfact>
</mgrwt>
</event>
<event>
12    5  0.5029243E-008  0.2125804E+04  0.7818608E-02  0.8549961E-01
         -2   -1    0    0    0  501 -0.00000000000E+00  0.00000000000E+00  0.13420289192E+04  0.13420289192E+04  0.00000000000E+00 0.  1.
          1   -1    0    0  501    0  0.00000000000E+00 -0.00000000000E+00 -0.84183035699E+03  0.84183035699E+03  0.00000000000E+00 0. -1.
        -24    2    1    2    0    0  0.55340002235E+03  0.13014590415E+03  0.88337164680E+03  0.10535601807E+04  0.80337082277E+02 0.  0.
        254    2    1    2    0    0 -0.55340002235E+03 -0.13014590415E+03 -0.38317308454E+03  0.11302990956E+04  0.89864614373E+03 0.  0.
         23    2    4    4    0    0  0.10020050504E+03 -0.30479246048E+03  0.25028913557E+02  0.33476800156E+03  0.92220296993E+02 0.  0.
         23    2    4    4    0    0 -0.65360052738E+03  0.17464655633E+03 -0.40820199810E+03  0.79553109402E+03  0.92443394903E+02 0.  0.
          1    1    3    3  502    0  0.23745525601E+03  0.86708293581E+02  0.34285955455E+03  0.42597652627E+03  0.00000000000E+00 0. -1.
         -2    1    3    3    0  502  0.31594476633E+03  0.43437610567E+02  0.54051209225E+03  0.62758365439E+03  0.00000000000E+00 0.  1.
         13    1    5    5    0    0  0.47535316530E+01 -0.15632636310E+03  0.24240973820E+02  0.15826608188E+03  0.00000000000E+00 0. -1.
        -13    1    5    5    0    0  0.95446973383E+02 -0.14846609739E+03  0.78793973697E+00  0.17650191968E+03  0.00000000000E+00 0.  1.
          2    1    6    6  503    0 -0.32374341918E+03  0.12308556348E+03 -0.24251604900E+03  0.42281661677E+03  0.00000000000E+00 0. -1.
         -2    1    6    6    0  503 -0.32985710821E+03  0.51560992856E+02 -0.16568594910E+03  0.37271447725E+03  0.00000000000E+00 0.  1.
<mgrwt>
<rscale>  0 0.21258040E+04</rscale>
<asrwt>0</asrwt>
<pdfrwt beam="1">  1        1 0.12951236E+00 0.21258040E+04</pdfrwt>
<pdfrwt beam="2">  1       -2 0.20646599E+00 0.21258040E+04</pdfrwt>
<totfact> 0.19743449E+00</totfact>
</mgrwt>
</event>
<event>
12    5  0.5029243E-008  0.1596981E+04  0.7818608E-02  0.8822405E-01
          1   -1    0    0  501    0  0.00000000000E+00  0.00000000000E+00  0.21723690137E+04  0.21723690137E+04  0.00000000000E+00 0. -1.
         -2   -1    0    0    0  501 -0.00000000000E+00 -0.00000000000E+00 -0.29349840294E+03  0.29349840294E+03  0.00000000000E+00 0.  1.
        -24    2    1    2    0    0  0.11551618911E+03  0.20398258831E+03 -0.11518154004E+03  0.26819474066E+03  0.60899470206E+02 0.  0.
        254    2    1    2    0    0 -0.11551618911E+03 -0.20398258831E+03  0.19940521508E+04  0.21976726760E+04  0.89362650160E+03 0.  0.
         23    2    4    4    0    0  0.19619092014E+03  0.23604276393E+03  0.39767406375E+03  0.51020795171E+03  0.89221238837E+02 0.  0.
         23    2    4    4    0    0 -0.31170710925E+03 -0.44002535225E+03  0.15963780871E+04  0.16874647243E+04  0.91271935780E+02 0.  0.
          1    1    3    3  502    0  0.14042906105E+02  0.20063850721E+02 -0.36359881338E+02  0.43838365486E+02  0.00000000000E+00 0. -1.
         -4    1    3    3    0  502  0.10147328300E+03  0.18391873759E+03 -0.78821658703E+02  0.22435637518E+03  0.00000000000E+00 0.  1.
         13    1    5    5    0    0 -0.32653577321E+01 -0.54927441878E+01  0.77126464122E+01  0.10015873128E+02  0.00000000000E+00 0.  1.
        -13    1    5    5    0    0  0.19945627788E+03  0.24153550812E+03  0.38996141734E+03  0.50019207859E+03  0.00000000000E+00 0. -1.
          2    1    6    6  503    0 -0.28051121979E+03 -0.33699908706E+03  0.12440019083E+04  0.13190131451E+04  0.00000000000E+00 0. -1.
         -2    1    6    6    0  503 -0.31195889460E+02 -0.10302626518E+03  0.35237617874E+03  0.36845157915E+03  0.00000000000E+00 0.  1.
<mgrwt>
<rscale>  0 0.15969807E+04</rscale>
<asrwt>0</asrwt>
<pdfrwt beam="1">  1        1 0.33421061E+00 0.15969807E+04</pdfrwt>
<pdfrwt beam="2">  1       -2 0.45153602E-01 0.15969807E+04</pdfrwt>
<totfact> 0.89252994E+00</totfact>
</mgrwt>
</event>
<event>
12    5  0.5029243E-008  0.1942112E+04  0.7818608E-02  0.8634174E-01
          1   -1    0    0  501    0  0.00000000000E+00  0.00000000000E+00  0.12429788222E+04  0.12429788222E+04  0.00000000000E+00 0. -1.
         -2   -1    0    0    0  501 -0.00000000000E+00 -0.00000000000E+00 -0.75862077465E+03  0.75862077465E+03  0.00000000000E+00 0.  1.
        -24    2    1    2    0    0 -0.52792648603E+02 -0.99132325786E+01  0.97419331502E+03  0.97893392110E+03  0.79835273652E+02 0.  0.
        254    2    1    2    0    0  0.52792648603E+02  0.99132325786E+01 -0.48983526747E+03  0.10226656758E+04  0.89611447883E+03 0.  0.
         23    2    4    4    0    0  0.75369052884E+02  0.56097022294E+02  0.24434873637E+03  0.28071139130E+03  0.10131737361E+03 0.  0.
         23    2    4    4    0    0 -0.22576404281E+02 -0.46183789715E+02 -0.73418400385E+03  0.74195428445E+03  0.93954096505E+02 0.  0.
          3    1    3    3  502    0 -0.65972092269E+02  0.14069943138E+02  0.76276289469E+03  0.76573984732E+03  0.00000000000E+00 0. -1.
         -4    1    3    3    0  502  0.13179443666E+02 -0.23983175717E+02  0.21143042033E+03  0.21319407378E+03  0.00000000000E+00 0.  1.
         13    1    5    5    0    0  0.56654958240E+01 -0.13558086065E+02 -0.25139448660E+01  0.14907697993E+02  0.00000000000E+00 0. -1.
        -13    1    5    5    0    0  0.69703557060E+02  0.69655108359E+02  0.24686268124E+03  0.26580369331E+03  0.00000000000E+00 0.  1.
          2    1    6    6  503    0  0.51134254821E+01  0.49867123230E+01 -0.19383510886E+01  0.74007854242E+01  0.00000000000E+00 0. -1.
         -2    1    6    6    0  503 -0.27689829763E+02 -0.51170502038E+02 -0.73224565276E+03  0.73455349903E+03  0.00000000000E+00 0.  1.
<mgrwt>
<rscale>  0 0.19421118E+04</rscale>
<asrwt>0</asrwt>
<pdfrwt beam="1">  1        1 0.19122751E+00 0.19421118E+04</pdfrwt>
<pdfrwt beam="2">  1       -2 0.11671089E+00 0.19421118E+04</pdfrwt>
<totfact> 0.46245797E+00</totfact>
</mgrwt>
</event>
<event>
12    5  0.5029243E-008  0.4916074E+04  0.7818608E-02  0.7841586E-01
          1   -1    0    0  501    0  0.00000000000E+00  0.00000000000E+00  0.17759688467E+04  0.17759688467E+04  0.00000000000E+00 0. -1.
         -2   -1    0    0    0  501 -0.00000000000E+00 -0.00000000000E+00 -0.34020559213E+04  0.34020559213E+04  0.00000000000E+00 0.  1.
        -24    2    1    2    0    0 -0.20200718272E+04  0.88636796306E+03  0.13794775814E+03  0.22117591129E+04  0.80687275967E+02 0.  0.
        254    2    1    2    0    0  0.20200718272E+04 -0.88636796306E+03 -0.17640348328E+04  0.29662656550E+04  0.90585577882E+03 0.  0.
         23    2    4    4    0    0  0.13667478532E+04 -0.36848632102E+03 -0.62106200152E+03  0.15484962299E+04  0.91327439437E+02 0.  0.
         23    2    4    4    0    0  0.65332397402E+03 -0.51788164204E+03 -0.11429728312E+04  0.14177694252E+04  0.93003439777E+02 0.  0.
          1    1    3    3  502    0 -0.59547605454E+02  0.26436239425E+02 -0.95934953861E+01  0.65854591518E+02  0.00000000000E+00 0. -1.
         -2    1    3    3    0  502 -0.19605242218E+04  0.85993172363E+03  0.14754125353E+03  0.21459045214E+04  0.00000000000E+00 0.  1.
         13    1    5    5    0    0  0.10578595928E+04 -0.30950648346E+03 -0.51533792542E+03  0.12167310133E+04  0.00000000000E+00 0. -1.
        -13    1    5    5    0    0  0.30888826042E+03 -0.58979837569E+02 -0.10572407611E+03  0.33176521658E+03  0.00000000000E+00 0.  1.
          2    1    6    6  503    0  0.59660405169E+03 -0.48104351674E+03 -0.10868656430E+04  0.13298932985E+04  0.00000000000E+00 0. -1.
         -2    1    6    6    0  503  0.56719922339E+02 -0.36838125296E+02 -0.56107188244E+02  0.87876126668E+02  0.00000000000E+00 0.  1.
<mgrwt>
<rscale>  0 0.49160738E+04</rscale>
<asrwt>0</asrwt>
<pdfrwt beam="1">  1        1 0.27322598E+00 0.49160738E+04</pdfrwt>
<pdfrwt beam="2">  1       -2 0.52339322E+00 0.49160738E+04</pdfrwt>
<totfact> 0.32465542E-03</totfact>
</mgrwt>
</event>
<event>
12    5  0.5029243E-008  0.1450924E+04  0.7818608E-02  0.8917760E-01
         -2   -1    0    0    0  501 -0.00000000000E+00  0.00000000000E+00  0.41194858248E+03  0.41194858248E+03  0.00000000000E+00 0.  1.
          1   -1    0    0  501    0  0.00000000000E+00 -0.00000000000E+00 -0.12775750696E+04  0.12775750696E+04  0.00000000000E+00 0. -1.
        -24    2    1    2    0    0 -0.31471380524E+03  0.85764008112E+02  0.78735795179E+02  0.34514049989E+03  0.80761345495E+02 0.  0.
        254    2    1    2    0    0  0.31471380524E+03 -0.85764008112E+02 -0.94436228232E+03  0.13443831522E+04  0.89952526110E+03 0.  0.
         23    2    4    4    0    0 -0.43840947774E+02  0.36127973068E+03 -0.33749041085E+03  0.50488425796E+03  0.92537905819E+02 0.  0.
         23    2    4    4    0    0  0.35855475302E+03 -0.44704373880E+03 -0.60687187147E+03  0.83949889424E+03  0.89751377432E+02 0.  0.
          1    1    3    3  502    0 -0.26967182077E+03  0.63460156617E+02  0.36389067952E+02  0.27941769210E+03  0.00000000000E+00 0. -1.
         -2    1    3    3    0  502 -0.45041984477E+02  0.22303851496E+02  0.42346727227E+02  0.65722807792E+02  0.00000000000E+00 0.  1.
         13    1    5    5    0    0  0.98085144595E+01  0.23614473232E+03 -0.24416120945E+03  0.33981647658E+03  0.00000000000E+00 0.  1.
        -13    1    5    5    0    0 -0.53649462234E+02  0.12513499837E+03 -0.93329201403E+02  0.16506778138E+03  0.00000000000E+00 0. -1.
          3    1    6    6  503    0  0.15351383085E+03 -0.13110559710E+03 -0.24136093399E+03  0.31465898097E+03  0.00000000000E+00 0. -1.
         -3    1    6    6    0  503  0.20504092217E+03 -0.31593814170E+03 -0.36551093748E+03  0.52483991327E+03  0.00000000000E+00 0.  1.
<mgrwt>
<rscale>  0 0.14509242E+04</rscale>
<asrwt>0</asrwt>
<pdfrwt beam="1">  1        1 0.19655001E+00 0.14509242E+04</pdfrwt>
<pdfrwt beam="2">  1       -2 0.63376704E-01 0.14509242E+04</pdfrwt>
<totfact> 0.18431330E+01</totfact>
</mgrwt>
</event>
<event>
12    5  0.5029243E-008  0.2464849E+04  0.7818608E-02  0.8415616E-01
          1   -1    0    0  501    0  0.00000000000E+00  0.00000000000E+00  0.10018608599E+04  0.10018608599E+04  0.00000000000E+00 0. -1.
         -2   -1    0    0    0  501 -0.00000000000E+00 -0.00000000000E+00 -0.15160494971E+04  0.15160494971E+04  0.00000000000E+00 0.  1.
        -24    2    1    2    0    0 -0.32464192907E+03  0.94240446889E+03  0.19822255516E+03  0.10192909063E+04  0.78378601574E+02 0.  0.
        254    2    1    2    0    0  0.32464192907E+03 -0.94240446889E+03 -0.71241119234E+03  0.14986194506E+04  0.86302490447E+03 0.  0.
         23    2    4    4    0    0  0.54442362773E+03 -0.78646222237E+03 -0.74052540084E+03  0.12130629850E+04  0.90686397494E+02 0.  0.
         23    2    4    4    0    0 -0.21978169867E+03 -0.15594224652E+03  0.28114208497E+02  0.28555646561E+03  0.90167106041E+02 0.  0.
          3    1    3    3  502    0 -0.12456008077E+03  0.31549863083E+03  0.10221788192E+03  0.35426416014E+03  0.00000000000E+00 0. -1.
         -4    1    3    3    0  502 -0.20008184829E+03  0.62690583806E+03  0.96004673239E+02  0.66502674615E+03  0.00000000000E+00 0.  1.
         13    1    5    5    0    0  0.52926206505E+02 -0.51625738388E+02 -0.34046925681E+02  0.81397747803E+02  0.00000000000E+00 0. -1.
        -13    1    5    5    0    0  0.49149742123E+03 -0.73483648398E+03 -0.70647847516E+03  0.11316652372E+04  0.00000000000E+00 0.  1.
          3    1    6    6  503    0 -0.19196727255E+03 -0.95124809880E+02  0.34310847664E+01  0.21427070618E+03  0.00000000000E+00 0.  1.
         -3    1    6    6    0  503 -0.27814426120E+02 -0.60817436645E+02  0.24683123731E+02  0.71285759430E+02  0.00000000000E+00 0. -1.
<mgrwt>
<rscale>  0 0.24648494E+04</rscale>
<asrwt>0</asrwt>
<pdfrwt beam="1">  1        1 0.15413244E+00 0.24648494E+04</pdfrwt>
<pdfrwt beam="2">  1       -2 0.23323838E+00 0.24648494E+04</pdfrwt>
<totfact> 0.96167317E-01</totfact>
</mgrwt>
</event>
<event>
12    5  0.5029243E-008  0.1383573E+04  0.7818608E-02  0.8965796E-01
          1   -1    0    0  501    0  0.00000000000E+00  0.00000000000E+00  0.31887848266E+04  0.31887848266E+04  0.00000000000E+00 0. -1.
         -2   -1    0    0    0  501 -0.00000000000E+00 -0.00000000000E+00 -0.15007865952E+03  0.15007865952E+03  0.00000000000E+00 0.  1.
        -24    2    1    2    0    0  0.37127124057E+03 -0.11189794100E+03  0.10634741620E+04  0.11343463130E+04  0.73490008205E+02 0.  0.
        254    2    1    2    0    0 -0.37127124057E+03  0.11189794100E+03  0.19752320051E+04  0.22045171732E+04  0.89888320122E+03 0.  0.
         23    2    4    4    0    0 -0.46435692128E+03  0.35218123989E+03  0.17619789282E+04  0.18581497006E+04  0.92149825378E+02 0.  0.
         23    2    4    4    0    0  0.93085680713E+02 -0.24028329889E+03  0.21325307689E+03  0.34636747254E+03  0.89958565756E+02 0.  0.
          1    1    3    3  502    0  0.75319534068E+02 -0.12298072123E+01  0.26895388225E+03  0.27930401969E+03  0.00000000000E+00 0. -1.
         -2    1    3    3    0  502  0.29595170650E+03 -0.11066813379E+03  0.79452027973E+03  0.85504229329E+03  0.00000000000E+00 0.  1.
         13    1    5    5    0    0 -0.46305216696E+03  0.34822484517E+03  0.17610134478E+04  0.18538733008E+04  0.00000000000E+00 0. -1.
        -13    1    5    5    0    0 -0.13047543207E+01  0.39563947140E+01  0.96548044518E+00  0.42763998246E+01  0.00000000000E+00 0.  1.
          4    1    6    6  503    0  0.63822768591E+02 -0.54429287915E+02  0.79097472947E+02  0.11529225213E+03  0.00000000000E+00 0. -1.
         -4    1    6    6    0  503  0.29262912122E+02 -0.18585401097E+03  0.13415560394E+03  0.23107522041E+03  0.00000000000E+00 0.  1.
<mgrwt>
<rscale>  0 0.13835730E+04</rscale>
<asrwt>0</asrwt>
<pdfrwt beam="1">  1        1 0.49058223E+00 0.13835730E+04</pdfrwt>
<pdfrwt beam="2">  1       -2 0.23089027E-01 0.13835730E+04</pdfrwt>
<totfact> 0.62180223E+00</totfact>
</mgrwt>
</event>
<event>
12    5  0.5029243E-008  0.2008633E+04  0.7818608E-02  0.8602595E-01
          1   -1    0    0  501    0  0.00000000000E+00  0.00000000000E+00  0.12973887052E+04  0.12973887052E+04  0.00000000000E+00 0. -1.
         -2   -1    0    0    0  501 -0.00000000000E+00 -0.00000000000E+00 -0.77744723652E+03  0.77744723652E+03  0.00000000000E+00 0.  1.
        -24    2    1    2    0    0 -0.70674093688E+03 -0.99004978920E+02  0.57237202800E+03  0.91826727318E+03  0.79500370072E+02 0.  0.
        254    2    1    2    0    0  0.70674093688E+03  0.99004978920E+02 -0.52430559292E+02  0.11565686686E+04  0.90863490129E+03 0.  0.
         23    2    4    4    0    0  0.38647123572E+03 -0.39354649531E+03  0.41641357236E+01  0.55912293745E+03  0.91445388872E+02 0.  0.
         23    2    4    4    0    0  0.32026970117E+03  0.49255147423E+03 -0.56594695015E+02  0.59744573112E+03  0.92513814492E+02 0.  0.
          1    1    3    3  502    0 -0.37630902271E+03 -0.49087165489E+02  0.35466039049E+03  0.51942470385E+03  0.00000000000E+00 0. -1.
         -2    1    3    3    0  502 -0.33043191418E+03 -0.49917813431E+02  0.21771163751E+03  0.39884256933E+03  0.00000000000E+00 0.  1.
         13    1    5    5    0    0  0.31426751758E+03 -0.36422255231E+03 -0.30599341901E+00  0.48106364844E+03  0.00000000000E+00 0. -1.
        -13    1    5    5    0    0  0.72203718137E+02 -0.29323942999E+02  0.44701291426E+01  0.78059289008E+02  0.00000000000E+00 0.  1.
          4    1    6    6  503    0  0.31820422471E+03  0.44824217044E+03 -0.44687017795E+02  0.55151781616E+03  0.00000000000E+00 0. -1.
         -4    1    6    6    0  503  0.20654764600E+01  0.44309303789E+02 -0.11907677221E+02  0.45927914955E+02  0.00000000000E+00 0.  1.
<mgrwt>
<rscale>  0 0.20086326E+04</rscale>
<asrwt>0</asrwt>
<pdfrwt beam="1">  1        1 0.19959826E+00 0.20086326E+04</pdfrwt>
<pdfrwt beam="2">  1       -2 0.11960727E+00 0.20086326E+04</pdfrwt>
<totfact> 0.39556421E+00</totfact>
</mgrwt>
</event>
<event>
12    5  0.5029243E-008  0.1755978E+04  0.7818608E-02  0.8730067E-01
          1   -1    0    0  501    0  0.00000000000E+00  0.00000000000E+00  0.68792724066E+03  0.68792724066E+03  0.00000000000E+00 0. -1.
         -2   -1    0    0    0  501 -0.00000000000E+00 -0.00000000000E+00 -0.11205612130E+04  0.11205612130E+04  0.00000000000E+00 0.  1.
        -24    2    1    2    0    0 -0.56374440099E+03 -0.85736213031E+02 -0.47768788368E+03  0.74837241951E+03  0.81958014821E+02 0.  0.
        254    2    1    2    0    0  0.56374440099E+03  0.85736213031E+02  0.45053911319E+02  0.10601160342E+04  0.89255683466E+03 0.  0.
         23    2    4    4    0    0  0.57749511102E+03  0.20391829426E+03  0.35645391100E+03  0.71438337653E+03  0.90559063602E+02 0.  0.
         23    2    4    4    0    0 -0.13750710028E+02 -0.11818208123E+03 -0.31139999968E+03  0.34573265764E+03  0.91678920189E+02 0.  0.
          1    1    3    3  502    0 -0.30925539691E+02 -0.29919954626E+01 -0.55275203735E+02  0.63408904659E+02  0.00000000000E+00 0. -1.
         -2    1    3    3    0  502 -0.53281886130E+03 -0.82744217568E+02 -0.42241267995E+03  0.68496351485E+03  0.00000000000E+00 0.  1.
         13    1    5    5    0    0  0.20966066800E+02  0.26232337045E+02  0.30672888933E+02  0.45481178298E+02  0.00000000000E+00 0. -1.
        -13    1    5    5    0    0  0.55652904422E+03  0.17768595721E+03  0.32578102207E+03  0.66890219823E+03  0.00000000000E+00 0.  1.
          3    1    6    6  503    0  0.32740967447E+02 -0.52368035016E+02 -0.19198028246E+03  0.20167005453E+03  0.00000000000E+00 0.  1.
         -3    1    6    6    0  503 -0.46491677475E+02 -0.65814046212E+02 -0.11941971722E+03  0.14406260311E+03  0.00000000000E+00 0. -1.
<mgrwt>
<rscale>  0 0.17559779E+04</rscale>
<asrwt>0</asrwt>
<pdfrwt beam="1">  1        1 0.10583496E+00 0.17559779E+04</pdfrwt>
<pdfrwt beam="2">  1       -2 0.17239403E+00 0.17559779E+04</pdfrwt>
<totfact> 0.47519528E+00</totfact>
</mgrwt>
</event>
<event>
12    5  0.5029243E-008  0.3011913E+04  0.7818608E-02  0.8240337E-01
          1   -1    0    0  501    0  0.00000000000E+00  0.00000000000E+00  0.32487056937E+04  0.32487056937E+04  0.00000000000E+00 0. -1.
         -2   -1    0    0    0  501 -0.00000000000E+00 -0.00000000000E+00 -0.69809515278E+03  0.69809515278E+03  0.00000000000E+00 0.  1.
        -24    2    1    2    0    0 -0.11278601783E+04 -0.77258538056E+03  0.10452285394E+04  0.17226737890E+04  0.78393442825E+02 0.  0.
        254    2    1    2    0    0  0.11278601783E+04  0.77258538056E+03  0.15053820015E+04  0.22241270574E+04  0.90089369250E+03 0.  0.
         23    2    4    4    0    0  0.47792574563E+03  0.66215917830E+03  0.35488066176E+03  0.89521360484E+03  0.92732510190E+02 0.  0.
         23    2    4    4    0    0  0.64993443263E+03  0.11042620225E+03  0.11505013397E+04  0.13289134526E+04  0.88027943695E+02 0.  0.
          1    1    3    3  502    0 -0.58999870450E+03 -0.39587529306E+03  0.49461206867E+03  0.86571174039E+03  0.00000000000E+00 0. -1.
         -2    1    3    3    0  502 -0.53786147377E+03 -0.37671008750E+03  0.55061647074E+03  0.85696204865E+03  0.00000000000E+00 0.  1.
         13    1    5    5    0    0  0.23525787177E+03  0.31802291185E+03  0.22219416912E+03  0.45371256042E+03  0.00000000000E+00 0.  1.
        -13    1    5    5    0    0  0.24266787386E+03  0.34413626645E+03  0.13268649264E+03  0.44150104442E+03  0.00000000000E+00 0. -1.
          3    1    6    6  503    0  0.34187190206E+03  0.99416856298E+02  0.64915228015E+03  0.74037746559E+03  0.00000000000E+00 0. -1.
         -3    1    6    6    0  503  0.30806253057E+03  0.11009345957E+02  0.50134905959E+03  0.58853598699E+03  0.00000000000E+00 0.  1.
<mgrwt>
<rscale>  0 0.30119135E+04</rscale>
<asrwt>0</asrwt>
<pdfrwt beam="1">  1        1 0.49980086E+00 0.30119135E+04</pdfrwt>
<pdfrwt beam="2">  1       -2 0.10739926E+00 0.30119135E+04</pdfrwt>
<totfact> 0.20333768E-01</totfact>
</mgrwt>
</event>
<event>
12    5  0.5029243E-008  0.1214341E+04  0.7818608E-02  0.9100395E-01
         -2   -1    0    0    0  501 -0.00000000000E+00  0.00000000000E+00  0.20151140448E+04  0.20151140448E+04  0.00000000000E+00 0.  1.
          1   -1    0    0  501    0  0.00000000000E+00 -0.00000000000E+00 -0.18294555912E+03  0.18294555912E+03  0.00000000000E+00 0. -1.
        -24    2    1    2    0    0  0.21092620462E+03 -0.13213027207E+03  0.19822699068E+03  0.32769142189E+03  0.78354677918E+02 0.  0.
        254    2    1    2    0    0 -0.21092620462E+03  0.13213027207E+03  0.16339414950E+04  0.18703681821E+04  0.87553643826E+03 0.  0.
         23    2    4    4    0    0 -0.46538286903E+03  0.32450885592E+03  0.11196547526E+04  0.12583584316E+04  0.89173791763E+02 0.  0.
         23    2    4    4    0    0  0.25445666441E+03 -0.19237858385E+03  0.51428674245E+03  0.61200975043E+03  0.91144761660E+02 0.  0.
          1    1    3    3  502    0  0.18444153033E+03 -0.10117459863E+03  0.19496608131E+03  0.28682180946E+03  0.00000000000E+00 0. -1.
         -2    1    3    3    0  502  0.26484674293E+02 -0.30955673439E+02  0.32609093714E+01  0.40869612433E+02  0.00000000000E+00 0.  1.
         13    1    5    5    0    0 -0.37423403351E+03  0.21474590465E+03  0.82797901746E+03  0.93365741509E+03  0.00000000000E+00 0. -1.
        -13    1    5    5    0    0 -0.91148835524E+02  0.10976295126E+03  0.29167573510E+03  0.32470101653E+03  0.00000000000E+00 0.  1.
          2    1    6    6  503    0  0.10038754269E+03 -0.90648542919E+02  0.30049334497E+03  0.32953158791E+03  0.00000000000E+00 0. -1.
         -2    1    6    6    0  503  0.15406912172E+03 -0.10173004093E+03  0.21379339748E+03  0.28247816252E+03  0.00000000000E+00 0.  1.
<mgrwt>
<rscale>  0 0.12143412E+04</rscale>
<asrwt>0</asrwt>
<pdfrwt beam="1">  1        1 0.28145472E-01 0.12143412E+04</pdfrwt>
<pdfrwt beam="2">  1       -2 0.31001753E+00 0.12143412E+04</pdfrwt>
<totfact> 0.40103258E+00</totfact>
</mgrwt>
</event>
<event>
12    5  0.5029243E-008  0.1524778E+04  0.7818608E-02  0.8868141E-01
          3   -1    0    0  501    0  0.00000000000E+00  0.00000000000E+00  0.15935777446E+04  0.15935777446E+04  0.00000000000E+00 0. -1.
         -4   -1    0    0    0  501 -0.00000000000E+00 -0.00000000000E+00 -0.36473722943E+03  0.36473722943E+03  0.00000000000E+00 0.  1.
        -24    2    1    2    0    0 -0.26248564424E+03  0.21172619329E+03 -0.66767997340E+02  0.35299142526E+03  0.80114208978E+02 0.  0.
        254    2    1    2    0    0  0.26248564424E+03 -0.21172619329E+03  0.12956085125E+04  0.16053235487E+04  0.88585302627E+03 0.  0.
         23    2    4    4    0    0 -0.42417454595E+02 -0.29471043648E+03  0.12312040559E+04  0.12700597202E+04  0.92383892380E+02 0.  0.
         23    2    4    4    0    0  0.30490309883E+03  0.82984243186E+02  0.64404456518E+02  0.33526382856E+03  0.91660331816E+02 0.  0.
          3    1    3    3  502    0 -0.39510583155E+02  0.59339489472E+00 -0.90809026661E+01  0.40545050154E+02  0.00000000000E+00 0. -1.
         -4    1    3    3    0  502 -0.22297506108E+03  0.21113279840E+03 -0.57687094674E+02  0.31244637510E+03  0.00000000000E+00 0.  1.
         13    1    5    5    0    0 -0.30083871546E+02 -0.29740320775E+03  0.11896890356E+04  0.12266677254E+04  0.00000000000E+00 0.  1.
        -13    1    5    5    0    0 -0.12333583050E+02  0.26927712738E+01  0.41515020379E+02  0.43391994712E+02  0.00000000000E+00 0. -1.
          1    1    6    6  503    0  0.18432384015E+03  0.85263851325E+02  0.69235118168E+02  0.21456631604E+03  0.00000000000E+00 0. -1.
         -1    1    6    6    0  503  0.12057925868E+03 -0.22796081395E+01 -0.48306616506E+01  0.12069751252E+03  0.00000000000E+00 0.  1.
<mgrwt>
<rscale>  0 0.15247782E+04</rscale>
<asrwt>0</asrwt>
<pdfrwt beam="1">  1        3 0.24516580E+00 0.15247782E+04</pdfrwt>
<pdfrwt beam="2">  1       -4 0.56113421E-01 0.15247782E+04</pdfrwt>
<totfact> 0.52804406E-01</totfact>
</mgrwt>
</event>
<event>
12    5  0.5029243E-008  0.1313221E+04  0.7818608E-02  0.9019146E-01
         -2   -1    0    0    0  501 -0.00000000000E+00  0.00000000000E+00  0.15345462362E+03  0.15345462362E+03  0.00000000000E+00 0.  1.
          1   -1    0    0  501    0  0.00000000000E+00 -0.00000000000E+00 -0.28095449165E+04  0.28095449165E+04  0.00000000000E+00 0. -1.
        -24    2    1    2    0    0 -0.24393773271E+03  0.17615558923E+02 -0.17727841398E+03  0.31184678537E+03  0.77491006746E+02 0.  0.
        254    2    1    2    0    0  0.24393773271E+03 -0.17615558923E+02 -0.24788118789E+04  0.26511527548E+04  0.90790234754E+03 0.  0.
         23    2    4    4    0    0 -0.18542094752E+03  0.76326376231E+02 -0.19284909152E+04  0.19410397389E+04  0.91386072267E+02 0.  0.
         23    2    4    4    0    0  0.42935868024E+03 -0.93941935153E+02 -0.55032096370E+03  0.71011301592E+03  0.90737912798E+02 0.  0.
          1    1    3    3  502    0 -0.17309888471E+02  0.12857385642E+02 -0.43721060821E+02  0.48749110389E+02  0.00000000000E+00 0. -1.
         -2    1    3    3    0  502 -0.22662784424E+03  0.47581732804E+01 -0.13355735316E+03  0.26309767498E+03  0.00000000000E+00 0.  1.
         13    1    5    5    0    0 -0.18780312356E+03  0.72347802243E+02 -0.19242800518E+04  0.19347759393E+04  0.00000000000E+00 0. -1.
        -13    1    5    5    0    0  0.23821760398E+01  0.39785739880E+01 -0.42108634705E+01  0.62637995522E+01  0.00000000000E+00 0.  1.
          2    1    6    6  503    0  0.52206108163E+02 -0.36336976894E+02 -0.11372236987E+03  0.13030207607E+03  0.00000000000E+00 0.  1.
         -2    1    6    6    0  503  0.37715257207E+03 -0.57604958259E+02 -0.43659859383E+03  0.57981093985E+03  0.00000000000E+00 0. -1.
<mgrwt>
<rscale>  0 0.13132215E+04</rscale>
<asrwt>0</asrwt>
<pdfrwt beam="1">  1        1 0.43223768E+00 0.13132215E+04</pdfrwt>
<pdfrwt beam="2">  1       -2 0.23608404E-01 0.13132215E+04</pdfrwt>
<totfact> 0.11335252E+01</totfact>
</mgrwt>
</event>
<event>
12    5  0.5029243E-008  0.1200508E+04  0.7818608E-02  0.9112412E-01
         -2   -1    0    0    0  501 -0.00000000000E+00  0.00000000000E+00  0.16324117515E+03  0.16324117515E+03  0.00000000000E+00 0.  1.
          1   -1    0    0  501    0  0.00000000000E+00 -0.00000000000E+00 -0.22071917327E+04  0.22071917327E+04  0.00000000000E+00 0. -1.
        -24    2    1    2    0    0  0.34481282338E+02  0.20626370024E+03 -0.72791323035E+03  0.76187639502E+03  0.82851056153E+02 0.  0.
        254    2    1    2    0    0 -0.34481282338E+02 -0.20626370024E+03 -0.13160373272E+04  0.16085565128E+04  0.90098065212E+03 0.  0.
         23    2    4    4    0    0  0.56705230080E+02 -0.27280072319E+03 -0.14068538394E+04  0.14369546480E+04  0.89248065440E+02 0.  0.
         23    2    4    4    0    0 -0.91186512418E+02  0.66537022949E+02  0.90816512243E+02  0.17160186482E+03  0.91964154117E+02 0.  0.
          3    1    3    3  502    0 -0.21559522742E+02  0.12053713193E+03 -0.40589327331E+03  0.42396151065E+03  0.00000000000E+00 0. -1.
         -4    1    3    3    0  502  0.56040805080E+02  0.85726568316E+02 -0.32201995704E+03  0.33791488438E+03  0.00000000000E+00 0.  1.
         13    1    5    5    0    0  0.26561693028E+02 -0.24413693077E+03 -0.12833177522E+04  0.13066035426E+04  0.00000000000E+00 0. -1.
        -13    1    5    5    0    0  0.30143537052E+02 -0.28663792422E+02 -0.12353608725E+03  0.13035110538E+03  0.00000000000E+00 0.  1.
          1    1    6    6  503    0 -0.85502991840E+02  0.77306339622E+02  0.10284899110E+03  0.15448283636E+03  0.00000000000E+00 0. -1.
         -1    1    6    6    0  503 -0.56835205775E+01 -0.10769316673E+02 -0.12032478859E+02  0.17119028455E+02  0.00000000000E+00 0.  1.
<mgrwt>
<rscale>  0 0.12005075E+04</rscale>
<asrwt>0</asrwt>
<pdfrwt beam="1">  1        1 0.33956794E+00 0.12005075E+04</pdfrwt>
<pdfrwt beam="2">  1       -2 0.25114029E-01 0.12005075E+04</pdfrwt>
<totfact> 0.26720738E+01</totfact>
</mgrwt>
</event>
<event>
12    5  0.5029243E-008  0.1490856E+04  0.7818608E-02  0.8890556E-01
         -2   -1    0    0    0  501 -0.00000000000E+00  0.00000000000E+00  0.10805200443E+04  0.10805200443E+04  0.00000000000E+00 0.  1.
          1   -1    0    0  501    0  0.00000000000E+00 -0.00000000000E+00 -0.51425519514E+03  0.51425519514E+03  0.00000000000E+00 0. -1.
        -24    2    1    2    0    0 -0.48931319132E+03 -0.11259705364E+03  0.24964981201E+03  0.56649541564E+03  0.80539006821E+02 0.  0.
        254    2    1    2    0    0  0.48931319132E+03  0.11259705364E+03  0.31661503718E+03  0.10282798238E+04  0.83964803258E+03 0.  0.
         23    2    4    4    0    0 -0.15859307103E+03  0.34227415544E+02 -0.13447997562E+03  0.22975647032E+03  0.91541759090E+02 0.  0.
         23    2    4    4    0    0  0.64790626235E+03  0.78369638096E+02  0.45109501280E+03  0.79852335350E+03  0.90711137903E+02 0.  0.
          1    1    3    3  502    0 -0.34930864038E+03 -0.85445493545E+02  0.21762481462E+03  0.42033084416E+03  0.00000000000E+00 0. -1.
         -2    1    3    3    0  502 -0.14000455094E+03 -0.27151560096E+02  0.32024997388E+02  0.14616457149E+03  0.00000000000E+00 0.  1.
         13    1    5    5    0    0 -0.95863147854E-01  0.83860658420E+00  0.11604576968E+02  0.11635233446E+02  0.00000000000E+00 0. -1.
        -13    1    5    5    0    0 -0.15849720789E+03  0.33388808960E+02 -0.14608455259E+03  0.21812123687E+03  0.00000000000E+00 0.  1.
          4    1    6    6  503    0  0.22474066352E+03  0.26811357306E+02  0.21012331257E+03  0.30883494169E+03  0.00000000000E+00 0. -1.
         -4    1    6    6    0  503  0.42316559883E+03  0.51558280791E+02  0.24097170022E+03  0.48968841181E+03  0.00000000000E+00 0.  1.
<mgrwt>
<rscale>  0 0.14908562E+04</rscale>
<asrwt>0</asrwt>
<pdfrwt beam="1">  1        1 0.79116184E-01 0.14908562E+04</pdfrwt>
<pdfrwt beam="2">  1       -2 0.16623385E+00 0.14908562E+04</pdfrwt>
<totfact> 0.81784075E+00</totfact>
</mgrwt>
</event>
<event>
12    5  0.5029243E-008  0.1125189E+04  0.7818608E-02  0.9180983E-01
         -2   -1    0    0    0  501 -0.00000000000E+00  0.00000000000E+00  0.11657412311E+03  0.11657412311E+03  0.00000000000E+00 0.  1.
          1   -1    0    0  501    0  0.00000000000E+00 -0.00000000000E+00 -0.27151200519E+04  0.27151200519E+04  0.00000000000E+00 0. -1.
        -24    2    1    2    0    0 -0.47885542596E+02 -0.65976838986E+02 -0.88256709989E+03  0.88993798249E+03  0.80118402316E+02 0.  0.
        254    2    1    2    0    0  0.47885542596E+02  0.65976838986E+02 -0.17159788289E+04  0.19417561926E+04  0.90508994112E+03 0.  0.
         23    2    4    4    0    0 -0.13408871141E+03 -0.35392327037E+03 -0.11090483413E+04  0.11754176558E+04  0.91525833463E+02 0.  0.
         23    2    4    4    0    0  0.18197425400E+03  0.41990010935E+03 -0.60693048759E+03  0.76633853680E+03  0.97362237369E+02 0.  0.
          1    1    3    3  502    0 -0.56691750622E+02 -0.20033646621E+02 -0.64585534408E+03  0.64864815352E+03  0.00000000000E+00 0. -1.
         -2    1    3    3    0  502  0.88062080266E+01 -0.45943192365E+02 -0.23671175581E+03  0.24128982897E+03  0.00000000000E+00 0.  1.
         13    1    5    5    0    0 -0.37649964036E+02 -0.16379935340E+03 -0.37297399361E+03  0.40909332416E+03  0.00000000000E+00 0.  1.
        -13    1    5    5    0    0 -0.96438747370E+02 -0.19012391696E+03 -0.73607434774E+03  0.76632433160E+03  0.00000000000E+00 0. -1.
          4    1    6    6  503    0  0.13296782199E+03  0.31557180171E+03 -0.37813966035E+03  0.51015253253E+03  0.00000000000E+00 0. -1.
         -4    1    6    6    0  503  0.49006432008E+02  0.10432830765E+03 -0.22879082724E+03  0.25618600427E+03  0.00000000000E+00 0.  1.
<mgrwt>
<rscale>  0 0.11251893E+04</rscale>
<asrwt>0</asrwt>
<pdfrwt beam="1">  1        1 0.41771077E+00 0.11251893E+04</pdfrwt>
<pdfrwt beam="2">  1       -2 0.17934481E-01 0.11251893E+04</pdfrwt>
<totfact> 0.21868839E+01</totfact>
</mgrwt>
</event>
<event>
12    5  0.5029243E-008  0.1736589E+04  0.7818608E-02  0.8740767E-01
          1   -1    0    0  501    0  0.00000000000E+00  0.00000000000E+00  0.17502555051E+04  0.17502555051E+04  0.00000000000E+00 0. -1.
         -2   -1    0    0    0  501 -0.00000000000E+00 -0.00000000000E+00 -0.43075714930E+03  0.43075714930E+03  0.00000000000E+00 0.  1.
        -24    2    1    2    0    0 -0.83805873318E+02  0.55484087095E+03  0.69824688623E+03  0.89928184709E+03  0.79292558871E+02 0.  0.
        254    2    1    2    0    0  0.83805873318E+02 -0.55484087095E+03  0.62125146953E+03  0.12817308073E+04  0.97057130465E+03 0.  0.
         23    2    4    4    0    0 -0.23072420832E+03 -0.25402550114E+03  0.74012833873E+03  0.82083107842E+03  0.90615042837E+02 0.  0.
         23    2    4    4    0    0  0.31453008164E+03 -0.30081536981E+03 -0.11887686920E+03  0.46089972884E+03  0.94222030566E+02 0.  0.
          1    1    3    3  502    0 -0.62267298115E+02  0.27434126585E+03  0.29536212799E+03  0.40789598332E+03  0.00000000000E+00 0. -1.
         -2    1    3    3    0  502 -0.21538575203E+02  0.28049960510E+03  0.40288475824E+03  0.49138586376E+03  0.00000000000E+00 0.  1.
         13    1    5    5    0    0 -0.23350570656E+03 -0.24802497701E+03  0.73949973241E+03  0.81418742219E+03  0.00000000000E+00 0.  1.
        -13    1    5    5    0    0  0.27814982351E+01 -0.60005241308E+01  0.62860631423E+00  0.66436562354E+01  0.00000000000E+00 0. -1.
          2    1    6    6  503    0  0.29806942160E+03 -0.27709345871E+03 -0.13379391732E+03  0.42840048700E+03  0.00000000000E+00 0.  1.
         -2    1    6    6    0  503  0.16460660038E+02 -0.23721911108E+02  0.14917048123E+02  0.32499241840E+02  0.00000000000E+00 0. -1.
<mgrwt>
<rscale>  0 0.17365887E+04</rscale>
<asrwt>0</asrwt>
<pdfrwt beam="1">  1        1 0.26927007E+00 0.17365887E+04</pdfrwt>
<pdfrwt beam="2">  1       -2 0.66270331E-01 0.17365887E+04</pdfrwt>
<totfact> 0.76800827E+00</totfact>
</mgrwt>
</event>
<event>
12    5  0.5029243E-008  0.2478249E+04  0.7818608E-02  0.8410776E-01
          1   -1    0    0  501    0  0.00000000000E+00  0.00000000000E+00  0.26806009988E+04  0.26806009988E+04  0.00000000000E+00 0. -1.
         -2   -1    0    0    0  501 -0.00000000000E+00 -0.00000000000E+00 -0.57279283529E+03  0.57279283529E+03  0.00000000000E+00 0.  1.
        -24    2    1    2    0    0 -0.25830092156E+03 -0.94519776318E+03  0.14956296320E+04  0.17898121980E+04  0.80009564350E+02 0.  0.
        254    2    1    2    0    0  0.25830092156E+03  0.94519776318E+03  0.61217853156E+03  0.14635816361E+04  0.89843779613E+03 0.  0.
         23    2    4    4    0    0  0.41696864574E+03  0.94459893627E+03  0.71020232900E+03  0.12566030388E+04  0.92378823407E+02 0.  0.
         23    2    4    4    0    0 -0.15866772418E+03  0.59882690935E+00 -0.98023797442E+02  0.20697859735E+03  0.89753382142E+02 0.  0.
          3    1    3    3  502    0 -0.24191531216E+03 -0.77136549900E+03  0.12398191861E+04  0.14800943773E+04  0.00000000000E+00 0. -1.
         -4    1    3    3    0  502 -0.16385609397E+02 -0.17383226418E+03  0.25581044584E+03  0.30971782071E+03  0.00000000000E+00 0.  1.
         13    1    5    5    0    0  0.33436895245E+03  0.66233618764E+03  0.48901037161E+03  0.88860731787E+03  0.00000000000E+00 0. -1.
        -13    1    5    5    0    0  0.82599693286E+02  0.28226274863E+03  0.22119195739E+03  0.36799572091E+03  0.00000000000E+00 0.  1.
          1    1    6    6  503    0 -0.41060700574E+02 -0.12524048405E+02  0.12856236782E+02  0.44812004466E+02  0.00000000000E+00 0. -1.
         -1    1    6    6    0  503 -0.11760702361E+03  0.13122875314E+02 -0.11088003422E+03  0.16216659288E+03  0.00000000000E+00 0.  1.
<mgrwt>
<rscale>  0 0.24782486E+04</rscale>
<asrwt>0</asrwt>
<pdfrwt beam="1">  1        1 0.41240015E+00 0.24782486E+04</pdfrwt>
<pdfrwt beam="2">  1       -2 0.88121976E-01 0.24782486E+04</pdfrwt>
<totfact> 0.87914083E-01</totfact>
</mgrwt>
</event>
<event>
12    5  0.5029243E-008  0.3087153E+04  0.7818608E-02  0.8219273E-01
          1   -1    0    0  501    0  0.00000000000E+00  0.00000000000E+00  0.34496765055E+04  0.34496765055E+04  0.00000000000E+00 0. -1.
         -2   -1    0    0    0  501 -0.00000000000E+00 -0.00000000000E+00 -0.69068150214E+03  0.69068150214E+03  0.00000000000E+00 0.  1.
        -24    2    1    2    0    0 -0.95168271108E+03 -0.65968333031E+03  0.23426417207E+04  0.26143952906E+04  0.78806251309E+02 0.  0.
        254    2    1    2    0    0  0.95168271108E+03  0.65968333031E+03  0.41635328269E+03  0.15259627170E+04  0.90240239302E+03 0.  0.
         23    2    4    4    0    0  0.58008355180E+03  0.77598236935E+03  0.53292808545E+03  0.11095634944E+04  0.92050199102E+02 0.  0.
         23    2    4    4    0    0  0.37159915928E+03 -0.11629903904E+03 -0.11657480275E+03  0.41639922268E+03  0.90483293216E+02 0.  0.
          3    1    3    3  502    0 -0.78641268243E+03 -0.51286746982E+03  0.19311897323E+04  0.21473173335E+04  0.00000000000E+00 0. -1.
         -4    1    3    3    0  502 -0.16527002865E+03 -0.14681586049E+03  0.41145198842E+03  0.46707795713E+03  0.00000000000E+00 0.  1.
         13    1    5    5    0    0  0.24170004900E+03  0.31505591961E+03  0.27015120128E+03  0.48027160828E+03  0.00000000000E+00 0. -1.
        -13    1    5    5    0    0  0.33838350280E+03  0.46092644974E+03  0.26277688417E+03  0.62929188608E+03  0.00000000000E+00 0.  1.
          2    1    6    6  503    0  0.30844747770E+03 -0.77825232837E+02 -0.12537483707E+03  0.34192903231E+03  0.00000000000E+00 0.  1.
         -2    1    6    6    0  503  0.63151681584E+02 -0.38473806200E+02  0.88000343124E+01  0.74470190374E+02  0.00000000000E+00 0. -1.
<mgrwt>
<rscale>  0 0.30871526E+04</rscale>
<asrwt>0</asrwt>
<pdfrwt beam="1">  1        1 0.53071945E+00 0.30871526E+04</pdfrwt>
<pdfrwt beam="2">  1       -2 0.10625869E+00 0.30871526E+04</pdfrwt>
<totfact> 0.14525097E-01</totfact>
</mgrwt>
</event>
<event>
12    5  0.5029243E-008  0.2421190E+04  0.7818608E-02  0.8431613E-01
          1   -1    0    0  501    0  0.00000000000E+00  0.00000000000E+00  0.22095654804E+04  0.22095654804E+04  0.00000000000E+00 0. -1.
         -2   -1    0    0    0  501 -0.00000000000E+00 -0.00000000000E+00 -0.66327071026E+03  0.66327071026E+03  0.00000000000E+00 0.  1.
        -24    2    1    2    0    0 -0.76278010554E+03 -0.54716094916E+03  0.13432968616E+03  0.95155278212E+03  0.78674258095E+02 0.  0.
        254    2    1    2    0    0  0.76278010554E+03  0.54716094916E+03  0.14119650840E+04  0.19212834086E+04  0.90358505073E+03 0.  0.
         23    2    4    4    0    0 -0.13181855937E+03  0.95331883469E+02 -0.55405997338E+00  0.18677077308E+03  0.91753550848E+02 0.  0.
         23    2    4    4    0    0  0.89459866491E+03  0.45182906569E+03  0.14125191440E+04  0.17345126355E+04  0.94167269935E+02 0.  0.
          1    1    3    3  502    0 -0.38853834913E+02 -0.19308464193E+02  0.21873116550E+02  0.48588789906E+02  0.00000000000E+00 0. -1.
         -2    1    3    3    0  502 -0.72392627063E+03 -0.52785248497E+03  0.11245656961E+03  0.90296399222E+03  0.00000000000E+00 0.  1.
         13    1    5    5    0    0 -0.20405237823E+02  0.28441038674E+02 -0.37868600997E+02  0.51568375512E+02  0.00000000000E+00 0.  1.
        -13    1    5    5    0    0 -0.11141332155E+03  0.66890844795E+02  0.37314541024E+02  0.13520239756E+03  0.00000000000E+00 0. -1.
          1    1    6    6  503    0  0.51445955350E+03  0.24437107795E+03  0.72485485408E+03  0.92184619943E+03  0.00000000000E+00 0. -1.
         -1    1    6    6    0  503  0.38013911141E+03  0.20745798775E+03  0.68766428990E+03  0.81266643606E+03  0.00000000000E+00 0.  1.
<mgrwt>
<rscale>  0 0.24211898E+04</rscale>
<asrwt>0</asrwt>
<pdfrwt beam="1">  1        1 0.33993315E+00 0.24211898E+04</pdfrwt>
<pdfrwt beam="2">  1       -2 0.10204165E+00 0.24211898E+04</pdfrwt>
<totfact> 0.13278225E+00</totfact>
</mgrwt>
</event>
<event>
12    5  0.5029243E-008  0.1666350E+04  0.7818608E-02  0.8780792E-01
         -2   -1    0    0    0  501 -0.00000000000E+00  0.00000000000E+00  0.25627364604E+04  0.25627364604E+04  0.00000000000E+00 0.  1.
          1   -1    0    0  501    0  0.00000000000E+00 -0.00000000000E+00 -0.27087489512E+03  0.27087489512E+03  0.00000000000E+00 0. -1.
        -24    2    1    2    0    0 -0.12590953964E+03  0.31682793307E+03  0.16350189700E+04  0.16721804546E+04  0.81653471482E+02 0.  0.
        254    2    1    2    0    0  0.12590953964E+03 -0.31682793307E+03  0.65684259534E+03  0.11614309009E+04  0.89512367366E+03 0.  0.
         23    2    4    4    0    0 -0.20242778904E+03  0.22049443517E+03  0.29557229187E+03  0.42968543165E+03  0.87588724933E+02 0.  0.
         23    2    4    4    0    0  0.32833732868E+03 -0.53732236824E+03  0.36127030346E+03  0.73174546924E+03  0.91730424482E+02 0.  0.
          3    1    3    3  502    0 -0.10541684411E+03  0.15720927936E+03  0.84572890654E+03  0.86665151699E+03  0.00000000000E+00 0. -1.
         -4    1    3    3    0  502 -0.20492695530E+02  0.15961865371E+03  0.78929006341E+03  0.80552893765E+03  0.00000000000E+00 0.  1.
         13    1    5    5    0    0 -0.51823147097E+02  0.11117250893E+03  0.88351991639E+02  0.15116560370E+03  0.00000000000E+00 0. -1.
        -13    1    5    5    0    0 -0.15060464194E+03  0.10932192624E+03  0.20722030023E+03  0.27851982795E+03  0.00000000000E+00 0.  1.
          3    1    6    6  503    0  0.95784579868E+02 -0.21461119517E+03  0.97352062455E+02  0.25438175032E+03  0.00000000000E+00 0. -1.
         -3    1    6    6    0  503  0.23255274881E+03 -0.32271117307E+03  0.26391824101E+03  0.47736371892E+03  0.00000000000E+00 0.  1.
<mgrwt>
<rscale>  0 0.16663505E+04</rscale>
<asrwt>0</asrwt>
<pdfrwt beam="1">  1        1 0.41673062E-01 0.16663505E+04</pdfrwt>
<pdfrwt beam="2">  1       -2 0.39426713E+00 0.16663505E+04</pdfrwt>
<totfact> 0.67990864E-01</totfact>
</mgrwt>
</event>
<event>
12    5  0.5029243E-008  0.1822065E+04  0.7818608E-02  0.8694653E-01
         -2   -1    0    0    0  501 -0.00000000000E+00  0.00000000000E+00  0.30371668789E+03  0.30371668789E+03  0.00000000000E+00 0.  1.
          1   -1    0    0  501    0  0.00000000000E+00 -0.00000000000E+00 -0.27327439578E+04  0.27327439578E+04  0.00000000000E+00 0. -1.
        -24    2    1    2    0    0 -0.48334028439E+03 -0.11778029050E+03 -0.17420269908E+04  0.18134751540E+04  0.80895426595E+02 0.  0.
        254    2    1    2    0    0  0.48334028439E+03  0.11778029050E+03 -0.68700027907E+03  0.12229854917E+04  0.88104148713E+03 0.  0.
         23    2    4    4    0    0  0.82183369416E+02 -0.33073638722E+03 -0.44377561463E+03  0.56746557465E+03  0.94550083172E+02 0.  0.
         23    2    4    4    0    0  0.40115691498E+03  0.44851667772E+03 -0.24322466444E+03  0.65551991702E+03  0.91945873147E+02 0.  0.
          3    1    3    3  502    0 -0.47274181596E+03 -0.99825893274E+02 -0.16710044697E+04  0.17394556537E+04  0.00000000000E+00 0. -1.
         -4    1    3    3    0  502 -0.10598468434E+02 -0.17954397226E+02 -0.71022521136E+02  0.74019500278E+02  0.00000000000E+00 0.  1.
         13    1    5    5    0    0  0.89087544042E+02 -0.31473621947E+03 -0.38020098758E+03  0.50154587956E+03  0.00000000000E+00 0.  1.
        -13    1    5    5    0    0 -0.69041746256E+01 -0.16000167754E+02 -0.63574627057E+02  0.65919695091E+02  0.00000000000E+00 0. -1.
          1    1    6    6  503    0  0.11091154438E+03  0.10988167978E+03 -0.22001154676E+02  0.15766865584E+03  0.00000000000E+00 0. -1.
         -1    1    6    6    0  503  0.29024537060E+03  0.33863499794E+03 -0.22122350976E+03  0.49785126118E+03  0.00000000000E+00 0.  1.
<mgrwt>
<rscale>  0 0.18220647E+04</rscale>
<asrwt>0</asrwt>
<pdfrwt beam="1">  1        1 0.42042214E+00 0.18220647E+04</pdfrwt>
<pdfrwt beam="2">  1       -2 0.46725645E-01 0.18220647E+04</pdfrwt>
<totfact> 0.33479259E+00</totfact>
</mgrwt>
</event>
<event>
12    5  0.5029243E-008  0.3262796E+04  0.7818608E-02  0.8172427E-01
         -2   -1    0    0    0  501 -0.00000000000E+00  0.00000000000E+00  0.13542965761E+04  0.13542965761E+04  0.00000000000E+00 0.  1.
          1   -1    0    0  501    0  0.00000000000E+00 -0.00000000000E+00 -0.19651972507E+04  0.19651972507E+04  0.00000000000E+00 0. -1.
        -24    2    1    2    0    0  0.70657633184E+03 -0.10323164065E+04 -0.11343407794E+04  0.16904967056E+04  0.78248526140E+02 0.  0.
        254    2    1    2    0    0 -0.70657633184E+03  0.10323164065E+04  0.52344010486E+03  0.16289971211E+04  0.90261553357E+03 0.  0.
         23    2    4    4    0    0 -0.68643891707E+03  0.41719915802E+03 -0.11965804262E+02  0.80840543788E+03  0.90125729953E+02 0.  0.
         23    2    4    4    0    0 -0.20137414769E+02  0.61511724848E+03  0.53540590912E+03  0.82059168325E+03  0.89086914048E+02 0.  0.
          1    1    3    3  502    0  0.65015090518E+03 -0.97679535508E+03 -0.10465798214E+04  0.15723087126E+04  0.00000000000E+00 0. -1.
         -2    1    3    3    0  502  0.56425426664E+02 -0.55521051421E+02 -0.87760958074E+02  0.11818799299E+03  0.00000000000E+00 0.  1.
         13    1    5    5    0    0 -0.27546900001E+03  0.21850542193E+03 -0.14721622992E+02  0.35191549492E+03  0.00000000000E+00 0. -1.
        -13    1    5    5    0    0 -0.41096991706E+03  0.19869373610E+03  0.27558187301E+01  0.45648994297E+03  0.00000000000E+00 0.  1.
          4    1    6    6  503    0  0.74950155116E+01  0.49809711734E+03  0.46385289927E+03  0.68067350890E+03  0.00000000000E+00 0. -1.
         -4    1    6    6    0  503 -0.27632430281E+02  0.11702013114E+03  0.71553009844E+02  0.13991817435E+03  0.00000000000E+00 0.  1.
<mgrwt>
<rscale>  0 0.32627963E+04</rscale>
<asrwt>0</asrwt>
<pdfrwt beam="1">  1        1 0.30233804E+00 0.32627963E+04</pdfrwt>
<pdfrwt beam="2">  1       -2 0.20835332E+00 0.32627963E+04</pdfrwt>
<totfact> 0.27015638E-01</totfact>
</mgrwt>
</event>
<event>
12    5  0.5029243E-008  0.1540586E+04  0.7818608E-02  0.8857903E-01
         -2   -1    0    0    0  501 -0.00000000000E+00  0.00000000000E+00  0.61199327066E+03  0.61199327066E+03  0.00000000000E+00 0.  1.
          1   -1    0    0  501    0  0.00000000000E+00 -0.00000000000E+00 -0.96953918130E+03  0.96953918130E+03  0.00000000000E+00 0. -1.
        -24    2    1    2    0    0 -0.42947325877E+03 -0.13587689359E+03 -0.34972538253E+03  0.57614712506E+03  0.82023510708E+02 0.  0.
        254    2    1    2    0    0  0.42947325877E+03  0.13587689359E+03 -0.78205281114E+01  0.10053853269E+04  0.89879290422E+03 0.  0.
         23    2    4    4    0    0  0.41372530846E+03  0.41180002039E+03  0.22532557201E+03  0.63258652862E+03  0.92985026460E+02 0.  0.
         23    2    4    4    0    0  0.15747950318E+02 -0.27592312679E+03 -0.23314610012E+03  0.37279879828E+03  0.90775933831E+02 0.  0.
          3    1    3    3  502    0 -0.15727874319E+03 -0.72923382930E+02 -0.17662020614E+03  0.24748559565E+03  0.00000000000E+00 0. -1.
         -4    1    3    3    0  502 -0.27219451558E+03 -0.62953510665E+02 -0.17310517640E+03  0.32866152941E+03  0.00000000000E+00 0.  1.
         13    1    5    5    0    0  0.34007428408E+03  0.30515355648E+03  0.14185510219E+03  0.47842667332E+03  0.00000000000E+00 0.  1.
        -13    1    5    5    0    0  0.73651024374E+02  0.10664646390E+03  0.83470469819E+02  0.15415985530E+03  0.00000000000E+00 0. -1.
          1    1    6    6  503    0  0.23556330281E+02 -0.22574317758E+02 -0.75800410220E+01  0.33495634648E+02  0.00000000000E+00 0. -1.
         -1    1    6    6    0  503 -0.78083799632E+01 -0.25334880904E+03 -0.22556605909E+03  0.33930316364E+03  0.00000000000E+00 0.  1.
<mgrwt>
<rscale>  0 0.15405862E+04</rscale>
<asrwt>0</asrwt>
<pdfrwt beam="1">  1        1 0.14915987E+00 0.15405862E+04</pdfrwt>
<pdfrwt beam="2">  1       -2 0.94152812E-01 0.15405862E+04</pdfrwt>
<totfact> 0.12863129E+01</totfact>
</mgrwt>
</event>
<event>
12    5  0.5029243E-008  0.1732924E+04  0.7818608E-02  0.8742806E-01
         -2   -1    0    0    0  501 -0.00000000000E+00  0.00000000000E+00  0.36317546573E+03  0.36317546573E+03  0.00000000000E+00 0.  1.
          1   -1    0    0  501    0  0.00000000000E+00 -0.00000000000E+00 -0.20671993574E+04  0.20671993574E+04  0.00000000000E+00 0. -1.
        -24    2    1    2    0    0  0.88871122553E+02  0.20846549182E+02  0.24719164576E+03  0.27551136617E+03  0.80437230924E+02 0.  0.
        254    2    1    2    0    0 -0.88871122553E+02 -0.20846549182E+02 -0.19512155375E+04  0.21548634570E+04  0.90986910577E+03 0.  0.
         23    2    4    4    0    0  0.31061287454E+02  0.30841929897E+03 -0.23100053509E+03  0.39695877045E+03  0.90154038592E+02 0.  0.
         23    2    4    4    0    0 -0.11993241001E+03 -0.32926584815E+03 -0.17202150024E+04  0.17579046865E+04  0.91046421476E+02 0.  0.
          3    1    3    3  502    0  0.20596744421E+02  0.28399257089E+02  0.25360823088E+02  0.43288740241E+02  0.00000000000E+00 0. -1.
         -4    1    3    3    0  502  0.68274378132E+02 -0.75527079072E+01  0.22183082267E+03  0.23222262593E+03  0.00000000000E+00 0.  1.
         13    1    5    5    0    0  0.81316895765E+01  0.10488533628E+03 -0.28632243937E+02  0.10902689363E+03  0.00000000000E+00 0.  1.
        -13    1    5    5    0    0  0.22929597878E+02  0.20353396269E+03 -0.20236829116E+03  0.28793187682E+03  0.00000000000E+00 0. -1.
          1    1    6    6  503    0 -0.70468514214E+01 -0.10863067226E+03 -0.39562384186E+03  0.41032731485E+03  0.00000000000E+00 0. -1.
         -1    1    6    6    0  503 -0.11288555859E+03 -0.22063517589E+03 -0.13245911605E+04  0.13475773717E+04  0.00000000000E+00 0.  1.
<mgrwt>
<rscale>  0 0.17329236E+04</rscale>
<asrwt>0</asrwt>
<pdfrwt beam="1">  1        1 0.31803067E+00 0.17329236E+04</pdfrwt>
<pdfrwt beam="2">  1       -2 0.55873148E-01 0.17329236E+04</pdfrwt>
<totfact> 0.67274149E+00</totfact>
</mgrwt>
</event>
<event>
12    5  0.5029243E-008  0.1661374E+04  0.7818608E-02  0.8783706E-01
         -2   -1    0    0    0  501 -0.00000000000E+00  0.00000000000E+00  0.60151276816E+03  0.60151276816E+03  0.00000000000E+00 0.  1.
          1   -1    0    0  501    0  0.00000000000E+00 -0.00000000000E+00 -0.11471758611E+04  0.11471758611E+04  0.00000000000E+00 0. -1.
        -24    2    1    2    0    0  0.71670920565E+01 -0.52729985086E+03  0.72120583076E+02  0.53892935902E+03  0.84539786968E+02 0.  0.
        254    2    1    2    0    0 -0.71670920565E+01  0.52729985086E+03 -0.61778367603E+03  0.12097592703E+04  0.89652904118E+03 0.  0.
         23    2    4    4    0    0 -0.32711555220E+03  0.33051709529E+02  0.13837668964E+02  0.34162389907E+03  0.91751879224E+02 0.  0.
         23    2    4    4    0    0  0.31994846014E+03  0.49424814133E+03 -0.63162134500E+03  0.86813537119E+03  0.89806775384E+02 0.  0.
          3    1    3    3  502    0 -0.29579999878E+02 -0.16718176556E+03 -0.24573938664E+00  0.16977861913E+03  0.00000000000E+00 0. -1.
         -4    1    3    3    0  502  0.36747091934E+02 -0.36011808531E+03  0.72366322463E+02  0.36915073988E+03  0.00000000000E+00 0.  1.
         13    1    5    5    0    0 -0.75967579020E+02  0.39767602968E+02 -0.20191180624E+02  0.88092105679E+02  0.00000000000E+00 0.  1.
        -13    1    5    5    0    0 -0.25114797318E+03 -0.67158934394E+01  0.34028849587E+02  0.25353179339E+03  0.00000000000E+00 0. -1.
          2    1    6    6  503    0  0.18026280819E+03  0.35419934034E+03 -0.43551084681E+03  0.58959439482E+03  0.00000000000E+00 0. -1.
         -2    1    6    6    0  503  0.13968565195E+03  0.14004880099E+03 -0.19611049819E+03  0.27854097637E+03  0.00000000000E+00 0.  1.
<mgrwt>
<rscale>  0 0.16613740E+04</rscale>
<asrwt>0</asrwt>
<pdfrwt beam="1">  1        1 0.17648859E+00 0.16613740E+04</pdfrwt>
<pdfrwt beam="2">  1       -2 0.92540426E-01 0.16613740E+04</pdfrwt>
<totfact> 0.96964238E+00</totfact>
</mgrwt>
</event>
<event>
12    5  0.5029243E-008  0.1043694E+04  0.7818608E-02  0.9261879E-01
          1   -1    0    0  501    0  0.00000000000E+00  0.00000000000E+00  0.46565944020E+03  0.46565944020E+03  0.00000000000E+00 0. -1.
         -2   -1    0    0    0  501 -0.00000000000E+00 -0.00000000000E+00 -0.58481375944E+03  0.58481375944E+03  0.00000000000E+00 0.  1.
        -24    2    1    2    0    0  0.21845252352E+03 -0.25358066811E+02  0.67643525114E+02  0.24345689108E+03  0.79568051002E+02 0.  0.
        254    2    1    2    0    0 -0.21845252352E+03  0.25358066811E+02 -0.18679784436E+03  0.80701630856E+03  0.75366925839E+03 0.  0.
         23    2    4    4    0    0  0.10432568893E+03 -0.27128469592E+03  0.35221815380E+02  0.30707127534E+03  0.92590260032E+02 0.  0.
         23    2    4    4    0    0 -0.32277821244E+03  0.29664276273E+03 -0.22201965974E+03  0.49994503321E+03  0.92030450504E+02 0.  0.
          1    1    3    3  502    0  0.26726447417E+02  0.15490161897E+02  0.31508100552E+02  0.44124919349E+02  0.00000000000E+00 0. -1.
         -2    1    3    3    0  502  0.19172607610E+03 -0.40848228708E+02  0.36135424562E+02  0.19933197173E+03  0.00000000000E+00 0.  1.
         13    1    5    5    0    0  0.42268596014E+02 -0.21667946256E+03  0.11451367824E+02  0.22106052911E+03  0.00000000000E+00 0.  1.
        -13    1    5    5    0    0  0.62057092914E+02 -0.54605233357E+02  0.23770447556E+02  0.86010746235E+02  0.00000000000E+00 0. -1.
          3    1    6    6  503    0 -0.31763974021E+03  0.29165161124E+03 -0.19731820891E+03  0.47422583488E+03  0.00000000000E+00 0.  1.
         -3    1    6    6    0  503 -0.51384722331E+01  0.49911514909E+01 -0.24701450830E+02  0.25719198339E+02  0.00000000000E+00 0. -1.
<mgrwt>
<rscale>  0 0.10436935E+04</rscale>
<asrwt>0</asrwt>
<pdfrwt beam="1">  1        1 0.71639915E-01 0.10436935E+04</pdfrwt>
<pdfrwt beam="2">  1       -2 0.89971347E-01 0.10436935E+04</pdfrwt>
<totfact> 0.45210850E+01</totfact>
</mgrwt>
</event>
<event>
12    5  0.5029243E-008  0.1329128E+04  0.7818608E-02  0.9006780E-01
         -2   -1    0    0    0  501 -0.00000000000E+00  0.00000000000E+00  0.16145203358E+04  0.16145203358E+04  0.00000000000E+00 0.  1.
          1   -1    0    0  501    0  0.00000000000E+00 -0.00000000000E+00 -0.27354583586E+03  0.27354583586E+03  0.00000000000E+00 0. -1.
        -24    2    1    2    0    0  0.19840329756E+03  0.17872004108E+03  0.68523501699E+03  0.74324796916E+03  0.10754437955E+03 0.  0.
        254    2    1    2    0    0 -0.19840329756E+03 -0.17872004108E+03  0.65573948294E+03  0.11448182025E+04  0.89961643255E+03 0.  0.
         23    2    4    4    0    0  0.91993614921E+02 -0.46458938915E+03  0.18917291638E+03  0.51808892088E+03  0.91233831202E+02 0.  0.
         23    2    4    4    0    0 -0.29039691248E+03  0.28586934807E+03  0.46656656656E+03  0.62672928161E+03  0.95150304517E+02 0.  0.
          3    1    3    3  502    0  0.10654886177E+02  0.27592732165E+02  0.19212767644E+03  0.19439117656E+03  0.00000000000E+00 0. -1.
         -4    1    3    3    0  502  0.18774841138E+03  0.15112730891E+03  0.49310734055E+03  0.54885679260E+03  0.00000000000E+00 0.  1.
         13    1    5    5    0    0  0.64127616923E+02 -0.27591731828E+03  0.15945967464E+03  0.32506938585E+03  0.00000000000E+00 0.  1.
        -13    1    5    5    0    0  0.27865997997E+02 -0.18867207087E+03  0.29713241732E+02  0.19301953503E+03  0.00000000000E+00 0. -1.
          1    1    6    6  503    0 -0.19885804329E+03  0.13033195713E+03  0.25517679955E+03  0.34877806620E+03  0.00000000000E+00 0. -1.
         -1    1    6    6    0  503 -0.91538869188E+02  0.15553739094E+03  0.21138976701E+03  0.27795121541E+03  0.00000000000E+00 0.  1.
<mgrwt>
<rscale>  0 0.13291280E+04</rscale>
<asrwt>0</asrwt>
<pdfrwt beam="1">  1        1 0.42083976E-01 0.13291280E+04</pdfrwt>
<pdfrwt beam="2">  1       -2 0.24838774E+00 0.13291280E+04</pdfrwt>
<totfact> 0.55716275E+00</totfact>
</mgrwt>
</event>
<event>
12    5  0.5029243E-008  0.1400793E+04  0.7818608E-02  0.8953245E-01
         -2   -1    0    0    0  501 -0.00000000000E+00  0.00000000000E+00  0.10736561151E+04  0.10736561151E+04  0.00000000000E+00 0.  1.
          1   -1    0    0  501    0  0.00000000000E+00 -0.00000000000E+00 -0.45690173194E+03  0.45690173194E+03  0.00000000000E+00 0. -1.
        -24    2    1    2    0    0 -0.34685064910E+03 -0.27793354982E+01  0.39727944304E+03  0.53389794262E+03  0.83084052539E+02 0.  0.
        254    2    1    2    0    0  0.34685064910E+03  0.27793354982E+01  0.21947494011E+03  0.99665990440E+03  0.90821176947E+03 0.  0.
         23    2    4    4    0    0  0.59173128357E+03  0.98693912189E+02 -0.49507175608E+02  0.60979093622E+03  0.97507052051E+02 0.  0.
         23    2    4    4    0    0 -0.24488063447E+03 -0.95914576691E+02  0.26898211572E+03  0.38686896818E+03  0.90277842295E+02 0.  0.
          1    1    3    3  502    0 -0.51171046933E+01  0.12266186171E+02  0.25105193602E+02  0.28406246310E+02  0.00000000000E+00 0. -1.
         -2    1    3    3    0  502 -0.34173354441E+03 -0.15045521669E+02  0.37217424943E+03  0.50549169631E+03  0.00000000000E+00 0.  1.
         13    1    5    5    0    0  0.16351773894E+03  0.50630022481E+00  0.20934335788E+02  0.16485312768E+03  0.00000000000E+00 0.  1.
        -13    1    5    5    0    0  0.42821354462E+03  0.98187611964E+02 -0.70441511396E+02  0.44493780854E+03  0.00000000000E+00 0. -1.
          2    1    6    6  503    0 -0.16203697307E+03 -0.95683921324E+02  0.22416390613E+03  0.29267874924E+03  0.00000000000E+00 0. -1.
         -2    1    6    6    0  503 -0.82843661392E+02 -0.23065536680E+00  0.44818209586E+02  0.94190218947E+02  0.00000000000E+00 0.  1.
<mgrwt>
<rscale>  0 0.14007931E+04</rscale>
<asrwt>0</asrwt>
<pdfrwt beam="1">  1        1 0.70292574E-01 0.14007931E+04</pdfrwt>
<pdfrwt beam="2">  1       -2 0.16517786E+00 0.14007931E+04</pdfrwt>
<totfact> 0.98583558E+00</totfact>
</mgrwt>
</event>
<event>
12    5  0.5029243E-008  0.1710731E+04  0.7818608E-02  0.8755268E-01
          1   -1    0    0  501    0  0.00000000000E+00  0.00000000000E+00  0.96036061577E+03  0.96036061577E+03  0.00000000000E+00 0. -1.
         -2   -1    0    0    0  501 -0.00000000000E+00 -0.00000000000E+00 -0.76184911328E+03  0.76184911328E+03  0.00000000000E+00 0.  1.
        -24    2    1    2    0    0 -0.25315186746E+03 -0.56368258553E+03  0.65609810698E+02  0.62669826661E+03  0.81376562293E+02 0.  0.
        254    2    1    2    0    0  0.25315186746E+03  0.56368258553E+03  0.13290169179E+03  0.10955114624E+04  0.89479527235E+03 0.  0.
         23    2    4    4    0    0  0.12928214993E+03  0.60564846008E+03 -0.25517721424E+03  0.67594300227E+03  0.90882342379E+02 0.  0.
         23    2    4    4    0    0  0.12386971753E+03 -0.41965874558E+02  0.38807890602E+03  0.41956846017E+03  0.91255761000E+02 0.  0.
          1    1    3    3  502    0 -0.15984436409E+03 -0.36093955563E+03  0.81036133874E+02  0.40298193327E+03  0.00000000000E+00 0. -1.
         -2    1    3    3    0  502 -0.93307503378E+02 -0.20274302990E+03 -0.15426323176E+02  0.22371633334E+03  0.00000000000E+00 0.  1.
         13    1    5    5    0    0  0.18818694296E+02  0.30470959485E+03 -0.12930655249E+03  0.33154526834E+03  0.00000000000E+00 0. -1.
        -13    1    5    5    0    0  0.11046345563E+03  0.30093886524E+03 -0.12587066175E+03  0.34439773392E+03  0.00000000000E+00 0.  1.
          1    1    6    6  503    0  0.55190992000E+02  0.21040300085E+02  0.93469141607E+02  0.11056771798E+03  0.00000000000E+00 0. -1.
         -1    1    6    6    0  503  0.68678725534E+02 -0.63006174643E+02  0.29460976442E+03  0.30900074219E+03  0.00000000000E+00 0.  1.
<mgrwt>
<rscale>  0 0.17107307E+04</rscale>
<asrwt>0</asrwt>
<pdfrwt beam="1">  1        1 0.14774779E+00 0.17107307E+04</pdfrwt>
<pdfrwt beam="2">  1       -2 0.11720756E+00 0.17107307E+04</pdfrwt>
<totfact> 0.76270337E+00</totfact>
</mgrwt>
</event>
<event>
12    5  0.5029243E-008  0.1380748E+04  0.7818608E-02  0.8967873E-01
          1   -1    0    0  501    0  0.00000000000E+00  0.00000000000E+00  0.30999818614E+03  0.30999818614E+03  0.00000000000E+00 0. -1.
         -2   -1    0    0    0  501 -0.00000000000E+00 -0.00000000000E+00 -0.15374815313E+04  0.15374815313E+04  0.00000000000E+00 0.  1.
        -24    2    1    2    0    0  0.31979472630E+03  0.13311473979E+03 -0.12303084524E+03  0.37599167807E+03  0.79025009853E+02 0.  0.
        254    2    1    2    0    0 -0.31979472630E+03 -0.13311473979E+03 -0.11044524999E+04  0.14714880394E+04  0.90855573548E+03 0.  0.
         23    2    4    4    0    0 -0.47413062061E+03 -0.12419483918E+03 -0.11751211657E+04  0.12765391883E+04  0.91751520434E+02 0.  0.
         23    2    4    4    0    0  0.15433589431E+03 -0.89199006092E+01  0.70668665821E+02  0.19494885110E+03  0.95456070084E+02 0.  0.
          3    1    3    3  502    0  0.28996057871E+03  0.11199688713E+03 -0.13301202430E+03  0.33810152105E+03  0.00000000000E+00 0. -1.
         -4    1    3    3    0  502  0.29834147593E+02  0.21117852657E+02  0.99811790618E+01  0.37890157019E+02  0.00000000000E+00 0.  1.
         13    1    5    5    0    0 -0.21045147665E+02  0.13294963110E+02 -0.50233510502E+02  0.56062999043E+02  0.00000000000E+00 0. -1.
        -13    1    5    5    0    0 -0.45308547295E+03 -0.13748980229E+03 -0.11248876552E+04  0.12204761892E+04  0.00000000000E+00 0.  1.
          2    1    6    6  503    0  0.32401901784E+02 -0.42336846833E+02  0.34292015807E+02  0.63389543200E+02  0.00000000000E+00 0. -1.
         -2    1    6    6    0  503  0.12193399253E+03  0.33416946224E+02  0.36376650014E+02  0.13155930790E+03  0.00000000000E+00 0.  1.
<mgrwt>
<rscale>  0 0.13807483E+04</rscale>
<asrwt>0</asrwt>
<pdfrwt beam="1">  1        1 0.47692028E-01 0.13807483E+04</pdfrwt>
<pdfrwt beam="2">  1       -2 0.23653563E+00 0.13807483E+04</pdfrwt>
<totfact> 0.55769308E+00</totfact>
</mgrwt>
</event>
<event>
12    5  0.5029243E-008  0.1376827E+04  0.7818608E-02  0.8970765E-01
          1   -1    0    0  501    0  0.00000000000E+00  0.00000000000E+00  0.91603632739E+03  0.91603632739E+03  0.00000000000E+00 0. -1.
         -2   -1    0    0    0  501 -0.00000000000E+00 -0.00000000000E+00 -0.51735172250E+03  0.51735172250E+03  0.00000000000E+00 0.  1.
        -24    2    1    2    0    0  0.30568269148E+03 -0.21434353588E+03  0.24441291435E+03  0.45344328168E+03  0.80548604954E+02 0.  0.
        254    2    1    2    0    0 -0.30568269148E+03  0.21434353588E+03  0.15427169055E+03  0.97994476820E+03  0.89280845369E+03 0.  0.
         23    2    4    4    0    0 -0.54069177539E+03  0.57069155101E+02  0.32270050787E+03  0.63859640468E+03  0.89806825198E+02 0.  0.
         23    2    4    4    0    0  0.23500908391E+03  0.15727438078E+03 -0.16842881733E+03  0.34134836352E+03  0.90476175883E+02 0.  0.
          1    1    3    3  502    0  0.30840260598E+03 -0.20055765428E+03  0.23569535017E+03  0.43690712761E+03  0.00000000000E+00 0. -1.
         -2    1    3    3    0  502 -0.27199144991E+01 -0.13785881597E+02  0.87175641792E+01  0.16536154073E+02  0.00000000000E+00 0.  1.
         13    1    5    5    0    0 -0.21209460883E+03  0.66350379183E+02  0.13624359149E+03  0.26066992948E+03  0.00000000000E+00 0. -1.
        -13    1    5    5    0    0 -0.32859716656E+03 -0.92812240827E+01  0.18645691638E+03  0.37792647520E+03  0.00000000000E+00 0.  1.
          3    1    6    6  503    0  0.14564911829E+03  0.43602854660E+02 -0.78980991875E+02  0.17132679788E+03  0.00000000000E+00 0. -1.
         -3    1    6    6    0  503  0.89359965620E+02  0.11367152612E+03 -0.89447825453E+02  0.17002156564E+03  0.00000000000E+00 0.  1.
<mgrwt>
<rscale>  0 0.13768267E+04</rscale>
<asrwt>0</asrwt>
<pdfrwt beam="1">  1        1 0.14092867E+00 0.13768267E+04</pdfrwt>
<pdfrwt beam="2">  1       -2 0.79592572E-01 0.13768267E+04</pdfrwt>
<totfact> 0.21137233E+01</totfact>
</mgrwt>
</event>
<event>
12    5  0.5029243E-008  0.2058947E+04  0.7818608E-02  0.8579546E-01
         -2   -1    0    0    0  501 -0.00000000000E+00  0.00000000000E+00  0.70995576208E+03  0.70995576208E+03  0.00000000000E+00 0.  1.
          1   -1    0    0  501    0  0.00000000000E+00 -0.00000000000E+00 -0.14927909372E+04  0.14927909372E+04  0.00000000000E+00 0. -1.
        -24    2    1    2    0    0  0.13191359446E+03  0.21194855520E+03 -0.10518812519E+04  0.10840484721E+04  0.79897028671E+02 0.  0.
        254    2    1    2    0    0 -0.13191359446E+03 -0.21194855520E+03  0.26904607680E+03  0.11186982272E+04  0.10567764880E+04 0.  0.
         23    2    4    4    0    0 -0.63438301967E+02 -0.44142562948E+03 -0.26465855096E+03  0.52668705897E+03  0.92054901933E+02 0.  0.
         23    2    4    4    0    0 -0.68475292491E+02  0.22947707428E+03  0.53370462776E+03  0.59201116824E+03  0.91038455174E+02 0.  0.
          1    1    3    3  502    0  0.92144782173E+02  0.11762394125E+03 -0.76488664574E+03  0.77934436115E+03  0.00000000000E+00 0. -1.
         -2    1    3    3    0  502  0.39768812284E+02  0.94324613952E+02 -0.28699460620E+03  0.30470411093E+03  0.00000000000E+00 0.  1.
         13    1    5    5    0    0 -0.73872356165E+02 -0.39385711702E+03 -0.26018368508E+03  0.47778248567E+03  0.00000000000E+00 0. -1.
        -13    1    5    5    0    0  0.10434054198E+02 -0.47568512460E+02 -0.44748658796E+01  0.48904573297E+02  0.00000000000E+00 0.  1.
          3    1    6    6  503    0 -0.68567168190E+02  0.13865342693E+03  0.41253897266E+03  0.44058442246E+03  0.00000000000E+00 0. -1.
         -3    1    6    6    0  503  0.91875699760E-01  0.90823647356E+02  0.12116565510E+03  0.15142674578E+03  0.00000000000E+00 0.  1.
<mgrwt>
<rscale>  0 0.20589468E+04</rscale>
<asrwt>0</asrwt>
<pdfrwt beam="1">  1        1 0.22966014E+00 0.20589468E+04</pdfrwt>
<pdfrwt beam="2">  1       -2 0.10922396E+00 0.20589468E+04</pdfrwt>
<totfact> 0.35832846E+00</totfact>
</mgrwt>
</event>
<event>
12    5  0.5029243E-008  0.2237679E+04  0.7818608E-02  0.8502907E-01
          1   -1    0    0  501    0  0.00000000000E+00  0.00000000000E+00  0.86692501337E+03  0.86692501337E+03  0.00000000000E+00 0. -1.
         -2   -1    0    0    0  501 -0.00000000000E+00 -0.00000000000E+00 -0.14439568632E+04  0.14439568632E+04  0.00000000000E+00 0.  1.
        -24    2    1    2    0    0 -0.16495189214E+03 -0.65387151988E+03  0.42788952158E+03  0.80272433370E+03  0.80745414778E+02 0.  0.
        254    2    1    2    0    0  0.16495189214E+03  0.65387151988E+03 -0.10049213714E+04  0.15081575429E+04  0.89995284330E+03 0.  0.
         23    2    4    4    0    0  0.23664532241E+03 -0.12690836703E+02  0.46179384396E+02  0.25808241526E+03  0.91169795277E+02 0.  0.
         23    2    4    4    0    0 -0.71693430263E+02  0.66656235658E+03 -0.10511007558E+04  0.12500751276E+04  0.91813412099E+02 0.  0.
          3    1    3    3  502    0 -0.12381207917E+03 -0.48893488599E+03  0.36005914089E+03  0.61970100744E+03  0.00000000000E+00 0. -1.
         -4    1    3    3    0  502 -0.41139812973E+02 -0.16493663389E+03  0.67830380689E+02  0.18302332626E+03  0.00000000000E+00 0.  1.
         13    1    5    5    0    0  0.20211372790E+03 -0.93060600464E+01  0.25573585827E+01  0.20234401855E+03  0.00000000000E+00 0. -1.
        -13    1    5    5    0    0  0.34531594508E+02 -0.33847766569E+01  0.43622025814E+02  0.55738396715E+02  0.00000000000E+00 0.  1.
          1    1    6    6  503    0 -0.92568088300E+02  0.52948114818E+03 -0.85433814586E+03  0.10093625735E+04  0.00000000000E+00 0. -1.
         -1    1    6    6    0  503  0.20874658037E+02  0.13708120840E+03 -0.19676260998E+03  0.24071255416E+03  0.00000000000E+00 0.  1.
<mgrwt>
<rscale>  0 0.22376794E+04</rscale>
<asrwt>0</asrwt>
<pdfrwt beam="1">  1        1 0.13337308E+00 0.22376794E+04</pdfrwt>
<pdfrwt beam="2">  1       -2 0.22214721E+00 0.22376794E+04</pdfrwt>
<totfact> 0.14785641E+00</totfact>
</mgrwt>
</event>
<event>
12    5  0.5029243E-008  0.1140253E+04  0.7818608E-02  0.9166823E-01
         -2   -1    0    0    0  501 -0.00000000000E+00  0.00000000000E+00  0.42045020266E+03  0.42045020266E+03  0.00000000000E+00 0.  1.
          1   -1    0    0  501    0  0.00000000000E+00 -0.00000000000E+00 -0.77308630969E+03  0.77308630969E+03  0.00000000000E+00 0. -1.
        -24    2    1    2    0    0  0.53966014362E+02  0.16428308079E+03 -0.16815518806E+03  0.25397556442E+03  0.79537153018E+02 0.  0.
        254    2    1    2    0    0 -0.53966014362E+02 -0.16428308079E+03 -0.18448091898E+03  0.93956094793E+03  0.90489795230E+03 0.  0.
         23    2    4    4    0    0 -0.81017827626E+02 -0.49698173856E+03 -0.27649149522E+03  0.58174953106E+03  0.91816300833E+02 0.  0.
         23    2    4    4    0    0  0.27051813264E+02  0.33269865778E+03  0.92010576249E+02  0.35781141687E+03  0.90237832495E+02 0.  0.
          1    1    3    3  502    0 -0.49843958744E+01  0.10891684393E+03 -0.10492847343E+03  0.15131988511E+03  0.00000000000E+00 0. -1.
         -2    1    3    3    0  502  0.58950410236E+02  0.55366236862E+02 -0.63226714631E+02  0.10265567931E+03  0.00000000000E+00 0.  1.
         13    1    5    5    0    0 -0.66117009785E+02 -0.45509543651E+03 -0.27780945448E+03  0.53727219202E+03  0.00000000000E+00 0. -1.
        -13    1    5    5    0    0 -0.14900817842E+02 -0.41886302051E+02  0.13179592522E+01  0.44477339044E+02  0.00000000000E+00 0.  1.
          3    1    6    6  503    0 -0.83803990079E+01  0.42437427584E+02  0.43595877583E+02  0.61414712323E+02  0.00000000000E+00 0. -1.
         -3    1    6    6    0  503  0.35432212272E+02  0.29026123019E+03  0.48414698666E+02  0.29639670455E+03  0.00000000000E+00 0.  1.
<mgrwt>
<rscale>  0 0.11402531E+04</rscale>
<asrwt>0</asrwt>
<pdfrwt beam="1">  1        1 0.11893635E+00 0.11402531E+04</pdfrwt>
<pdfrwt beam="2">  1       -2 0.64684647E-01 0.11402531E+04</pdfrwt>
<totfact> 0.44862890E+01</totfact>
</mgrwt>
</event>
<event>
12    5  0.5029243E-008  0.1083725E+04  0.7818608E-02  0.9221201E-01
         -2   -1    0    0    0  501 -0.00000000000E+00  0.00000000000E+00  0.14340314532E+03  0.14340314532E+03  0.00000000000E+00 0.  1.
          1   -1    0    0  501    0  0.00000000000E+00 -0.00000000000E+00 -0.20474791511E+04  0.20474791511E+04  0.00000000000E+00 0. -1.
        -24    2    1    2    0    0 -0.14341465076E+03  0.19238269135E+02 -0.44749585777E+03  0.47528947987E+03  0.68627063905E+02 0.  0.
        254    2    1    2    0    0  0.14341465076E+03 -0.19238269135E+02 -0.14565801480E+04  0.17155928165E+04  0.89481568580E+03 0.  0.
         23    2    4    4    0    0  0.33688712698E+02  0.38059756769E+03 -0.33827332805E+03  0.51916055733E+03  0.95443186921E+02 0.  0.
         23    2    4    4    0    0  0.10972593806E+03 -0.39983583682E+03 -0.11183068199E+04  0.11964322592E+04  0.94506769212E+02 0.  0.
          3    1    3    3  502    0 -0.10867398671E+03  0.43051010184E+02 -0.35249535601E+03  0.37137097473E+03  0.00000000000E+00 0. -1.
         -4    1    3    3    0  502 -0.34740664051E+02 -0.23812741050E+02 -0.95000501760E+02  0.10391850514E+03  0.00000000000E+00 0.  1.
         13    1    5    5    0    0  0.69287508822E+01  0.33313720148E+02 -0.59338862984E+00  0.34031803493E+02  0.00000000000E+00 0.  1.
        -13    1    5    5    0    0  0.26759961816E+02  0.34728384754E+03 -0.33767993942E+03  0.48512875384E+03  0.00000000000E+00 0. -1.
          3    1    6    6  503    0  0.73292322233E+02 -0.19109231105E+03 -0.67012317441E+03  0.70068045836E+03  0.00000000000E+00 0. -1.
         -3    1    6    6    0  503  0.36433615826E+02 -0.20874352577E+03 -0.44818364550E+03  0.49575180081E+03  0.00000000000E+00 0.  1.
<mgrwt>
<rscale>  0 0.10837250E+04</rscale>
<asrwt>0</asrwt>
<pdfrwt beam="1">  1        1 0.31499679E+00 0.10837250E+04</pdfrwt>
<pdfrwt beam="2">  1       -2 0.22062022E-01 0.10837250E+04</pdfrwt>
<totfact> 0.43684104E+01</totfact>
</mgrwt>
</event>
<event>
12    5  0.5029243E-008  0.1306151E+04  0.7818608E-02  0.9024701E-01
         -2   -1    0    0    0  501 -0.00000000000E+00  0.00000000000E+00  0.96353817880E+03  0.96353817880E+03  0.00000000000E+00 0.  1.
          1   -1    0    0  501    0  0.00000000000E+00 -0.00000000000E+00 -0.44264755789E+03  0.44264755789E+03  0.00000000000E+00 0. -1.
        -24    2    1    2    0    0  0.10897568345E+01 -0.30543292585E+03 -0.15082141682E+02  0.31598247700E+03  0.79542410098E+02 0.  0.
        254    2    1    2    0    0 -0.10897568345E+01  0.30543292585E+03  0.53597276259E+03  0.10902032597E+04  0.89888035101E+03 0.  0.
         23    2    4    4    0    0 -0.51541451092E+02 -0.30945621025E+03  0.18034439276E+03  0.37219816459E+03  0.87107442148E+02 0.  0.
         23    2    4    4    0    0  0.50451694257E+02  0.61488913611E+03  0.35562836983E+03  0.71800509510E+03  0.91791916861E+02 0.  0.
          3    1    3    3  502    0  0.14482305934E+02 -0.94265404208E+02 -0.39011784765E+02  0.10304185056E+03  0.00000000000E+00 0. -1.
         -4    1    3    3    0  502 -0.13392549100E+02 -0.21116752165E+03  0.23929643083E+02  0.21294062644E+03  0.00000000000E+00 0.  1.
         13    1    5    5    0    0  0.66273256282E+01 -0.21099377709E+03  0.12195112442E+03  0.24379165729E+03  0.00000000000E+00 0. -1.
        -13    1    5    5    0    0 -0.58168776720E+02 -0.98462433162E+02  0.58393268338E+02  0.12840650730E+03  0.00000000000E+00 0.  1.
          4    1    6    6  503    0  0.17333421048E+01  0.41918103537E+03  0.20722994691E+03  0.46761094489E+03  0.00000000000E+00 0. -1.
         -4    1    6    6    0  503  0.48718352153E+02  0.19570810074E+03  0.14839842292E+03  0.25039415021E+03  0.00000000000E+00 0.  1.
<mgrwt>
<rscale>  0 0.13061513E+04</rscale>
<asrwt>0</asrwt>
<pdfrwt beam="1">  1        1 0.68099624E-01 0.13061513E+04</pdfrwt>
<pdfrwt beam="2">  1       -2 0.14823664E+00 0.13061513E+04</pdfrwt>
<totfact> 0.13882752E+01</totfact>
</mgrwt>
</event>
<event>
12    5  0.5029243E-008  0.1415203E+04  0.7818608E-02  0.8942887E-01
         -2   -1    0    0    0  501 -0.00000000000E+00  0.00000000000E+00  0.74327268655E+03  0.74327268655E+03  0.00000000000E+00 0.  1.
          1   -1    0    0  501    0  0.00000000000E+00 -0.00000000000E+00 -0.67364193073E+03  0.67364193073E+03  0.00000000000E+00 0. -1.
        -24    2    1    2    0    0  0.46536838961E+01 -0.28523260713E+01 -0.39204489607E+03  0.40007749192E+03  0.79580188910E+02 0.  0.
        254    2    1    2    0    0 -0.46536838961E+01  0.28523260713E+01  0.46167565189E+03  0.10168371254E+04  0.90597104778E+03 0.  0.
         23    2    4    4    0    0 -0.21614642917E+03  0.28576938184E+03  0.52866198706E+03  0.64569930161E+03  0.95187567947E+02 0.  0.
         23    2    4    4    0    0  0.21149274527E+03 -0.28291705577E+03 -0.66986335172E+02  0.37113782375E+03  0.92113372398E+02 0.  0.
          1    1    3    3  502    0  0.38761497613E+02  0.13827679785E+02 -0.22915823389E+03  0.23282429982E+03  0.00000000000E+00 0. -1.
         -2    1    3    3    0  502 -0.34107813717E+02 -0.16680005856E+02 -0.16288666218E+03  0.16725319210E+03  0.00000000000E+00 0.  1.
         13    1    5    5    0    0 -0.19969082942E+03  0.27475509531E+03  0.44549574085E+03  0.56020821564E+03  0.00000000000E+00 0.  1.
        -13    1    5    5    0    0 -0.16455599751E+02  0.11014286527E+02  0.83166246215E+02  0.85491085970E+02  0.00000000000E+00 0. -1.
          4    1    6    6  503    0  0.17097364817E+03 -0.24657241975E+03 -0.88160420754E+02  0.31273344295E+03  0.00000000000E+00 0.  1.
         -4    1    6    6    0  503  0.40519097104E+02 -0.36344636016E+02  0.21174085582E+02  0.58404380807E+02  0.00000000000E+00 0. -1.
<mgrwt>
<rscale>  0 0.14152027E+04</rscale>
<asrwt>0</asrwt>
<pdfrwt beam="1">  1        1 0.10363722E+00 0.14152027E+04</pdfrwt>
<pdfrwt beam="2">  1       -2 0.11434964E+00 0.14152027E+04</pdfrwt>
<totfact> 0.14716671E+01</totfact>
</mgrwt>
</event>
<event>
12    5  0.5029243E-008  0.1130525E+04  0.7818608E-02  0.9175940E-01
         -2   -1    0    0    0  501 -0.00000000000E+00  0.00000000000E+00  0.15386493543E+04  0.15386493543E+04  0.00000000000E+00 0.  1.
          1   -1    0    0  501    0  0.00000000000E+00 -0.00000000000E+00 -0.20766380763E+03  0.20766380763E+03  0.00000000000E+00 0. -1.
        -24    2    1    2    0    0 -0.88668263817E+01  0.82956180953E+02  0.50759112018E+03  0.51990676242E+03  0.75458251772E+02 0.  0.
        254    2    1    2    0    0  0.88668263817E+01 -0.82956180953E+02  0.82339442651E+03  0.12264063995E+04  0.90506017847E+03 0.  0.
         23    2    4    4    0    0 -0.16871626324E+01 -0.37819841601E+03  0.83059559477E+03  0.91729405167E+03  0.92208713229E+02 0.  0.
         23    2    4    4    0    0  0.10553989014E+02  0.29524223506E+03 -0.72011682586E+01  0.30911234786E+03  0.90659929017E+02 0.  0.
          1    1    3    3  502    0 -0.41321084221E+02  0.56061333999E+02  0.28741874902E+03  0.29573610273E+03  0.00000000000E+00 0. -1.
         -2    1    3    3    0  502  0.32454257839E+02  0.26894846954E+02  0.22017237116E+03  0.22417065969E+03  0.00000000000E+00 0.  1.
         13    1    5    5    0    0 -0.68447006263E+01 -0.33497699390E+03  0.78854046771E+03  0.85676864181E+03  0.00000000000E+00 0.  1.
        -13    1    5    5    0    0  0.51575379939E+01 -0.43221422113E+02  0.42055127061E+02  0.60525409868E+02  0.00000000000E+00 0. -1.
          1    1    6    6  503    0 -0.13492360864E+00  0.15734032637E+02  0.22900177329E+02  0.27784817960E+02  0.00000000000E+00 0. -1.
         -1    1    6    6    0  503  0.10688912623E+02  0.27950820242E+03 -0.30101345587E+02  0.28132752990E+03  0.00000000000E+00 0.  1.
<mgrwt>
<rscale>  0 0.11305252E+04</rscale>
<asrwt>0</asrwt>
<pdfrwt beam="1">  1        1 0.31948279E-01 0.11305252E+04</pdfrwt>
<pdfrwt beam="2">  1       -2 0.23671528E+00 0.11305252E+04</pdfrwt>
<totfact> 0.95544882E+00</totfact>
</mgrwt>
</event>
<event>
12    5  0.5029243E-008  0.2781697E+04  0.7818608E-02  0.8308973E-01
         -2   -1    0    0    0  501 -0.00000000000E+00  0.00000000000E+00  0.25863845089E+04  0.25863845089E+04  0.00000000000E+00 0.  1.
          1   -1    0    0  501    0  0.00000000000E+00 -0.00000000000E+00 -0.74793940322E+03  0.74793940322E+03  0.00000000000E+00 0. -1.
        -24    2    1    2    0    0  0.37654863190E+01  0.80278977413E+03  0.20315917250E+04  0.21859834765E+04  0.81689793144E+02 0.  0.
        254    2    1    2    0    0 -0.37654863190E+01 -0.80278977413E+03 -0.19314661936E+03  0.11483404355E+04  0.79805672668E+03 0.  0.
         23    2    4    4    0    0 -0.17656510177E+03 -0.87551674545E+03 -0.25202601981E+03  0.93244532232E+03  0.90732341063E+02 0.  0.
         23    2    4    4    0    0  0.17279961545E+03  0.72726971322E+02  0.58879400449E+02  0.21589511323E+03  0.89414745202E+02 0.  0.
          3    1    3    3  502    0 -0.13172231336E+02  0.20050178321E+02  0.57200798349E+02  0.62027805546E+02  0.00000000000E+00 0. -1.
         -4    1    3    3    0  502  0.16937717655E+02  0.78273959581E+03  0.19743909267E+04  0.21239556710E+04  0.00000000000E+00 0.  1.
         13    1    5    5    0    0 -0.24050025499E+02 -0.17433400028E+03 -0.14518413165E+02  0.17658293151E+03  0.00000000000E+00 0.  1.
        -13    1    5    5    0    0 -0.15251507627E+03 -0.70118274517E+03 -0.23750760665E+03  0.75586239081E+03  0.00000000000E+00 0. -1.
          1    1    6    6  503    0  0.56371427246E+02  0.26801495721E+02  0.65607170908E+02  0.90555832816E+02  0.00000000000E+00 0. -1.
         -1    1    6    6    0  503  0.11642818821E+03  0.45925475601E+02 -0.67277704588E+01  0.12533928041E+03  0.00000000000E+00 0.  1.
<mgrwt>
<rscale>  0 0.27816965E+04</rscale>
<asrwt>0</asrwt>
<pdfrwt beam="1">  1        1 0.11506760E+00 0.27816965E+04</pdfrwt>
<pdfrwt beam="2">  1       -2 0.39790530E+00 0.27816965E+04</pdfrwt>
<totfact> 0.14322406E-01</totfact>
</mgrwt>
</event>
<event>
12    5  0.5029243E-008  0.1860206E+04  0.7818608E-02  0.8674922E-01
         -2   -1    0    0    0  501 -0.00000000000E+00  0.00000000000E+00  0.48840162790E+03  0.48840162790E+03  0.00000000000E+00 0.  1.
          1   -1    0    0  501    0  0.00000000000E+00 -0.00000000000E+00 -0.17712699984E+04  0.17712699984E+04  0.00000000000E+00 0. -1.
        -24    2    1    2    0    0  0.12883478187E+03  0.24626427159E+03 -0.12751251513E+04  0.13079067978E+04  0.86206425192E+02 0.  0.
        254    2    1    2    0    0 -0.12883478187E+03 -0.24626427159E+03 -0.77432191517E+01  0.95176482846E+03  0.91024822921E+03 0.  0.
         23    2    4    4    0    0  0.17959529079E+03 -0.40768120524E+03 -0.24892312172E+03  0.51836366393E+03  0.90993043530E+02 0.  0.
         23    2    4    4    0    0 -0.30843007266E+03  0.16141693366E+03  0.24117990257E+03  0.43340116453E+03  0.92110193909E+02 0.  0.
          1    1    3    3  502    0  0.12699125160E+03  0.20056941750E+03 -0.93248574449E+03  0.96222893996E+03  0.00000000000E+00 0. -1.
         -2    1    3    3    0  502  0.18435302691E+01  0.45694854090E+02 -0.34263940683E+03  0.34567785784E+03  0.00000000000E+00 0.  1.
         13    1    5    5    0    0  0.75821356665E+02 -0.26882335687E+03 -0.12959155281E+03  0.30791045108E+03  0.00000000000E+00 0. -1.
        -13    1    5    5    0    0  0.10377393412E+03 -0.13885784838E+03 -0.11933156892E+03  0.21045321285E+03  0.00000000000E+00 0.  1.
          4    1    6    6  503    0 -0.27603111429E+03  0.10668473257E+03  0.20752112688E+03  0.36144131795E+03  0.00000000000E+00 0.  1.
         -4    1    6    6    0  503 -0.32398958372E+02  0.54732201086E+02  0.33658775688E+02  0.71959846582E+02  0.00000000000E+00 0. -1.
<mgrwt>
<rscale>  0 0.18602055E+04</rscale>
<asrwt>0</asrwt>
<pdfrwt beam="1">  1        1 0.27250308E+00 0.18602055E+04</pdfrwt>
<pdfrwt beam="2">  1       -2 0.75138712E-01 0.18602055E+04</pdfrwt>
<totfact> 0.55853063E+00</totfact>
</mgrwt>
</event>
<event>
12    5  0.5029243E-008  0.1585352E+04  0.7818608E-02  0.8829597E-01
          3   -1    0    0  501    0  0.00000000000E+00  0.00000000000E+00  0.43266119501E+03  0.43266119501E+03  0.00000000000E+00 0. -1.
         -4   -1    0    0    0  501 -0.00000000000E+00 -0.00000000000E+00 -0.14522577649E+04  0.14522577649E+04  0.00000000000E+00 0.  1.
        -24    2    1    2    0    0  0.76111802589E+02  0.11100100827E+03  0.25730504524E+03  0.30990917515E+03  0.10827548294E+03 0.  0.
        254    2    1    2    0    0 -0.76111802589E+02 -0.11100100827E+03 -0.12769016151E+04  0.15750097847E+04  0.91217534336E+03 0.  0.
         23    2    4    4    0    0  0.27290071681E+03 -0.22700453110E+03 -0.10956273024E+04  0.11552196471E+04  0.90152033076E+02 0.  0.
         23    2    4    4    0    0 -0.34901251940E+03  0.11600352283E+03 -0.18127431276E+03  0.41979013762E+03  0.89982371432E+02 0.  0.
          1    1    3    3  502    0  0.10039467542E+03  0.66769439577E+02  0.16049553285E+03  0.20073879789E+03  0.00000000000E+00 0. -1.
         -2    1    3    3    0  502 -0.24282872826E+02  0.44231568692E+02  0.96809512395E+02  0.10917037726E+03  0.00000000000E+00 0.  1.
         13    1    5    5    0    0  0.14183941639E+02  0.79880024555E+01 -0.38050791429E+02  0.41386653791E+02  0.00000000000E+00 0.  1.
        -13    1    5    5    0    0  0.25871677517E+03 -0.23499253356E+03 -0.10575765109E+04  0.11138329933E+04  0.00000000000E+00 0. -1.
          3    1    6    6  503    0 -0.20326267842E+03  0.10268428335E+03 -0.14156181160E+03  0.26814086781E+03  0.00000000000E+00 0. -1.
         -3    1    6    6    0  503 -0.14574984098E+03  0.13319239479E+02 -0.39712501165E+02  0.15164926981E+03  0.00000000000E+00 0.  1.
<mgrwt>
<rscale>  0 0.15853524E+04</rscale>
<asrwt>0</asrwt>
<pdfrwt beam="1">  1        3 0.66563260E-01 0.15853524E+04</pdfrwt>
<pdfrwt beam="2">  1       -4 0.22342428E+00 0.15853524E+04</pdfrwt>
<totfact> 0.44350448E-01</totfact>
</mgrwt>
</event>
<event>
12    5  0.5029243E-008  0.1741412E+04  0.7818608E-02  0.8738092E-01
          1   -1    0    0  501    0  0.00000000000E+00  0.00000000000E+00  0.10605442795E+04  0.10605442795E+04  0.00000000000E+00 0. -1.
         -2   -1    0    0    0  501 -0.00000000000E+00 -0.00000000000E+00 -0.71484886360E+03  0.71484886360E+03  0.00000000000E+00 0.  1.
        -24    2    1    2    0    0 -0.20716433112E+03 -0.64071900050E+02  0.72113570017E+03  0.75723169338E+03  0.79629585851E+02 0.  0.
        254    2    1    2    0    0  0.20716433112E+03  0.64071900050E+02 -0.37544028428E+03  0.10181614497E+04  0.92123561707E+03 0.  0.
         23    2    4    4    0    0  0.43174198867E+03  0.35298692867E+03 -0.27752154507E+03  0.62943728278E+03  0.90400046349E+02 0.  0.
         23    2    4    4    0    0 -0.22457765755E+03 -0.28891502862E+03 -0.97918739206E+02  0.38872416693E+03  0.87243225722E+02 0.  0.
          1    1    3    3  502    0 -0.21351371427E+03 -0.66944302640E+02  0.69219608744E+03  0.72746482341E+03  0.00000000000E+00 0. -1.
         -2    1    3    3    0  502  0.63493831469E+01  0.28724025895E+01  0.28939612726E+02  0.29766869968E+02  0.00000000000E+00 0.  1.
         13    1    5    5    0    0  0.20957840551E+03  0.12218173622E+03 -0.93488419739E+02  0.25998378670E+03  0.00000000000E+00 0.  1.
        -13    1    5    5    0    0  0.22216358317E+03  0.23080519246E+03 -0.18403312533E+03  0.36945349609E+03  0.00000000000E+00 0. -1.
          1    1    6    6  503    0 -0.11699116393E+03 -0.21763538028E+03 -0.67184424487E+02  0.25605827087E+03  0.00000000000E+00 0. -1.
         -1    1    6    6    0  503 -0.10758649362E+03 -0.71279648348E+02 -0.30734314719E+02  0.13266589606E+03  0.00000000000E+00 0.  1.
<mgrwt>
<rscale>  0 0.17414119E+04</rscale>
<asrwt>0</asrwt>
<pdfrwt beam="1">  1        1 0.16316066E+00 0.17414119E+04</pdfrwt>
<pdfrwt beam="2">  1       -2 0.10997675E+00 0.17414119E+04</pdfrwt>
<totfact> 0.74248108E+00</totfact>
</mgrwt>
</event>
<event>
12    5  0.5029243E-008  0.2035070E+04  0.7818608E-02  0.8590398E-01
          1   -1    0    0  501    0  0.00000000000E+00  0.00000000000E+00  0.55102275811E+03  0.55102275811E+03  0.00000000000E+00 0. -1.
         -2   -1    0    0    0  501 -0.00000000000E+00 -0.00000000000E+00 -0.18790104830E+04  0.18790104830E+04  0.00000000000E+00 0.  1.
        -24    2    1    2    0    0 -0.64098892733E+03  0.49874835927E+03 -0.51310477024E+03  0.96416033240E+03  0.81926250403E+02 0.  0.
        254    2    1    2    0    0  0.64098892733E+03 -0.49874835927E+03 -0.81488295463E+03  0.14658729087E+04  0.90836800022E+03 0.  0.
         23    2    4    4    0    0  0.28691784263E+01 -0.49167463457E+03 -0.11326279066E+03  0.51244795879E+03  0.89567138284E+02 0.  0.
         23    2    4    4    0    0  0.63811974890E+03 -0.70737247016E+01 -0.70162016397E+03  0.95342494989E+03  0.97475274123E+02 0.  0.
          1    1    3    3  502    0 -0.54509036710E+03  0.38583279939E+03 -0.43024452734E+03  0.79441853623E+03  0.00000000000E+00 0. -1.
         -2    1    3    3    0  502 -0.95898560229E+02  0.11291555988E+03 -0.82860242895E+02  0.16974179618E+03  0.00000000000E+00 0.  1.
         13    1    5    5    0    0 -0.41589083831E+02 -0.21127166197E+03 -0.60692850013E+02  0.22371631387E+03  0.00000000000E+00 0.  1.
        -13    1    5    5    0    0  0.44458262257E+02 -0.28040297259E+03 -0.52569940648E+02  0.28873164493E+03  0.00000000000E+00 0. -1.
          1    1    6    6  503    0  0.62575491014E+03 -0.50398757951E+01 -0.70257942007E+03  0.94085729493E+03  0.00000000000E+00 0. -1.
         -1    1    6    6    0  503  0.12364838761E+02 -0.20338489065E+01  0.95925610175E+00  0.12567654962E+02  0.00000000000E+00 0.  1.
<mgrwt>
<rscale>  0 0.20350701E+04</rscale>
<asrwt>0</asrwt>
<pdfrwt beam="1">  1        1 0.84772733E-01 0.20350701E+04</pdfrwt>
<pdfrwt beam="2">  1       -2 0.28907853E+00 0.20350701E+04</pdfrwt>
<totfact> 0.11620786E+00</totfact>
</mgrwt>
</event>
<event>
12    5  0.5029243E-008  0.1536907E+04  0.7818608E-02  0.8860274E-01
         -4   -1    0    0    0  501 -0.00000000000E+00  0.00000000000E+00  0.17185163542E+04  0.17185163542E+04  0.00000000000E+00 0.  1.
          1   -1    0    0  501    0  0.00000000000E+00 -0.00000000000E+00 -0.34362258267E+03  0.34362258267E+03  0.00000000000E+00 0. -1.
        -24    2    1    2    0    0 -0.20187404637E+03 -0.41613691356E+03  0.67714198278E+03  0.82393208393E+03  0.80123358982E+02 0.  0.
        254    2    1    2    0    0  0.20187404637E+03  0.41613691356E+03  0.69775178870E+03  0.12382068529E+04  0.91234620102E+03 0.  0.
         23    2    4    4    0    0 -0.46734249156E+02 -0.26037656750E+03  0.99055014967E+02  0.29661641843E+03  0.90495064728E+02 0.  0.
         23    2    4    4    0    0  0.24860829553E+03  0.67651348107E+03  0.59869677373E+03  0.94159043448E+03  0.93156560416E+02 0.  0.
          1    1    3    3  502    0 -0.35483554155E+02 -0.93480464441E+02  0.20751269877E+03  0.23034582696E+03  0.00000000000E+00 0. -1.
         -2    1    3    3    0  502 -0.16639049222E+03 -0.32265644912E+03  0.46962928401E+03  0.59358625697E+03  0.00000000000E+00 0.  1.
         13    1    5    5    0    0 -0.54870919066E+02 -0.19498894725E+03  0.36626364252E+02  0.20584702540E+03  0.00000000000E+00 0. -1.
        -13    1    5    5    0    0  0.81366699104E+01 -0.65387620257E+02  0.62428650715E+02  0.90769393026E+02  0.00000000000E+00 0.  1.
          4    1    6    6  503    0  0.10739688924E+03  0.35156931322E+03  0.25059053434E+03  0.44489402077E+03  0.00000000000E+00 0. -1.
         -4    1    6    6    0  503  0.14121140628E+03  0.32494416784E+03  0.34810623940E+03  0.49669641370E+03  0.00000000000E+00 0.  1.
<mgrwt>
<rscale>  0 0.15369073E+04</rscale>
<asrwt>0</asrwt>
<pdfrwt beam="1">  1        1 0.52865014E-01 0.15369073E+04</pdfrwt>
<pdfrwt beam="2">  1       -4 0.26438713E+00 0.15369073E+04</pdfrwt>
<totfact> 0.17308434E+00</totfact>
</mgrwt>
</event>
<event>
12    5  0.5029243E-008  0.1559910E+04  0.7818608E-02  0.8845563E-01
          1   -1    0    0  501    0  0.00000000000E+00  0.00000000000E+00  0.16838910171E+04  0.16838910171E+04  0.00000000000E+00 0. -1.
         -2   -1    0    0    0  501 -0.00000000000E+00 -0.00000000000E+00 -0.36126427254E+03  0.36126427254E+03  0.00000000000E+00 0.  1.
        -24    2    1    2    0    0 -0.45072150135E+00 -0.44991649327E+03  0.10818293030E+03  0.46988179087E+03  0.81610642205E+02 0.  0.
        254    2    1    2    0    0  0.45072150135E+00  0.44991649327E+03  0.12144438143E+04  0.15752734988E+04  0.89676516651E+03 0.  0.
         23    2    4    4    0    0 -0.57391347596E+02 -0.86092900555E+02 -0.87980461618E+02  0.16259838836E+03  0.89397538933E+02 0.  0.
         23    2    4    4    0    0  0.57842069097E+02  0.53600939382E+03  0.13024242759E+04  0.14126751104E+04  0.93221231021E+02 0.  0.
          3    1    3    3  502    0  0.44506579451E+01 -0.10348776849E+03  0.61026891415E+02  0.12022399120E+03  0.00000000000E+00 0. -1.
         -4    1    3    3    0  502 -0.49013794464E+01 -0.34642872478E+03  0.47156038882E+02  0.34965779968E+03  0.00000000000E+00 0.  1.
         13    1    5    5    0    0 -0.58329636691E+02 -0.50338368572E+02 -0.11149189435E+02  0.77849870212E+02  0.00000000000E+00 0.  1.
        -13    1    5    5    0    0  0.93828909532E+00 -0.35754531983E+02 -0.76831272183E+02  0.84748518152E+02  0.00000000000E+00 0. -1.
          2    1    6    6  503    0  0.49380958783E+02  0.30454025465E+03  0.85291797845E+03  0.90700183227E+03  0.00000000000E+00 0. -1.
         -2    1    6    6    0  503  0.84611103137E+01  0.23146913917E+03  0.44950629748E+03  0.50567327817E+03  0.00000000000E+00 0.  1.
<mgrwt>
<rscale>  0 0.15599098E+04</rscale>
<asrwt>0</asrwt>
<pdfrwt beam="1">  1        1 0.25906015E+00 0.15599098E+04</pdfrwt>
<pdfrwt beam="2">  1       -2 0.55579120E-01 0.15599098E+04</pdfrwt>
<totfact> 0.12564081E+01</totfact>
</mgrwt>
</event>
<event>
12    5  0.5029243E-008  0.2147029E+04  0.7818608E-02  0.8540805E-01
         -2   -1    0    0    0  501 -0.00000000000E+00  0.00000000000E+00  0.80299299112E+03  0.80299299112E+03  0.00000000000E+00 0.  1.
          1   -1    0    0  501    0  0.00000000000E+00 -0.00000000000E+00 -0.14351728397E+04  0.14351728397E+04  0.00000000000E+00 0. -1.
        -24    2    1    2    0    0 -0.45038033080E+03 -0.13848212705E+03 -0.10266162662E+04  0.11324400497E+04  0.80372670989E+02 0.  0.
        254    2    1    2    0    0  0.45038033080E+03  0.13848212705E+03  0.39443641758E+03  0.11057257812E+04  0.91925495577E+03 0.  0.
         23    2    4    4    0    0  0.25673773909E+03 -0.17148628822E+03  0.59667855331E+03  0.67783435202E+03  0.90068302258E+02 0.  0.
         23    2    4    4    0    0  0.19364259171E+03  0.30996841527E+03 -0.20224213573E+03  0.42789142914E+03  0.92797208373E+02 0.  0.
          3    1    3    3  502    0 -0.41662969485E+03 -0.10474243219E+03 -0.90467537838E+03  0.10014932950E+04  0.00000000000E+00 0. -1.
         -4    1    3    3    0  502 -0.33750635955E+02 -0.33739694864E+02 -0.12194088783E+03  0.13094675468E+03  0.00000000000E+00 0.  1.
         13    1    5    5    0    0  0.25799722965E+03 -0.17179905755E+03  0.55149972569E+03  0.63263688963E+03  0.00000000000E+00 0. -1.
        -13    1    5    5    0    0 -0.12594905587E+01  0.31276933191E+00  0.45178827621E+02  0.45197462388E+02  0.00000000000E+00 0.  1.
          3    1    6    6  503    0  0.12131302455E+03  0.16589053185E+03 -0.63237020000E+02  0.21502427579E+03  0.00000000000E+00 0. -1.
         -3    1    6    6    0  503  0.72329567163E+02  0.14407788342E+03 -0.13900511573E+03  0.21286715335E+03  0.00000000000E+00 0.  1.
<mgrwt>
<rscale>  0 0.21470293E+04</rscale>
<asrwt>0</asrwt>
<pdfrwt beam="1">  1        1 0.22079582E+00 0.21470293E+04</pdfrwt>
<pdfrwt beam="2">  1       -2 0.12353738E+00 0.21470293E+04</pdfrwt>
<totfact> 0.28819915E+00</totfact>
</mgrwt>
</event>
<event>
12    5  0.5029243E-008  0.2417777E+04  0.7818608E-02  0.8432878E-01
          1   -1    0    0  501    0  0.00000000000E+00  0.00000000000E+00  0.38102763462E+04  0.38102763462E+04  0.00000000000E+00 0. -1.
         -2   -1    0    0    0  501 -0.00000000000E+00 -0.00000000000E+00 -0.38354484916E+03  0.38354484916E+03  0.00000000000E+00 0.  1.
        -24    2    1    2    0    0 -0.99240833472E+03  0.12047338301E+02  0.95557834471E+03  0.13795056719E+04  0.69903395781E+02 0.  0.
        254    2    1    2    0    0  0.99240833472E+03 -0.12047338301E+02  0.24711531523E+04  0.28143155234E+04  0.91035955651E+03 0.  0.
         23    2    4    4    0    0 -0.11982257658E+03  0.12029445523E+03  0.61519285487E+03  0.64463972407E+03  0.90939096941E+02 0.  0.
         23    2    4    4    0    0  0.11122309113E+04 -0.13234179353E+03  0.18559602974E+04  0.21696757994E+04  0.91282519189E+02 0.  0.
          1    1    3    3  502    0 -0.91363735401E+02  0.15443011165E+02  0.11004754392E+03  0.14386201953E+03  0.00000000000E+00 0. -1.
         -2    1    3    3    0  502 -0.90104459932E+03 -0.33956728641E+01  0.84553080078E+03  0.12356436524E+04  0.00000000000E+00 0.  1.
         13    1    5    5    0    0 -0.77422930326E+02  0.23576665946E+02  0.18980617606E+03  0.20634086795E+03  0.00000000000E+00 0. -1.
        -13    1    5    5    0    0 -0.42399646257E+02  0.96717789288E+02  0.42538667881E+03  0.43829885612E+03  0.00000000000E+00 0.  1.
          4    1    6    6  503    0  0.53887484007E+03 -0.21892028917E+02  0.92580940486E+03  0.10714422095E+04  0.00000000000E+00 0. -1.
         -4    1    6    6    0  503  0.57335607123E+03 -0.11044976462E+03  0.93015089258E+03  0.10982335899E+04  0.00000000000E+00 0.  1.
<mgrwt>
<rscale>  0 0.24177774E+04</rscale>
<asrwt>0</asrwt>
<pdfrwt beam="1">  1        1 0.58619633E+00 0.24177774E+04</pdfrwt>
<pdfrwt beam="2">  1       -2 0.59006903E-01 0.24177774E+04</pdfrwt>
<totfact> 0.29561326E-01</totfact>
</mgrwt>
</event>
<event>
12    5  0.5029243E-008  0.1431177E+04  0.7818608E-02  0.8931555E-01
          1   -1    0    0  501    0  0.00000000000E+00  0.00000000000E+00  0.11616258867E+04  0.11616258867E+04  0.00000000000E+00 0. -1.
         -2   -1    0    0    0  501 -0.00000000000E+00 -0.00000000000E+00 -0.44081905186E+03  0.44081905186E+03  0.00000000000E+00 0.  1.
        -24    2    1    2    0    0 -0.11640136934E+02 -0.33304728847E+03 -0.81999602735E+02  0.35197743565E+03  0.78154917998E+02 0.  0.
        254    2    1    2    0    0  0.11640136934E+02  0.33304728847E+03  0.80280643761E+03  0.12504675030E+04  0.89895206242E+03 0.  0.
         23    2    4    4    0    0 -0.16043007521E+03 -0.26820634069E+03  0.30237079968E+03  0.44437404724E+03  0.91475369047E+02 0.  0.
         23    2    4    4    0    0  0.17207021214E+03  0.60125362917E+03  0.50043563793E+03  0.80609345572E+03  0.90756526752E+02 0.  0.
          1    1    3    3  502    0 -0.13901939845E+02 -0.48106105112E+02 -0.39704464076E+02  0.63905443806E+02  0.00000000000E+00 0. -1.
         -2    1    3    3    0  502  0.22618029111E+01 -0.28494118336E+03 -0.42295138659E+02  0.28807199184E+03  0.00000000000E+00 0.  1.
         13    1    5    5    0    0 -0.68195250915E+01 -0.54160157566E+02  0.19885363134E+02  0.58096955661E+02  0.00000000000E+00 0. -1.
        -13    1    5    5    0    0 -0.15361055012E+03 -0.21404618313E+03  0.28248543655E+03  0.38627709158E+03  0.00000000000E+00 0.  1.
          1    1    6    6  503    0  0.22576817270E+02  0.21561847236E+03  0.19927331664E+03  0.29446713404E+03  0.00000000000E+00 0. -1.
         -1    1    6    6    0  503  0.14949339487E+03  0.38563515680E+03  0.30116232129E+03  0.51162632168E+03  0.00000000000E+00 0.  1.
<mgrwt>
<rscale>  0 0.14311769E+04</rscale>
<asrwt>0</asrwt>
<pdfrwt beam="1">  1        1 0.17871167E+00 0.14311769E+04</pdfrwt>
<pdfrwt beam="2">  1       -2 0.67818316E-01 0.14311769E+04</pdfrwt>
<totfact> 0.19375130E+01</totfact>
</mgrwt>
</event>
<event>
12    5  0.5029243E-008  0.2627631E+04  0.7818608E-02  0.8358876E-01
         -2   -1    0    0    0  501 -0.00000000000E+00  0.00000000000E+00  0.15946168346E+04  0.15946168346E+04  0.00000000000E+00 0.  1.
          1   -1    0    0  501    0  0.00000000000E+00 -0.00000000000E+00 -0.10824618014E+04  0.10824618014E+04  0.00000000000E+00 0. -1.
        -24    2    1    2    0    0 -0.12342478840E+03 -0.83166177147E+03  0.10370960411E+04  0.13372026170E+04  0.75150914004E+02 0.  0.
        254    2    1    2    0    0  0.12342478840E+03  0.83166177147E+03 -0.52494100794E+03  0.13398760190E+04  0.90155959535E+03 0.  0.
         23    2    4    4    0    0  0.17151002982E+03  0.32281593893E+03  0.21659838189E+03  0.43466398617E+03  0.91608411621E+02 0.  0.
         23    2    4    4    0    0 -0.48085241417E+02  0.50884583253E+03 -0.74153938983E+03  0.90521203284E+03  0.91059793479E+02 0.  0.
          3    1    3    3  502    0 -0.86801299950E+02 -0.55230595017E+03  0.74396108833E+03  0.93062045390E+03  0.00000000000E+00 0. -1.
         -4    1    3    3    0  502 -0.36623488451E+02 -0.27935582130E+03  0.29313495278E+03  0.40658216309E+03  0.00000000000E+00 0.  1.
         13    1    5    5    0    0  0.17216735204E+02  0.93256211038E+02  0.24624358577E+02  0.97977017222E+02  0.00000000000E+00 0. -1.
        -13    1    5    5    0    0  0.15429329461E+03  0.22955972789E+03  0.19197402331E+03  0.33668696895E+03  0.00000000000E+00 0.  1.
          3    1    6    6  503    0  0.15802415233E+02  0.80574787294E+02 -0.80578614765E+02  0.11504314770E+03  0.00000000000E+00 0. -1.
         -3    1    6    6    0  503 -0.63887656650E+02  0.42827104524E+03 -0.66096077507E+03  0.79016888514E+03  0.00000000000E+00 0.  1.
<mgrwt>
<rscale>  0 0.26276315E+04</rscale>
<asrwt>0</asrwt>
<pdfrwt beam="1">  1        1 0.16653258E+00 0.26276315E+04</pdfrwt>
<pdfrwt beam="2">  1       -2 0.24532567E+00 0.26276315E+04</pdfrwt>
<totfact> 0.69190203E-01</totfact>
</mgrwt>
</event>
<event>
12    5  0.5029243E-008  0.2351129E+04  0.7818608E-02  0.8458030E-01
          1   -1    0    0  501    0  0.00000000000E+00  0.00000000000E+00  0.35865774632E+04  0.35865774632E+04  0.00000000000E+00 0. -1.
         -4   -1    0    0    0  501 -0.00000000000E+00 -0.00000000000E+00 -0.38531220470E+03  0.38531220470E+03  0.00000000000E+00 0.  1.
        -24    2    1    2    0    0 -0.42522887506E+03 -0.30901646862E+03 -0.74662288986E+02  0.53661652560E+03  0.77923450165E+02 0.  0.
        254    2    1    2    0    0  0.42522887506E+03  0.30901646862E+03  0.32759275475E+04  0.34352731423E+04  0.89055572079E+03 0.  0.
         23    2    4    4    0    0  0.20220575549E+03 -0.30110579745E+03  0.10799962897E+04  0.11431671626E+04  0.94272514526E+02 0.  0.
         23    2    4    4    0    0  0.22302311957E+03  0.61012226607E+03  0.21959312578E+04  0.22921059798E+04  0.98220374857E+02 0.  0.
          3    1    3    3  502    0 -0.58421724766E+01 -0.22974246355E+02 -0.47751079638E+01  0.24181576270E+02  0.00000000000E+00 0. -1.
         -4    1    3    3    0  502 -0.41938670258E+03 -0.28604222226E+03 -0.69887181022E+02  0.51243494933E+03  0.00000000000E+00 0.  1.
         13    1    5    5    0    0  0.67101755457E+02 -0.18381206207E+03  0.58077892522E+03  0.61285698147E+03  0.00000000000E+00 0.  1.
        -13    1    5    5    0    0  0.13510400004E+03 -0.11729373538E+03  0.49921736450E+03  0.53031018112E+03  0.00000000000E+00 0. -1.
          4    1    6    6  503    0  0.35649049014E+02  0.22781438250E+03  0.72356690060E+03  0.75942037583E+03  0.00000000000E+00 0. -1.
         -4    1    6    6    0  503  0.18737407055E+03  0.38230788356E+03  0.14723643572E+04  0.15326856039E+04  0.00000000000E+00 0.  1.
<mgrwt>
<rscale>  0 0.23511291E+04</rscale>
<asrwt>0</asrwt>
<pdfrwt beam="1">  1        1 0.55178112E+00 0.23511291E+04</pdfrwt>
<pdfrwt beam="2">  1       -4 0.59278803E-01 0.23511291E+04</pdfrwt>
<totfact> 0.25791476E-01</totfact>
</mgrwt>
</event>
<event>
12    5  0.5029243E-008  0.1307732E+04  0.7818608E-02  0.9023456E-01
          1   -1    0    0  501    0  0.00000000000E+00  0.00000000000E+00  0.22458136880E+04  0.22458136880E+04  0.00000000000E+00 0. -1.
         -2   -1    0    0    0  501 -0.00000000000E+00 -0.00000000000E+00 -0.19037245270E+03  0.19037245270E+03  0.00000000000E+00 0.  1.
        -24    2    1    2    0    0 -0.10695806656E+03 -0.29577573936E+03  0.29090747739E+03  0.43469741496E+03  0.73561988649E+02 0.  0.
        254    2    1    2    0    0  0.10695806656E+03  0.29577573936E+03  0.17645337579E+04  0.20014887257E+04  0.89076058538E+03 0.  0.
         23    2    4    4    0    0  0.25268919214E+03  0.46487838332E+03  0.16547261016E+04  0.17394240032E+04  0.86681327579E+02 0.  0.
         23    2    4    4    0    0 -0.14573112558E+03 -0.16910264396E+03  0.10980765631E+03  0.26206472252E+03  0.82382839539E+02 0.  0.
          1    1    3    3  502    0 -0.61263571334E+02 -0.79800942217E+02  0.11197774102E+03  0.15053381691E+03  0.00000000000E+00 0. -1.
         -2    1    3    3    0  502 -0.45694495224E+02 -0.21597479715E+03  0.17892973637E+03  0.28416359805E+03  0.00000000000E+00 0.  1.
         13    1    5    5    0    0  0.35590626724E+02  0.81004218774E+02  0.39325803390E+03  0.40308839899E+03  0.00000000000E+00 0. -1.
        -13    1    5    5    0    0  0.21709856541E+03  0.38387416455E+03  0.12614680677E+04  0.13363356042E+04  0.00000000000E+00 0.  1.
          4    1    6    6  503    0 -0.10182235097E+03 -0.55083713069E+02  0.52952122322E+02  0.12730252889E+03  0.00000000000E+00 0.  1.
         -4    1    6    6    0  503 -0.43908774610E+02 -0.11401893089E+03  0.56855533989E+02  0.13476219364E+03  0.00000000000E+00 0. -1.
<mgrwt>
<rscale>  0 0.13077325E+04</rscale>
<asrwt>0</asrwt>
<pdfrwt beam="1">  1        1 0.34550978E+00 0.13077325E+04</pdfrwt>
<pdfrwt beam="2">  1       -2 0.29288071E-01 0.13077325E+04</pdfrwt>
<totfact> 0.18790692E+01</totfact>
</mgrwt>
</event>
<event>
12    5  0.5029243E-008  0.1575142E+04  0.7818608E-02  0.8835966E-01
          1   -1    0    0  501    0  0.00000000000E+00  0.00000000000E+00  0.36638284832E+03  0.36638284832E+03  0.00000000000E+00 0. -1.
         -2   -1    0    0    0  501 -0.00000000000E+00 -0.00000000000E+00 -0.16929515039E+04  0.16929515039E+04  0.00000000000E+00 0.  1.
        -24    2    1    2    0    0  0.27242712563E+03 -0.45817788112E+03 -0.47651080682E+03  0.71948446720E+03  0.80323346448E+02 0.  0.
        254    2    1    2    0    0 -0.27242712563E+03  0.45817788112E+03 -0.85005784875E+03  0.13398498850E+04  0.88795036946E+03 0.  0.
         23    2    4    4    0    0  0.25299129908E+03 -0.65579326593E+02 -0.14633989923E+03  0.31315999892E+03  0.91370527708E+02 0.  0.
         23    2    4    4    0    0 -0.52541842471E+03  0.52375720772E+03 -0.70371794952E+03  0.10266898861E+04  0.92125110969E+02 0.  0.
          3    1    3    3  502    0  0.47583915437E+01 -0.50221652865E+02 -0.34490888964E+02  0.61110376600E+02  0.00000000000E+00 0. -1.
         -4    1    3    3    0  502  0.26766873409E+03 -0.40795622826E+03 -0.44201991786E+03  0.65837409060E+03  0.00000000000E+00 0.  1.
         13    1    5    5    0    0  0.21345072689E+03 -0.87066257517E+02 -0.11055182431E+03  0.25566276981E+03  0.00000000000E+00 0. -1.
        -13    1    5    5    0    0  0.39540572186E+02  0.21486930924E+02 -0.35788074915E+02  0.57497229111E+02  0.00000000000E+00 0.  1.
          4    1    6    6  503    0  0.15042674116E+01  0.13330813211E+02 -0.78433228369E+01  0.15539984377E+02  0.00000000000E+00 0.  1.
         -4    1    6    6    0  503 -0.52692269212E+03  0.51042639451E+03 -0.69587462668E+03  0.10111499017E+04  0.00000000000E+00 0. -1.
<mgrwt>
<rscale>  0 0.15751424E+04</rscale>
<asrwt>0</asrwt>
<pdfrwt beam="1">  1        1 0.56366592E-01 0.15751424E+04</pdfrwt>
<pdfrwt beam="2">  1       -2 0.26045408E+00 0.15751424E+04</pdfrwt>
<totfact> 0.31433880E+00</totfact>
</mgrwt>
</event>
<event>
12    5  0.5029243E-008  0.1352075E+04  0.7818608E-02  0.8989259E-01
          1   -1    0    0  501    0  0.00000000000E+00  0.00000000000E+00  0.19202395535E+04  0.19202395535E+04  0.00000000000E+00 0. -1.
         -2   -1    0    0    0  501 -0.00000000000E+00 -0.00000000000E+00 -0.23800508934E+03  0.23800508934E+03  0.00000000000E+00 0.  1.
        -24    2    1    2    0    0 -0.73143013206E+02  0.29740847358E+03  0.80320024795E+03  0.86273098099E+03  0.73296703387E+02 0.  0.
        254    2    1    2    0    0  0.73143013206E+02 -0.29740847358E+03  0.87903421625E+03  0.12955136619E+04  0.90102874220E+03 0.  0.
         23    2    4    4    0    0  0.32613546224E+03 -0.68059843051E+02  0.87600234165E+03  0.94161608528E+03  0.90908016774E+02 0.  0.
         23    2    4    4    0    0 -0.25299244904E+03 -0.22934863053E+03  0.30318746042E+01  0.35389757661E+03  0.92888798424E+02 0.  0.
          3    1    3    3  502    0 -0.55631369516E+02  0.13599852479E+03  0.46335696245E+03  0.48609682438E+03  0.00000000000E+00 0. -1.
         -4    1    3    3    0  502 -0.17511643690E+02  0.16140994879E+03  0.33984328550E+03  0.37663415662E+03  0.00000000000E+00 0.  1.
         13    1    5    5    0    0  0.55139572870E+01 -0.12678785615E+02  0.11744921459E+02  0.18141072452E+02  0.00000000000E+00 0. -1.
        -13    1    5    5    0    0  0.32062150496E+03 -0.55381057436E+02  0.86425742019E+03  0.92347501283E+03  0.00000000000E+00 0.  1.
          2    1    6    6  503    0 -0.35602260454E+02 -0.22585668314E+02 -0.30466269174E+02  0.52017563573E+02  0.00000000000E+00 0. -1.
         -2    1    6    6    0  503 -0.21739018858E+03 -0.20676296221E+03  0.33498143778E+02  0.30188001304E+03  0.00000000000E+00 0.  1.
<mgrwt>
<rscale>  0 0.13520751E+04</rscale>
<asrwt>0</asrwt>
<pdfrwt beam="1">  1        1 0.29542146E+00 0.13520751E+04</pdfrwt>
<pdfrwt beam="2">  1       -2 0.36616169E-01 0.13520751E+04</pdfrwt>
<totfact> 0.20385044E+01</totfact>
</mgrwt>
</event>
<event>
12    5  0.5029243E-008  0.2484100E+04  0.7818608E-02  0.8408672E-01
         -2   -1    0    0    0  501 -0.00000000000E+00  0.00000000000E+00  0.12681054217E+04  0.12681054217E+04  0.00000000000E+00 0.  1.
          1   -1    0    0  501    0  0.00000000000E+00 -0.00000000000E+00 -0.12165299141E+04  0.12165299141E+04  0.00000000000E+00 0. -1.
        -24    2    1    2    0    0 -0.35034309591E+03  0.83046627202E+03 -0.56914999502E+03  0.10704488832E+04  0.97542712999E+02 0.  0.
        254    2    1    2    0    0  0.35034309591E+03 -0.83046627202E+03  0.62072550264E+03  0.14141864527E+04  0.89566101815E+03 0.  0.
         23    2    4    4    0    0  0.36457913687E+03 -0.67527548495E+02  0.51275809595E+03  0.63937609473E+03  0.91667926215E+02 0.  0.
         23    2    4    4    0    0 -0.14236040957E+02 -0.76293872352E+03  0.10796740669E+03  0.77481035793E+03  0.79974803135E+02 0.  0.
          3    1    3    3  502    0 -0.24935356209E+03  0.52172162371E+03 -0.31861055203E+03  0.66021461317E+03  0.00000000000E+00 0. -1.
         -4    1    3    3    0  502 -0.10098953382E+03  0.30874464831E+03 -0.25053944299E+03  0.41023427001E+03  0.00000000000E+00 0.  1.
         13    1    5    5    0    0  0.13284354407E+03 -0.56992757099E+02  0.14630928766E+03  0.20567447391E+03  0.00000000000E+00 0. -1.
        -13    1    5    5    0    0  0.23173559280E+03 -0.10534791397E+02  0.36644880829E+03  0.43370162082E+03  0.00000000000E+00 0.  1.
          2    1    6    6  503    0 -0.32625488610E+02 -0.20976964984E+03  0.51601273337E+02  0.21847292718E+03  0.00000000000E+00 0. -1.
         -2    1    6    6    0  503  0.18389447653E+02 -0.55316907368E+03  0.56366133352E+02  0.55633743075E+03  0.00000000000E+00 0.  1.
<mgrwt>
<rscale>  0 0.24841000E+04</rscale>
<asrwt>0</asrwt>
<pdfrwt beam="1">  1        1 0.18715845E+00 0.24841000E+04</pdfrwt>
<pdfrwt beam="2">  1       -2 0.19509314E+00 0.24841000E+04</pdfrwt>
<totfact> 0.11626329E+00</totfact>
</mgrwt>
</event>
<event>
12    5  0.5029243E-008  0.1361142E+04  0.7818608E-02  0.8982437E-01
          1   -1    0    0  501    0  0.00000000000E+00  0.00000000000E+00  0.28734605100E+04  0.28734605100E+04  0.00000000000E+00 0. -1.
         -2   -1    0    0    0  501 -0.00000000000E+00 -0.00000000000E+00 -0.16119123320E+03  0.16119123320E+03  0.00000000000E+00 0.  1.
        -24    2    1    2    0    0 -0.13431157748E+03 -0.19091273874E+03  0.14577720272E+04  0.14785319210E+04  0.80436836038E+02 0.  0.
        254    2    1    2    0    0  0.13431157748E+03  0.19091273874E+03  0.12544972497E+04  0.15561198222E+04  0.89065048030E+03 0.  0.
         23    2    4    4    0    0 -0.27379678659E+03  0.24416621826E+03  0.98628077300E+03  0.10563886964E+04  0.92873528178E+02 0.  0.
         23    2    4    4    0    0  0.40810836407E+03 -0.53253479518E+02  0.26821647666E+03  0.49973112581E+03  0.91666514323E+02 0.  0.
          3    1    3    3  502    0 -0.13399733060E+03 -0.18309388683E+03  0.12379185998E+04  0.12585392785E+04  0.00000000000E+00 0. -1.
         -4    1    3    3    0  502 -0.31424687485E+00 -0.78188519115E+01  0.21985342742E+03  0.21999264248E+03  0.00000000000E+00 0.  1.
         13    1    5    5    0    0 -0.23310193794E+03  0.15445473650E+03  0.74706427754E+03  0.79768277772E+03  0.00000000000E+00 0. -1.
        -13    1    5    5    0    0 -0.40694848652E+02  0.89711481761E+02  0.23921649546E+03  0.25870591870E+03  0.00000000000E+00 0.  1.
          1    1    6    6  503    0  0.35891093858E+03 -0.26065068815E+02  0.20127736544E+03  0.41232150985E+03  0.00000000000E+00 0. -1.
         -1    1    6    6    0  503  0.49197425483E+02 -0.27188410703E+02  0.66939111225E+02  0.87409615960E+02  0.00000000000E+00 0.  1.
<mgrwt>
<rscale>  0 0.13611416E+04</rscale>
<asrwt>0</asrwt>
<pdfrwt beam="1">  1        1 0.44207081E+00 0.13611416E+04</pdfrwt>
<pdfrwt beam="2">  1       -2 0.24798654E-01 0.13611416E+04</pdfrwt>
<totfact> 0.92973929E+00</totfact>
</mgrwt>
</event>
<event>
12    5  0.5029243E-008  0.2867425E+04  0.7818608E-02  0.8282636E-01
          1   -1    0    0  501    0  0.00000000000E+00  0.00000000000E+00  0.31482807709E+04  0.31482807709E+04  0.00000000000E+00 0. -1.
         -2   -1    0    0    0  501 -0.00000000000E+00 -0.00000000000E+00 -0.65290591631E+03  0.65290591631E+03  0.00000000000E+00 0.  1.
        -24    2    1    2    0    0 -0.10046028967E+02 -0.12761439574E+04  0.13993230470E+04  0.18955643785E+04  0.80093696327E+02 0.  0.
        254    2    1    2    0    0  0.10046028967E+02  0.12761439574E+04  0.10960518076E+04  0.19056223088E+04  0.89522203730E+03 0.  0.
         23    2    4    4    0    0  0.15575469134E+03  0.17138851084E+03 -0.99952341468E+02  0.26852108836E+03  0.92084519912E+02 0.  0.
         23    2    4    4    0    0 -0.14570866237E+03  0.11047554466E+04  0.11960041490E+04  0.16371012204E+04  0.89212501093E+02 0.  0.
          3    1    3    3  502    0 -0.55427956487E+01 -0.12242614359E+04  0.13169628667E+04  0.17981206796E+04  0.00000000000E+00 0. -1.
         -4    1    3    3    0  502 -0.45032333179E+01 -0.51882521491E+02  0.82360180348E+02  0.97443698891E+02  0.00000000000E+00 0.  1.
         13    1    5    5    0    0  0.16011919159E+03  0.17105349323E+03 -0.10904150236E+03  0.25843278101E+03  0.00000000000E+00 0. -1.
        -13    1    5    5    0    0 -0.43645002587E+01  0.33501760621E+00  0.90891608963E+01  0.10088307346E+02  0.00000000000E+00 0.  1.
          4    1    6    6  503    0 -0.11647235914E+03  0.94589349713E+03  0.10646766204E+04  0.14289214899E+04  0.00000000000E+00 0. -1.
         -4    1    6    6    0  503 -0.29236303226E+02  0.15886194944E+03  0.13132752863E+03  0.20817973047E+03  0.00000000000E+00 0.  1.
<mgrwt>
<rscale>  0 0.28674247E+04</rscale>
<asrwt>0</asrwt>
<pdfrwt beam="1">  1        1 0.48435088E+00 0.28674247E+04</pdfrwt>
<pdfrwt beam="2">  1       -2 0.10044707E+00 0.28674247E+04</pdfrwt>
<totfact> 0.28747450E-01</totfact>
</mgrwt>
</event>
<event>
12    5  0.5029243E-008  0.2335737E+04  0.7818608E-02  0.8463962E-01
         -2   -1    0    0    0  501 -0.00000000000E+00  0.00000000000E+00  0.23157042238E+04  0.23157042238E+04  0.00000000000E+00 0.  1.
          1   -1    0    0  501    0  0.00000000000E+00 -0.00000000000E+00 -0.58898587738E+03  0.58898587738E+03  0.00000000000E+00 0. -1.
        -24    2    1    2    0    0 -0.22843564461E+03 -0.58392665296E+03  0.17523448319E+04  0.18628209226E+04  0.78969613833E+02 0.  0.
        254    2    1    2    0    0  0.22843564461E+03  0.58392665296E+03 -0.25626485507E+02  0.10418691786E+04  0.83167390770E+03 0.  0.
         23    2    4    4    0    0  0.43972404333E+03  0.64026134462E+03  0.71752450872E+02  0.78504579894E+03  0.88637850416E+02 0.  0.
         23    2    4    4    0    0 -0.21128839872E+03 -0.56334691661E+02 -0.97378936379E+02  0.25682337964E+03  0.93054855653E+02 0.  0.
          3    1    3    3  502    0 -0.75572595403E+02 -0.28958889588E+03  0.77852884811E+03  0.83407440504E+03  0.00000000000E+00 0. -1.
         -4    1    3    3    0  502 -0.15286304921E+03 -0.29433775708E+03  0.97381598381E+03  0.10287465176E+04  0.00000000000E+00 0.  1.
         13    1    5    5    0    0  0.13271564679E+03  0.23711466073E+03 -0.91965266858E+01  0.27188486780E+03  0.00000000000E+00 0. -1.
        -13    1    5    5    0    0  0.30700839654E+03  0.40314668389E+03  0.80948977558E+02  0.51316093114E+03  0.00000000000E+00 0.  1.
          4    1    6    6  503    0 -0.65410744853E+02 -0.15443141926E+02  0.14169616632E+02  0.68686492197E+02  0.00000000000E+00 0. -1.
         -4    1    6    6    0  503 -0.14587765387E+03 -0.40891549735E+02 -0.11154855301E+03  0.18813688744E+03  0.00000000000E+00 0.  1.
<mgrwt>
<rscale>  0 0.23357372E+04</rscale>
<asrwt>0</asrwt>
<pdfrwt beam="1">  1        1 0.90613213E-01 0.23357372E+04</pdfrwt>
<pdfrwt beam="2">  1       -2 0.35626218E+00 0.23357372E+04</pdfrwt>
<totfact> 0.39483867E-01</totfact>
</mgrwt>
</event>
<event>
12    5  0.5029243E-008  0.2332796E+04  0.7818608E-02  0.8465101E-01
         -4   -1    0    0    0  501 -0.00000000000E+00  0.00000000000E+00  0.15830669965E+04  0.15830669965E+04  0.00000000000E+00 0.  1.
          3   -1    0    0  501    0  0.00000000000E+00 -0.00000000000E+00 -0.85939792379E+03  0.85939792379E+03  0.00000000000E+00 0. -1.
        -24    2    1    2    0    0 -0.23254687909E+03 -0.98379389880E+03  0.39549542224E+03  0.10884064763E+04  0.79268798241E+02 0.  0.
        254    2    1    2    0    0  0.23254687909E+03  0.98379389880E+03  0.32817365043E+03  0.13540584439E+04  0.83895639846E+03 0.  0.
         23    2    4    4    0    0  0.15837807030E+03 -0.10810703685E+03  0.54299324587E+01  0.20967266359E+03  0.84630946599E+02 0.  0.
         23    2    4    4    0    0  0.74168808789E+02  0.10919009356E+04  0.32274371797E+03  0.11443857804E+04  0.87787478256E+02 0.  0.
          3    1    3    3  502    0 -0.14247488499E+03 -0.64525987189E+03  0.21901175127E+03  0.69615051700E+03  0.00000000000E+00 0. -1.
         -4    1    3    3    0  502 -0.90071994102E+02 -0.33853402690E+03  0.17648367097E+03  0.39225595930E+03  0.00000000000E+00 0.  1.
         13    1    5    5    0    0 -0.52750831349E+00  0.10134653847E+02  0.56222187037E+01  0.11601673016E+02  0.00000000000E+00 0. -1.
        -13    1    5    5    0    0  0.15890557862E+03 -0.11824169070E+03 -0.19228624502E+00  0.19807099058E+03  0.00000000000E+00 0.  1.
          3    1    6    6  503    0  0.75586595715E+02  0.50327835723E+03  0.13454634066E+03  0.52640778499E+03  0.00000000000E+00 0. -1.
         -3    1    6    6    0  503 -0.14177869259E+01  0.58862257841E+03  0.18819737731E+03  0.61797799537E+03  0.00000000000E+00 0.  1.
<mgrwt>
<rscale>  0 0.23327962E+04</rscale>
<asrwt>0</asrwt>
<pdfrwt beam="1">  1        3 0.13221507E+00 0.23327962E+04</pdfrwt>
<pdfrwt beam="2">  1       -4 0.24354877E+00 0.23327962E+04</pdfrwt>
<totfact> 0.63691229E-02</totfact>
</mgrwt>
</event>
<event>
12    5  0.5029243E-008  0.1514389E+04  0.7818608E-02  0.8874940E-01
          1   -1    0    0  501    0  0.00000000000E+00  0.00000000000E+00  0.98162049892E+03  0.98162049892E+03  0.00000000000E+00 0. -1.
         -2   -1    0    0    0  501 -0.00000000000E+00 -0.00000000000E+00 -0.58407872992E+03  0.58407872992E+03  0.00000000000E+00 0.  1.
        -24    2    1    2    0    0  0.40686437964E+03 -0.25377867765E+03 -0.63046940889E+02  0.49017723478E+03  0.79728063410E+02 0.  0.
        254    2    1    2    0    0 -0.40686437964E+03  0.25377867765E+03  0.46058870989E+03  0.10755219941E+04  0.84537764306E+03 0.  0.
         23    2    4    4    0    0  0.20548251843E+03 -0.10454942728E+03  0.52534506793E+02  0.25276763544E+03  0.89319398779E+02 0.  0.
         23    2    4    4    0    0 -0.61234689806E+03  0.35832810493E+03  0.40805420309E+03  0.82275435863E+03  0.83956820011E+02 0.  0.
          3    1    3    3  502    0  0.11788934503E+02 -0.25277880764E+02  0.61601705184E+01  0.28563927136E+02  0.00000000000E+00 0. -1.
         -4    1    3    3    0  502  0.39507544513E+03 -0.22850079689E+03 -0.69207111408E+02  0.46161330765E+03  0.00000000000E+00 0.  1.
         13    1    5    5    0    0  0.52784653354E+02 -0.68943335517E+02 -0.17352021637E+01  0.86847072884E+02  0.00000000000E+00 0.  1.
        -13    1    5    5    0    0  0.15269786507E+03 -0.35606091759E+02  0.54269708957E+02  0.16592056255E+03  0.00000000000E+00 0. -1.
          2    1    6    6  503    0 -0.37397988331E+03  0.24918737817E+03  0.29286014434E+03  0.53639758268E+03  0.00000000000E+00 0.  1.
         -2    1    6    6    0  503 -0.23836701475E+03  0.10914072676E+03  0.11519405875E+03  0.28635677595E+03  0.00000000000E+00 0. -1.
<mgrwt>
<rscale>  0 0.15143892E+04</rscale>
<asrwt>0</asrwt>
<pdfrwt beam="1">  1        1 0.15101854E+00 0.15143892E+04</pdfrwt>
<pdfrwt beam="2">  1       -2 0.89858266E-01 0.15143892E+04</pdfrwt>
<totfact> 0.14053894E+01</totfact>
</mgrwt>
</event>
<event>
12    5  0.5029243E-008  0.1850916E+04  0.7818608E-02  0.8679682E-01
          1   -1    0    0  501    0  0.00000000000E+00  0.00000000000E+00  0.12311862054E+04  0.12311862054E+04  0.00000000000E+00 0. -1.
         -2   -1    0    0    0  501 -0.00000000000E+00 -0.00000000000E+00 -0.69564815958E+03  0.69564815958E+03  0.00000000000E+00 0.  1.
        -24    2    1    2    0    0  0.64278496055E+03  0.70123937643E+02 -0.84807383996E+02  0.65686288146E+03  0.78655454486E+02 0.  0.
        254    2    1    2    0    0 -0.64278496055E+03 -0.70123937643E+02  0.62034542979E+03  0.12699714835E+04  0.89994957887E+03 0.  0.
         23    2    4    4    0    0 -0.24025662823E+03  0.28155411743E+02  0.77607739876E+03  0.81768256733E+03  0.88276143018E+02 0.  0.
         23    2    4    4    0    0 -0.40252833232E+03 -0.98279349386E+02 -0.15573196898E+03  0.45228891617E+03  0.92870494196E+02 0.  0.
          3    1    3    3  502    0  0.35962474951E+03  0.34766810127E+01 -0.30433351804E+02  0.36092691320E+03  0.00000000000E+00 0. -1.
         -4    1    3    3    0  502  0.28316021104E+03  0.66647256630E+02 -0.54374032192E+02  0.29593596825E+03  0.00000000000E+00 0.  1.
         13    1    5    5    0    0 -0.15668068805E+03  0.60402132406E+02  0.50799730828E+03  0.53503132696E+03  0.00000000000E+00 0.  1.
        -13    1    5    5    0    0 -0.83575940180E+02 -0.32246720662E+02  0.26808009048E+03  0.28265124037E+03  0.00000000000E+00 0. -1.
          3    1    6    6  503    0 -0.30718428338E+03 -0.32842603160E+02 -0.11664150859E+03  0.33022123200E+03  0.00000000000E+00 0. -1.
         -3    1    6    6    0  503 -0.95344048939E+02 -0.65436746226E+02 -0.39090460384E+02  0.12206768417E+03  0.00000000000E+00 0.  1.
<mgrwt>
<rscale>  0 0.18509159E+04</rscale>
<asrwt>0</asrwt>
<pdfrwt beam="1">  1        1 0.18941326E+00 0.18509159E+04</pdfrwt>
<pdfrwt beam="2">  1       -2 0.10702279E+00 0.18509159E+04</pdfrwt>
<totfact> 0.58676439E+00</totfact>
</mgrwt>
</event>
<event>
12    5  0.5029243E-008  0.2883302E+04  0.7818608E-02  0.8277863E-01
         -2   -1    0    0    0  501 -0.00000000000E+00  0.00000000000E+00  0.11598612505E+04  0.11598612505E+04  0.00000000000E+00 0.  1.
          1   -1    0    0  501    0  0.00000000000E+00 -0.00000000000E+00 -0.17919015227E+04  0.17919015227E+04  0.00000000000E+00 0. -1.
        -24    2    1    2    0    0  0.39011637849E+03  0.10787556515E+04  0.34373206504E+03  0.12002717679E+04  0.81216008367E+02 0.  0.
        254    2    1    2    0    0 -0.39011637849E+03 -0.10787556515E+04 -0.97577233727E+03  0.17514910052E+04  0.89425082772E+03 0.  0.
         23    2    4    4    0    0 -0.62512559688E+03 -0.45838283307E+03 -0.59700483550E+03  0.98192549409E+03  0.82861745159E+02 0.  0.
         23    2    4    4    0    0  0.23500921839E+03 -0.62037281840E+03 -0.37876750177E+03  0.76956551114E+03  0.93136936837E+02 0.  0.
          3    1    3    3  502    0  0.80420673091E+02  0.17188863847E+03  0.31290362989E+02  0.19233376072E+03  0.00000000000E+00 0. -1.
         -2    1    3    3    0  502  0.30969570540E+03  0.90686701299E+03  0.31244170205E+03  0.10079380072E+04  0.00000000000E+00 0.  1.
         13    1    5    5    0    0 -0.26914136384E+03 -0.24524687639E+03 -0.29763744653E+03  0.47028837290E+03  0.00000000000E+00 0.  1.
        -13    1    5    5    0    0 -0.35598423304E+03 -0.21313595668E+03 -0.29936738896E+03  0.51163712118E+03  0.00000000000E+00 0. -1.
          3    1    6    6  503    0  0.13734273885E+03 -0.46165668822E+03 -0.24671598939E+03  0.54116421270E+03  0.00000000000E+00 0. -1.
         -3    1    6    6    0  503  0.97666479537E+02 -0.15871613018E+03 -0.13205151238E+03  0.22840129843E+03  0.00000000000E+00 0.  1.
<mgrwt>
<rscale>  0 0.28833017E+04</rscale>
<asrwt>0</asrwt>
<pdfrwt beam="1">  1        1 0.27567716E+00 0.28833017E+04</pdfrwt>
<pdfrwt beam="2">  1       -2 0.17844019E+00 0.28833017E+04</pdfrwt>
<totfact> 0.57941770E-01</totfact>
</mgrwt>
</event>
<event>
12    5  0.5029243E-008  0.3067974E+04  0.7818608E-02  0.8224583E-01
          1   -1    0    0  501    0  0.00000000000E+00  0.00000000000E+00  0.18905008444E+04  0.18905008444E+04  0.00000000000E+00 0. -1.
         -2   -1    0    0    0  501 -0.00000000000E+00 -0.00000000000E+00 -0.12447051173E+04  0.12447051173E+04  0.00000000000E+00 0.  1.
        -24    2    1    2    0    0  0.18869281831E+03 -0.13663015793E+04  0.31946174390E+02  0.13818651554E+04  0.78394926804E+02 0.  0.
        254    2    1    2    0    0 -0.18869281831E+03  0.13663015793E+04  0.61384955272E+03  0.17533408063E+04  0.89163205658E+03 0.  0.
         23    2    4    4    0    0 -0.15507167669E+02  0.11717091260E+04  0.79921725488E+03  0.14213587338E+04  0.91485963237E+02 0.  0.
         23    2    4    4    0    0 -0.17318565064E+03  0.19459245325E+03 -0.18536770216E+03  0.33198207244E+03  0.89394736789E+02 0.  0.
          1    1    3    3  502    0  0.41695892657E+02 -0.43586757837E+03 -0.21414260573E+02  0.43838072938E+03  0.00000000000E+00 0. -1.
         -2    1    3    3    0  502  0.14699692565E+03 -0.93043400091E+03  0.53360434963E+02  0.94348442606E+03  0.00000000000E+00 0.  1.
         13    1    5    5    0    0  0.10306799420E+02  0.96701026349E+03  0.62628169298E+03  0.11521474900E+04  0.00000000000E+00 0. -1.
        -13    1    5    5    0    0 -0.25813967089E+02  0.20469886254E+03  0.17293556190E+03  0.26921124380E+03  0.00000000000E+00 0.  1.
          2    1    6    6  503    0 -0.17328238873E+03  0.18383556546E+03 -0.19372670843E+03  0.31835882103E+03  0.00000000000E+00 0. -1.
         -2    1    6    6    0  503  0.96738082566E-01  0.10756887791E+02  0.83590062648E+01  0.13623251408E+02  0.00000000000E+00 0.  1.
<mgrwt>
<rscale>  0 0.30679740E+04</rscale>
<asrwt>0</asrwt>
<pdfrwt beam="1">  1        1 0.29084628E+00 0.30679740E+04</pdfrwt>
<pdfrwt beam="2">  1       -2 0.19149310E+00 0.30679740E+04</pdfrwt>
<totfact> 0.39839070E-01</totfact>
</mgrwt>
</event>
<event>
12    5  0.5029243E-008  0.1302210E+04  0.7818608E-02  0.9027814E-01
          1   -1    0    0  501    0  0.00000000000E+00  0.00000000000E+00  0.12937410632E+04  0.12937410632E+04  0.00000000000E+00 0. -1.
         -2   -1    0    0    0  501 -0.00000000000E+00 -0.00000000000E+00 -0.32768362368E+03  0.32768362368E+03  0.00000000000E+00 0.  1.
        -24    2    1    2    0    0  0.27974563151E+02  0.22070980254E+03 -0.55345559598E+02  0.24042174023E+03  0.72416083082E+02 0.  0.
        254    2    1    2    0    0 -0.27974563151E+02 -0.22070980254E+03  0.10214029991E+04  0.13810029466E+04  0.90244648533E+03 0.  0.
         23    2    4    4    0    0 -0.14042365705E+03 -0.49061834009E+03  0.92406225077E+03  0.10597162705E+04  0.93179244368E+02 0.  0.
         23    2    4    4    0    0  0.11244909390E+03  0.26990853755E+03  0.97340748312E+02  0.32128667610E+03  0.90854221688E+02 0.  0.
          3    1    3    3  502    0 -0.69110931474E+00  0.29871652881E+02  0.16941246211E+02  0.34348203754E+02  0.00000000000E+00 0. -1.
         -4    1    3    3    0  502  0.28665672466E+02  0.19083814966E+03 -0.72286805809E+02  0.20607353648E+03  0.00000000000E+00 0.  1.
         13    1    5    5    0    0 -0.90994813420E+02 -0.33159963980E+03  0.52831753065E+03  0.63036322098E+03  0.00000000000E+00 0. -1.
        -13    1    5    5    0    0 -0.49428843632E+02 -0.15901870029E+03  0.39574472012E+03  0.42935304952E+03  0.00000000000E+00 0.  1.
          2    1    6    6  503    0  0.65982433765E+02  0.18441708826E+03  0.10754697681E+03  0.22344953844E+03  0.00000000000E+00 0. -1.
         -2    1    6    6    0  503  0.46466660135E+02  0.85491449291E+02 -0.10206228501E+02  0.97837137664E+02  0.00000000000E+00 0.  1.
<mgrwt>
<rscale>  0 0.13022101E+04</rscale>
<asrwt>0</asrwt>
<pdfrwt beam="1">  1        1 0.19903708E+00 0.13022101E+04</pdfrwt>
<pdfrwt beam="2">  1       -2 0.50412866E-01 0.13022101E+04</pdfrwt>
<totfact> 0.29303337E+01</totfact>
</mgrwt>
</event>
<event>
12    5  0.5029243E-008  0.1564286E+04  0.7818608E-02  0.8842794E-01
         -2   -1    0    0    0  501 -0.00000000000E+00  0.00000000000E+00  0.98895729016E+03  0.98895729016E+03  0.00000000000E+00 0.  1.
          1   -1    0    0  501    0  0.00000000000E+00 -0.00000000000E+00 -0.61857851085E+03  0.61857851085E+03  0.00000000000E+00 0. -1.
        -24    2    1    2    0    0 -0.30670863185E+03 -0.18842609230E+03 -0.24816406280E+03  0.44454867729E+03  0.80396189647E+02 0.  0.
        254    2    1    2    0    0  0.30670863185E+03  0.18842609230E+03  0.61854284211E+03  0.11629871237E+04  0.91671654578E+03 0.  0.
         23    2    4    4    0    0  0.12076396878E+03  0.14633807299E+03  0.83403432472E+03  0.86022165510E+03  0.91483732607E+02 0.  0.
         23    2    4    4    0    0  0.18594466307E+03  0.42088019309E+02 -0.21549148261E+03  0.30276546862E+03  0.94252484406E+02 0.  0.
          1    1    3    3  502    0 -0.29945581543E+03 -0.17857263552E+03 -0.21601881507E+03  0.41015375168E+03  0.00000000000E+00 0. -1.
         -2    1    3    3    0  502 -0.72528164171E+01 -0.98534567756E+01 -0.32145247729E+02  0.34394925613E+02  0.00000000000E+00 0.  1.
         13    1    5    5    0    0 -0.82585721180E-01  0.37506088102E+02  0.73761776339E+02  0.82749701593E+02  0.00000000000E+00 0. -1.
        -13    1    5    5    0    0  0.12084655450E+03  0.10883198489E+03  0.76027254838E+03  0.77747195350E+03  0.00000000000E+00 0.  1.
          2    1    6    6  503    0  0.52729438488E+02 -0.60399543850E+01 -0.11312144465E+02  0.54266373977E+02  0.00000000000E+00 0. -1.
         -2    1    6    6    0  503  0.13321522458E+03  0.48127973694E+02 -0.20417933814E+03  0.24849909464E+03  0.00000000000E+00 0.  1.
<mgrwt>
<rscale>  0 0.15642861E+04</rscale>
<asrwt>0</asrwt>
<pdfrwt beam="1">  1        1 0.95165925E-01 0.15642861E+04</pdfrwt>
<pdfrwt beam="2">  1       -2 0.15214728E+00 0.15642861E+04</pdfrwt>
<totfact> 0.79556934E+00</totfact>
</mgrwt>
</event>
<event>
12    5  0.5029243E-008  0.1513042E+04  0.7818608E-02  0.8875827E-01
          1   -1    0    0  501    0  0.00000000000E+00  0.00000000000E+00  0.13939107055E+04  0.13939107055E+04  0.00000000000E+00 0. -1.
         -2   -1    0    0    0  501 -0.00000000000E+00 -0.00000000000E+00 -0.41058845814E+03  0.41058845814E+03  0.00000000000E+00 0.  1.
        -24    2    1    2    0    0  0.12037733907E+03  0.38078326708E+03  0.60576493287E+03  0.72979322132E+03  0.78488163041E+02 0.  0.
        254    2    1    2    0    0 -0.12037733907E+03 -0.38078326708E+03  0.37755731446E+03  0.10747059423E+04  0.92355656917E+03 0.  0.
         23    2    4    4    0    0 -0.13149969767E+03 -0.53460057847E+03 -0.97837819712E+02  0.56661777745E+03  0.91616143563E+02 0.  0.
         23    2    4    4    0    0  0.11122358599E+02  0.15381731139E+03  0.47539513417E+03  0.50808816485E+03  0.91485395128E+02 0.  0.
          1    1    3    3  502    0  0.95077665682E+02  0.35754943759E+03  0.57462866759E+03  0.68343212425E+03  0.00000000000E+00 0. -1.
         -2    1    3    3    0  502  0.25299673388E+02  0.23233829490E+02  0.31136265278E+02  0.46361097073E+02  0.00000000000E+00 0.  1.
         13    1    5    5    0    0  0.22727033724E+01 -0.73662140634E+02  0.10893849693E+02  0.74498000675E+02  0.00000000000E+00 0. -1.
        -13    1    5    5    0    0 -0.13377240104E+03 -0.46093843784E+03 -0.10873166941E+03  0.49211977677E+03  0.00000000000E+00 0.  1.
          1    1    6    6  503    0 -0.12880637696E+02 -0.81072570115E+01  0.31819345397E+02  0.35271931974E+02  0.00000000000E+00 0. -1.
         -1    1    6    6    0  503  0.24002996295E+02  0.16192456840E+03  0.44357578877E+03  0.47281623287E+03  0.00000000000E+00 0.  1.
<mgrwt>
<rscale>  0 0.15130415E+04</rscale>
<asrwt>0</asrwt>
<pdfrwt beam="1">  1        1 0.21444780E+00 0.15130415E+04</pdfrwt>
<pdfrwt beam="2">  1       -2 0.63167456E-01 0.15130415E+04</pdfrwt>
<totfact> 0.15269539E+01</totfact>
</mgrwt>
</event>
<event>
12    5  0.5029243E-008  0.2262883E+04  0.7818608E-02  0.8492701E-01
         -2   -1    0    0    0  501 -0.00000000000E+00  0.00000000000E+00  0.12512121545E+04  0.12512121545E+04  0.00000000000E+00 0.  1.
          1   -1    0    0  501    0  0.00000000000E+00 -0.00000000000E+00 -0.10231361493E+04  0.10231361493E+04  0.00000000000E+00 0. -1.
        -24    2    1    2    0    0 -0.37925714447E+03  0.57312404131E+03 -0.56741704867E+03  0.89478278990E+03  0.79793393305E+02 0.  0.
        254    2    1    2    0    0  0.37925714447E+03 -0.57312404131E+03  0.79549305386E+03  0.13795655138E+04  0.89335584170E+03 0.  0.
         23    2    4    4    0    0  0.39887086817E+03 -0.10352676010E+03 -0.34706363562E+02  0.42123685777E+03  0.80126145152E+02 0.  0.
         23    2    4    4    0    0 -0.19613723704E+02 -0.46959728121E+03  0.83019941742E+03  0.95832865608E+03  0.90864931058E+02 0.  0.
          1    1    3    3  502    0 -0.36119711283E+03  0.52741196643E+03 -0.50109352543E+03  0.81223239155E+03  0.00000000000E+00 0. -1.
         -2    1    3    3    0  502 -0.18060031638E+02  0.45712074883E+02 -0.66323523241E+02  0.82550398352E+02  0.00000000000E+00 0.  1.
         13    1    5    5    0    0  0.13775143877E+03 -0.75711517139E+02 -0.15041408336E+02  0.15790483424E+03  0.00000000000E+00 0.  1.
        -13    1    5    5    0    0  0.26111942940E+03 -0.27815242958E+02 -0.19664955226E+02  0.26333202353E+03  0.00000000000E+00 0. -1.
          1    1    6    6  503    0 -0.26022411838E+02 -0.93049051803E+02  0.23378218338E+03  0.25296126427E+03  0.00000000000E+00 0. -1.
         -1    1    6    6    0  503  0.64086881341E+01 -0.37654822941E+03  0.59641723405E+03  0.70536739181E+03  0.00000000000E+00 0.  1.
<mgrwt>
<rscale>  0 0.22628835E+04</rscale>
<asrwt>0</asrwt>
<pdfrwt beam="1">  1        1 0.15740556E+00 0.22628835E+04</pdfrwt>
<pdfrwt beam="2">  1       -2 0.19249418E+00 0.22628835E+04</pdfrwt>
<totfact> 0.17212901E+00</totfact>
</mgrwt>
</event>
<event>
12    5  0.5029243E-008  0.1260691E+04  0.7818608E-02  0.9061332E-01
         -2   -1    0    0    0  501 -0.00000000000E+00  0.00000000000E+00  0.32526011715E+03  0.32526011715E+03  0.00000000000E+00 0.  1.
          1   -1    0    0  501    0  0.00000000000E+00 -0.00000000000E+00 -0.12215925703E+04  0.12215925703E+04  0.00000000000E+00 0. -1.
        -24    2    1    2    0    0  0.13555692593E+03 -0.14053011504E+03  0.58160094339E+02  0.21909367367E+03  0.80591859798E+02 0.  0.
        254    2    1    2    0    0 -0.13555692593E+03  0.14053011504E+03 -0.95449254745E+03  0.13277590137E+04  0.90208845577E+03 0.  0.
         23    2    4    4    0    0 -0.23831656221E+03  0.29356849848E+03 -0.10359115173E+04  0.11064628635E+04  0.90388879984E+02 0.  0.
         23    2    4    4    0    0  0.10275963628E+03 -0.15303838343E+03  0.81418969847E+02  0.22129615019E+03  0.91447513828E+02 0.  0.
          3    1    3    3  502    0  0.58526992450E+02 -0.26521149315E+02 -0.10849621444E+02  0.65165132485E+02  0.00000000000E+00 0. -1.
         -4    1    3    3    0  502  0.77029933483E+02 -0.11400896573E+03  0.69009715783E+02  0.15392854118E+03  0.00000000000E+00 0.  1.
         13    1    5    5    0    0 -0.13051383895E+03  0.10674138795E+03 -0.53900488625E+03  0.56475999633E+03  0.00000000000E+00 0.  1.
        -13    1    5    5    0    0 -0.10780272327E+03  0.18682711053E+03 -0.49690663105E+03  0.54170286722E+03  0.00000000000E+00 0. -1.
          3    1    6    6  503    0 -0.13540407926E+02 -0.10505479576E+02 -0.52752317155E+01  0.17931419843E+02  0.00000000000E+00 0. -1.
         -3    1    6    6    0  503  0.11630004421E+03 -0.14253290386E+03  0.86694201563E+02  0.20336473035E+03  0.00000000000E+00 0.  1.
<mgrwt>
<rscale>  0 0.12606908E+04</rscale>
<asrwt>0</asrwt>
<pdfrwt beam="1">  1        1 0.18793732E+00 0.12606908E+04</pdfrwt>
<pdfrwt beam="2">  1       -2 0.50040019E-01 0.12606908E+04</pdfrwt>
<totfact> 0.33642716E+01</totfact>
</mgrwt>
</event>
<event>
12    5  0.5029243E-008  0.1836300E+04  0.7818608E-02  0.8687230E-01
          1   -1    0    0  501    0  0.00000000000E+00  0.00000000000E+00  0.11533353650E+04  0.11533353650E+04  0.00000000000E+00 0. -1.
         -2   -1    0    0    0  501 -0.00000000000E+00 -0.00000000000E+00 -0.73092280330E+03  0.73092280330E+03  0.00000000000E+00 0.  1.
        -24    2    1    2    0    0  0.87738571585E+02  0.31678965968E+03 -0.46840042241E+03  0.57767467161E+03  0.79090613164E+02 0.  0.
        254    2    1    2    0    0 -0.87738571585E+02 -0.31678965968E+03  0.89081298409E+03  0.13065834967E+04  0.89752933977E+03 0.  0.
         23    2    4    4    0    0 -0.18483158754E+02 -0.60952454559E+03  0.44081633287E+03  0.75804442396E+03  0.91926658476E+02 0.  0.
         23    2    4    4    0    0 -0.69255412832E+02  0.29273488592E+03  0.44999665123E+03  0.54853907272E+03  0.88927512866E+02 0.  0.
          3    1    3    3  502    0  0.35948249868E+02  0.75374054524E+02 -0.69992460233E+02  0.10896086111E+03  0.00000000000E+00 0. -1.
         -4    1    3    3    0  502  0.51790321718E+02  0.24141560515E+03 -0.39840796217E+03  0.46871381051E+03  0.00000000000E+00 0.  1.
         13    1    5    5    0    0 -0.40889887128E+02 -0.54314443711E+03  0.37025503809E+03  0.65860963830E+03  0.00000000000E+00 0. -1.
        -13    1    5    5    0    0  0.22406728374E+02 -0.66380108486E+02  0.70561294777E+02  0.99434785662E+02  0.00000000000E+00 0.  1.
          1    1    6    6  503    0 -0.64929081095E+02  0.20676204225E+03  0.38056858413E+03  0.43794837015E+03  0.00000000000E+00 0. -1.
         -1    1    6    6    0  503 -0.43263317366E+01  0.85972843669E+02  0.69428067096E+02  0.11059070257E+03  0.00000000000E+00 0.  1.
<mgrwt>
<rscale>  0 0.18362997E+04</rscale>
<asrwt>0</asrwt>
<pdfrwt beam="1">  1        1 0.17743621E+00 0.18362997E+04</pdfrwt>
<pdfrwt beam="2">  1       -2 0.11244966E+00 0.18362997E+04</pdfrwt>
<totfact> 0.59430747E+00</totfact>
</mgrwt>
</event>
<event>
12    5  0.5029243E-008  0.2096758E+04  0.7818608E-02  0.8562673E-01
         -2   -1    0    0    0  501 -0.00000000000E+00  0.00000000000E+00  0.27692560284E+03  0.27692560284E+03  0.00000000000E+00 0.  1.
          1   -1    0    0  501    0  0.00000000000E+00 -0.00000000000E+00 -0.39689318450E+04  0.39689318450E+04  0.00000000000E+00 0. -1.
        -24    2    1    2    0    0  0.67349322443E+03  0.16140165355E+03 -0.50187921796E+03  0.85936346110E+03  0.83541556903E+02 0.  0.
        254    2    1    2    0    0 -0.67349322443E+03 -0.16140165355E+03 -0.31901270242E+04  0.33864939867E+04  0.90099249420E+03 0.  0.
         23    2    4    4    0    0 -0.42029582461E+03  0.15715094630E+03 -0.27201601238E+04  0.27583978525E+04  0.90236432284E+02 0.  0.
         23    2    4    4    0    0 -0.25319739983E+03 -0.31855259985E+03 -0.46996690041E+03  0.62809613421E+03  0.89728391153E+02 0.  0.
          1    1    3    3  502    0  0.78973422182E+02  0.43073299386E+02 -0.47023899177E+02  0.10150545613E+03  0.00000000000E+00 0. -1.
         -2    1    3    3    0  502  0.59451980225E+03  0.11832835416E+03 -0.45485531878E+03  0.75785800497E+03  0.00000000000E+00 0.  1.
         13    1    5    5    0    0 -0.28369976795E+03  0.14895654086E+03 -0.19598125602E+04  0.19858345552E+04  0.00000000000E+00 0.  1.
        -13    1    5    5    0    0 -0.13659605666E+03  0.81944054367E+01 -0.76034756354E+03  0.77256329731E+03  0.00000000000E+00 0. -1.
          2    1    6    6  503    0 -0.10611731126E+02 -0.32900399086E+02 -0.80486687948E+02  0.87596529807E+02  0.00000000000E+00 0. -1.
         -2    1    6    6    0  503 -0.24258566870E+03 -0.28565220076E+03 -0.38948021246E+03  0.54049960440E+03  0.00000000000E+00 0.  1.
<mgrwt>
<rscale>  0 0.20967583E+04</rscale>
<asrwt>0</asrwt>
<pdfrwt beam="1">  1        1 0.61060485E+00 0.20967583E+04</pdfrwt>
<pdfrwt beam="2">  1       -2 0.42603942E-01 0.20967583E+04</pdfrwt>
<totfact> 0.43420674E-01</totfact>
</mgrwt>
</event>
<event>
12    5  0.5029243E-008  0.2647168E+04  0.7818608E-02  0.8352353E-01
          1   -1    0    0  501    0  0.00000000000E+00  0.00000000000E+00  0.10603842850E+04  0.10603842850E+04  0.00000000000E+00 0. -1.
         -2   -1    0    0    0  501 -0.00000000000E+00 -0.00000000000E+00 -0.16521133017E+04  0.16521133017E+04  0.00000000000E+00 0.  1.
        -24    2    1    2    0    0  0.25871042023E+03 -0.18518810469E+03  0.89125262812E+03  0.94919201495E+03  0.73542630230E+02 0.  0.
        254    2    1    2    0    0 -0.25871042023E+03  0.18518810469E+03 -0.14829816449E+04  0.17633055718E+04  0.89932544989E+03 0.  0.
         23    2    4    4    0    0 -0.41658570665E+03 -0.16948556398E+03 -0.39869470930E+03  0.60807787219E+03  0.92370016961E+02 0.  0.
         23    2    4    4    0    0  0.15787528643E+03  0.35467366867E+03 -0.10842869356E+04  0.11552276996E+04  0.90304274382E+02 0.  0.
          3    1    3    3  502    0  0.15733663699E+03 -0.97719843467E+02  0.61356113265E+03  0.64090658340E+03  0.00000000000E+00 0. -1.
         -4    1    3    3    0  502  0.10137378324E+03 -0.87468261225E+02  0.27769149546E+03  0.30828543154E+03  0.00000000000E+00 0.  1.
         13    1    5    5    0    0 -0.31562041526E+03 -0.14985116670E+03 -0.26052350456E+03  0.43582578528E+03  0.00000000000E+00 0.  1.
        -13    1    5    5    0    0 -0.10096529140E+03 -0.19634397280E+02 -0.13817120475E+03  0.17225208691E+03  0.00000000000E+00 0. -1.
          3    1    6    6  503    0  0.15223894990E+03  0.24286990595E+03 -0.78172229042E+03  0.83261769643E+03  0.00000000000E+00 0. -1.
         -3    1    6    6    0  503  0.56363365287E+01  0.11180376272E+03 -0.30256464513E+03  0.32261000315E+03  0.00000000000E+00 0.  1.
<mgrwt>
<rscale>  0 0.26471683E+04</rscale>
<asrwt>0</asrwt>
<pdfrwt beam="1">  1        1 0.16313604E+00 0.26471683E+04</pdfrwt>
<pdfrwt beam="2">  1       -2 0.25417128E+00 0.26471683E+04</pdfrwt>
<totfact> 0.63338613E-01</totfact>
</mgrwt>
</event>
<event>
12    5  0.5029243E-008  0.1200278E+04  0.7818608E-02  0.9112613E-01
         -4   -1    0    0    0  501 -0.00000000000E+00  0.00000000000E+00  0.79329919246E+03  0.79329919246E+03  0.00000000000E+00 0.  1.
          3   -1    0    0  501    0  0.00000000000E+00 -0.00000000000E+00 -0.45401133320E+03  0.45401133320E+03  0.00000000000E+00 0. -1.
        -24    2    1    2    0    0  0.22164363053E+03  0.97702131275E+02  0.52939075746E+02  0.27000575460E+03  0.10690629713E+03 0.  0.
        254    2    1    2    0    0 -0.22164363053E+03 -0.97702131275E+02  0.28634878351E+03  0.97730477106E+03  0.90247292718E+03 0.  0.
         23    2    4    4    0    0  0.33190936858E+03 -0.13532641581E+03  0.77495686093E+02  0.37758687072E+03  0.89939956696E+02 0.  0.
         23    2    4    4    0    0 -0.55355299911E+03  0.37624284536E+02  0.20885309742E+03  0.59971790033E+03  0.90583851034E+02 0.  0.
          3    1    3    3  502    0  0.19608965233E+03  0.45333968424E+02  0.62960569966E+02  0.21087995119E+03  0.00000000000E+00 0. -1.
         -4    1    3    3    0  502  0.25553978200E+02  0.52368162851E+02 -0.10021494220E+02  0.59125803408E+02  0.00000000000E+00 0.  1.
         13    1    5    5    0    0  0.80872097500E+01  0.11431348984E+02  0.21889398861E+01  0.14172866999E+02  0.00000000000E+00 0.  1.
        -13    1    5    5    0    0  0.32382215883E+03 -0.14675776480E+03  0.75306746207E+02  0.36341400372E+03  0.00000000000E+00 0. -1.
          3    1    6    6  503    0 -0.38607034794E+03  0.67289791557E+02  0.13833987912E+03  0.41559132783E+03  0.00000000000E+00 0. -1.
         -3    1    6    6    0  503 -0.16748265117E+03 -0.29665507021E+02  0.70513218295E+02  0.18412657251E+03  0.00000000000E+00 0.  1.
<mgrwt>
<rscale>  0 0.12002780E+04</rscale>
<asrwt>0</asrwt>
<pdfrwt beam="1">  1        3 0.69847897E-01 0.12002780E+04</pdfrwt>
<pdfrwt beam="2">  1       -4 0.12204603E+00 0.12002780E+04</pdfrwt>
<totfact> 0.22448778E+00</totfact>
</mgrwt>
</event>
<event>
12    5  0.5029243E-008  0.1933718E+04  0.7818608E-02  0.8638253E-01
          1   -1    0    0  501    0  0.00000000000E+00  0.00000000000E+00  0.37518572135E+03  0.37518572135E+03  0.00000000000E+00 0. -1.
         -2   -1    0    0    0  501 -0.00000000000E+00 -0.00000000000E+00 -0.24916091473E+04  0.24916091473E+04  0.00000000000E+00 0.  1.
        -24    2    1    2    0    0  0.38859897481E+02 -0.68961907648E+03 -0.12970431632E+04  0.14716759809E+04  0.80153997973E+02 0.  0.
        254    2    1    2    0    0 -0.38859897481E+02  0.68961907648E+03 -0.81938026280E+03  0.13951188877E+04  0.89324584164E+03 0.  0.
         23    2    4    4    0    0 -0.19161576985E+03  0.85737880056E+03 -0.67425025815E+03  0.11111058869E+04  0.90154702273E+02 0.  0.
         23    2    4    4    0    0  0.15275587237E+03 -0.16775972408E+03 -0.14513000465E+03  0.28401300086E+03  0.90127603103E+02 0.  0.
          1    1    3    3  502    0 -0.82648160893E+01 -0.33168675946E+03 -0.55860873248E+03  0.64971388287E+03  0.00000000000E+00 0. -1.
         -2    1    3    3    0  502  0.47124713570E+02 -0.35793231702E+03 -0.73843443068E+03  0.82196209803E+03  0.00000000000E+00 0.  1.
         13    1    5    5    0    0 -0.16634043977E+02  0.15519825730E+03 -0.83977147058E+02  0.17724376354E+03  0.00000000000E+00 0.  1.
        -13    1    5    5    0    0 -0.17498172587E+03  0.70218054326E+03 -0.59027311109E+03  0.93386212334E+03  0.00000000000E+00 0. -1.
          3    1    6    6  503    0  0.77784518945E+02 -0.56973763745E+02 -0.15346577925E+02  0.97631749942E+02  0.00000000000E+00 0.  1.
         -3    1    6    6    0  503  0.74971353426E+02 -0.11078596034E+03 -0.12978342672E+03  0.18638125092E+03  0.00000000000E+00 0. -1.
<mgrwt>
<rscale>  0 0.19337178E+04</rscale>
<asrwt>0</asrwt>
<pdfrwt beam="1">  1        1 0.57720880E-01 0.19337178E+04</pdfrwt>
<pdfrwt beam="2">  1       -2 0.38332449E+00 0.19337178E+04</pdfrwt>
<totfact> 0.50975353E-01</totfact>
</mgrwt>
</event>
<event>
12    5  0.5029243E-008  0.1771979E+04  0.7818608E-02  0.8721344E-01
          1   -1    0    0  501    0  0.00000000000E+00  0.00000000000E+00  0.15633859180E+04  0.15633859180E+04  0.00000000000E+00 0. -1.
         -2   -1    0    0    0  501 -0.00000000000E+00 -0.00000000000E+00 -0.50210094988E+03  0.50210094988E+03  0.00000000000E+00 0.  1.
        -24    2    1    2    0    0 -0.31811953002E+03  0.22685915196E+03  0.10055366619E+04  0.10821014189E+04  0.84701783157E+02 0.  0.
        254    2    1    2    0    0  0.31811953002E+03 -0.22685915196E+03  0.55748306174E+02  0.98338544897E+03  0.90070747604E+03 0.  0.
         23    2    4    4    0    0  0.90821164050E+00 -0.41583583082E+03 -0.25192206496E+03  0.49446672060E+03  0.90068573464E+02 0.  0.
         23    2    4    4    0    0  0.31721131838E+03  0.18897667886E+03  0.30767037114E+03  0.48891872837E+03  0.89695373401E+02 0.  0.
          1    1    3    3  502    0 -0.17686921393E+03  0.17397060960E+03  0.65965937713E+03  0.70476874624E+03  0.00000000000E+00 0. -1.
         -2    1    3    3    0  502 -0.14125031609E+03  0.52888542359E+02  0.34587728478E+03  0.37733267263E+03  0.00000000000E+00 0.  1.
         13    1    5    5    0    0  0.26911418631E+02 -0.37635078515E+03 -0.23354467470E+03  0.44374232728E+03  0.00000000000E+00 0. -1.
        -13    1    5    5    0    0 -0.26003206990E+02 -0.39485045673E+02 -0.18377390257E+02  0.50724393325E+02  0.00000000000E+00 0.  1.
          3    1    6    6  503    0  0.28422343936E+03  0.14396006259E+03  0.22856987152E+03  0.39211178160E+03  0.00000000000E+00 0. -1.
         -3    1    6    6    0  503  0.32987879023E+02  0.45016616273E+02  0.79100499615E+02  0.96806946768E+02  0.00000000000E+00 0.  1.
<mgrwt>
<rscale>  0 0.17719792E+04</rscale>
<asrwt>0</asrwt>
<pdfrwt beam="1">  1        1 0.24052091E+00 0.17719792E+04</pdfrwt>
<pdfrwt beam="2">  1       -2 0.77246301E-01 0.17719792E+04</pdfrwt>
<totfact> 0.73399927E+00</totfact>
</mgrwt>
</event>
<event>
12    5  0.5029243E-008  0.1514433E+04  0.7818608E-02  0.8874911E-01
          1   -1    0    0  501    0  0.00000000000E+00  0.00000000000E+00  0.13866627692E+04  0.13866627692E+04  0.00000000000E+00 0. -1.
         -2   -1    0    0    0  501 -0.00000000000E+00 -0.00000000000E+00 -0.41349407598E+03  0.41349407598E+03  0.00000000000E+00 0.  1.
        -24    2    1    2    0    0 -0.23534578179E+03  0.29551822218E+01 -0.18804125056E+03  0.31160385301E+03  0.79630893459E+02 0.  0.
        254    2    1    2    0    0  0.23534578179E+03 -0.29551822218E+01  0.11612099438E+04  0.14885529922E+04  0.90110216229E+03 0.  0.
         23    2    4    4    0    0 -0.23166004291E+03 -0.40982039164E+02  0.91995556819E+03  0.95377522291E+03  0.89571342398E+02 0.  0.
         23    2    4    4    0    0  0.46700582470E+03  0.38026856942E+02  0.24125437561E+03  0.53477776929E+03  0.90791555863E+02 0.  0.
          1    1    3    3  502    0 -0.56606517255E+02  0.34300242344E+02 -0.39368227377E+02  0.77010789812E+02  0.00000000000E+00 0. -1.
         -2    1    3    3    0  502 -0.17873926454E+03 -0.31345060123E+02 -0.14867302318E+03  0.23459306320E+03  0.00000000000E+00 0.  1.
         13    1    5    5    0    0 -0.22513251764E+03 -0.15911836508E+02  0.81546732648E+03  0.84612339384E+03  0.00000000000E+00 0.  1.
        -13    1    5    5    0    0 -0.65275252692E+01 -0.25070202656E+02  0.10448824171E+03  0.10765182907E+03  0.00000000000E+00 0. -1.
          2    1    6    6  503    0  0.70372717398E+01  0.87063551669E+01  0.21341311769E+02  0.24099282185E+02  0.00000000000E+00 0. -1.
         -2    1    6    6    0  503  0.45996855296E+03  0.29320501775E+02  0.21991306384E+03  0.51067848710E+03  0.00000000000E+00 0.  1.
<mgrwt>
<rscale>  0 0.15144330E+04</rscale>
<asrwt>0</asrwt>
<pdfrwt beam="1">  1        1 0.21333273E+00 0.15144330E+04</pdfrwt>
<pdfrwt beam="2">  1       -2 0.63614474E-01 0.15144330E+04</pdfrwt>
<totfact> 0.15216665E+01</totfact>
</mgrwt>
</event>
<event>
12    5  0.5029243E-008  0.1718136E+04  0.7818608E-02  0.8751088E-01
          1   -1    0    0  501    0  0.00000000000E+00  0.00000000000E+00  0.10832115859E+04  0.10832115859E+04  0.00000000000E+00 0. -1.
         -2   -1    0    0    0  501 -0.00000000000E+00 -0.00000000000E+00 -0.68130521604E+03  0.68130521604E+03  0.00000000000E+00 0.  1.
        -24    2    1    2    0    0  0.47270841791E+02  0.96467207966E+01  0.79142146284E+03  0.79695623828E+03  0.80397277216E+02 0.  0.
        254    2    1    2    0    0 -0.47270841791E+02 -0.96467207966E+01 -0.38951509300E+03  0.96756056364E+03  0.88437765967E+03 0.  0.
         23    2    4    4    0    0  0.27574327220E+03 -0.11264945058E+03  0.13305076051E+03  0.33826326544E+03  0.89416335163E+02 0.  0.
         23    2    4    4    0    0 -0.32301411399E+03  0.10300272979E+03 -0.52256585351E+03  0.62929729820E+03  0.89399877433E+02 0.  0.
          1    1    3    3  502    0  0.62334763945E+02 -0.15692337504E+02  0.54588106436E+03  0.54965262546E+03  0.00000000000E+00 0. -1.
         -2    1    3    3    0  502 -0.15063922154E+02  0.25339058300E+02  0.24554039849E+03  0.24730361282E+03  0.00000000000E+00 0.  1.
         13    1    5    5    0    0  0.15112835215E+03 -0.91452923804E+02  0.39504200043E+02  0.18100828134E+03  0.00000000000E+00 0. -1.
        -13    1    5    5    0    0  0.12461492005E+03 -0.21196526780E+02  0.93546560467E+02  0.15725498409E+03  0.00000000000E+00 0.  1.
          3    1    6    6  503    0 -0.34700903242E+02  0.63533085828E+01 -0.11821935170E+03  0.12337071100E+03  0.00000000000E+00 0. -1.
         -3    1    6    6    0  503 -0.28831321075E+03  0.96649421205E+02 -0.40434650181E+03  0.50592658720E+03  0.00000000000E+00 0.  1.
<mgrwt>
<rscale>  0 0.17181359E+04</rscale>
<asrwt>0</asrwt>
<pdfrwt beam="1">  1        1 0.16664794E+00 0.17181359E+04</pdfrwt>
<pdfrwt beam="2">  1       -2 0.10481619E+00 0.17181359E+04</pdfrwt>
<totfact> 0.80291797E+00</totfact>
</mgrwt>
</event>
<event>
12    5  0.5029243E-008  0.1231105E+04  0.7818608E-02  0.9086058E-01
          1   -1    0    0  501    0  0.00000000000E+00  0.00000000000E+00  0.10267193836E+04  0.10267193836E+04  0.00000000000E+00 0. -1.
         -2   -1    0    0    0  501 -0.00000000000E+00 -0.00000000000E+00 -0.36904435033E+03  0.36904435033E+03  0.00000000000E+00 0.  1.
        -24    2    1    2    0    0 -0.73264721801E+02  0.40641394367E+02 -0.16547732471E+03  0.20201070712E+03  0.80038355826E+02 0.  0.
        254    2    1    2    0    0  0.73264721801E+02 -0.40641394367E+02  0.82315235794E+03  0.11937530268E+04  0.86049232544E+03 0.  0.
         23    2    4    4    0    0  0.23501034409E+03  0.13336068886E+03  0.88698003567E+03  0.93149786262E+03  0.89105270573E+02 0.  0.
         23    2    4    4    0    0 -0.16174562229E+03 -0.17400208323E+03 -0.63827677721E+02  0.26225516415E+03  0.90914395908E+02 0.  0.
          1    1    3    3  502    0 -0.60296725018E+01 -0.19222004197E+02 -0.10335970787E+02  0.22642320727E+02  0.00000000000E+00 0. -1.
         -4    1    3    3    0  502 -0.67235049299E+02  0.59863398563E+02 -0.15514135392E+03  0.17936838640E+03  0.00000000000E+00 0.  1.
         13    1    5    5    0    0  0.11670072230E+02  0.52537911940E+01  0.69234654186E+01  0.14550851562E+02  0.00000000000E+00 0. -1.
        -13    1    5    5    0    0  0.22334027186E+03  0.12810689767E+03  0.88005657025E+03  0.91694701106E+03  0.00000000000E+00 0.  1.
          2    1    6    6  503    0  0.12560069694E+01 -0.45239193399E+02 -0.11140168350E+01  0.45270334728E+02  0.00000000000E+00 0. -1.
         -2    1    6    6    0  503 -0.16300162926E+03 -0.12876288983E+03 -0.62713660886E+02  0.21698482942E+03  0.00000000000E+00 0.  1.
<mgrwt>
<rscale>  0 0.12311052E+04</rscale>
<asrwt>0</asrwt>
<pdfrwt beam="1">  1        1 0.15795683E+00 0.12311052E+04</pdfrwt>
<pdfrwt beam="2">  1       -2 0.56776054E-01 0.12311052E+04</pdfrwt>
<totfact> 0.36330064E+01</totfact>
</mgrwt>
</event>
<event>
12    5  0.5029243E-008  0.1660043E+04  0.7818608E-02  0.8784487E-01
          1   -1    0    0  501    0  0.00000000000E+00  0.00000000000E+00  0.70776805410E+03  0.70776805410E+03  0.00000000000E+00 0. -1.
         -2   -1    0    0    0  501 -0.00000000000E+00 -0.00000000000E+00 -0.97339233811E+03  0.97339233811E+03  0.00000000000E+00 0.  1.
        -24    2    1    2    0    0 -0.28423282613E+03  0.48170741337E+02 -0.60588674039E+03  0.67595093217E+03  0.81866969764E+02 0.  0.
        254    2    1    2    0    0  0.28423282613E+03 -0.48170741337E+02  0.34026245639E+03  0.10052094600E+04  0.90086558351E+03 0.  0.
         23    2    4    4    0    0 -0.14060958990E+03 -0.24453474601E+03  0.42978523084E+03  0.52008233765E+03  0.78752742865E+02 0.  0.
         23    2    4    4    0    0  0.42484241603E+03  0.19636400468E+03 -0.89522774457E+02  0.48512712238E+03  0.91017014537E+02 0.  0.
          3    1    3    3  502    0 -0.74664480746E+02 -0.21296930946E+02 -0.13165191096E+03  0.15284164882E+03  0.00000000000E+00 0. -1.
         -4    1    3    3    0  502 -0.20956834539E+03  0.69467672284E+02 -0.47423482943E+03  0.52310928335E+03  0.00000000000E+00 0.  1.
         13    1    5    5    0    0 -0.32979651164E+01 -0.34267298620E+02  0.98685860096E+02  0.10451805256E+03  0.00000000000E+00 0.  1.
        -13    1    5    5    0    0 -0.13731162478E+03 -0.21026744740E+03  0.33109937075E+03  0.41556428509E+03  0.00000000000E+00 0. -1.
          3    1    6    6  503    0  0.32188624262E+03  0.10536152799E+03 -0.51765718304E+02  0.34262442172E+03  0.00000000000E+00 0. -1.
         -3    1    6    6    0  503  0.10295617341E+03  0.91002476690E+02 -0.37757056152E+02  0.14250270066E+03  0.00000000000E+00 0.  1.
<mgrwt>
<rscale>  0 0.16600434E+04</rscale>
<asrwt>0</asrwt>
<pdfrwt beam="1">  1        1 0.10888739E+00 0.16600434E+04</pdfrwt>
<pdfrwt beam="2">  1       -2 0.14975267E+00 0.16600434E+04</pdfrwt>
<totfact> 0.67365600E+00</totfact>
</mgrwt>
</event>
<event>
12    5  0.5029243E-008  0.1320161E+04  0.7818608E-02  0.9013728E-01
          3   -1    0    0  501    0  0.00000000000E+00  0.00000000000E+00  0.18365246620E+04  0.18365246620E+04  0.00000000000E+00 0. -1.
         -4   -1    0    0    0  501 -0.00000000000E+00 -0.00000000000E+00 -0.23724506171E+03  0.23724506171E+03  0.00000000000E+00 0.  1.
        -24    2    1    2    0    0 -0.31806382832E+03  0.62302915724E+02  0.67867775020E+03  0.75639823369E+03  0.80551518363E+02 0.  0.
        254    2    1    2    0    0  0.31806382832E+03 -0.62302915724E+02  0.92060185007E+03  0.13173714900E+04  0.88482406394E+03 0.  0.
         23    2    4    4    0    0  0.12575799014E+03  0.15041347573E+03 -0.11090534990E+03  0.24279257062E+03  0.90603255705E+02 0.  0.
         23    2    4    4    0    0  0.19230583818E+03 -0.21271639145E+03  0.10315072000E+04  0.10745789194E+04  0.92102941417E+02 0.  0.
          3    1    3    3  502    0 -0.87183390066E+02  0.35600144844E+02  0.27393162910E+03  0.28966679347E+03  0.00000000000E+00 0. -1.
         -4    1    3    3    0  502 -0.23088043826E+03  0.26702770880E+02  0.40474612110E+03  0.46673144022E+03  0.00000000000E+00 0.  1.
         13    1    5    5    0    0  0.61732537607E+02  0.12331463921E+03 -0.40226875023E+02  0.14365099344E+03  0.00000000000E+00 0. -1.
        -13    1    5    5    0    0  0.64025452537E+02  0.27098836514E+02 -0.70678474879E+02  0.99141577172E+02  0.00000000000E+00 0.  1.
          3    1    6    6  503    0  0.11697770897E+03 -0.17564376966E+03  0.63057520350E+03  0.66495082937E+03  0.00000000000E+00 0. -1.
         -3    1    6    6    0  503  0.75328129214E+02 -0.37072621791E+02  0.40093199647E+03  0.40962809002E+03  0.00000000000E+00 0.  1.
<mgrwt>
<rscale>  0 0.13201612E+04</rscale>
<asrwt>0</asrwt>
<pdfrwt beam="1">  1        3 0.28254225E+00 0.13201612E+04</pdfrwt>
<pdfrwt beam="2">  1       -4 0.36499241E-01 0.13201612E+04</pdfrwt>
<totfact> 0.79942525E-01</totfact>
</mgrwt>
</event>
<event>
12    5  0.5029243E-008  0.1419171E+04  0.7818608E-02  0.8940057E-01
         -2   -1    0    0    0  501 -0.00000000000E+00  0.00000000000E+00  0.30490389751E+03  0.30490389751E+03  0.00000000000E+00 0.  1.
          1   -1    0    0  501    0  0.00000000000E+00 -0.00000000000E+00 -0.16513790004E+04  0.16513790004E+04  0.00000000000E+00 0. -1.
        -24    2    1    2    0    0  0.21515027788E+02 -0.94183671545E+02 -0.93755359815E+03  0.94627466333E+03  0.84234961030E+02 0.  0.
        254    2    1    2    0    0 -0.21515027788E+02  0.94183671545E+02 -0.40892150472E+03  0.10100082346E+04  0.91845869610E+03 0.  0.
         23    2    4    4    0    0  0.25173492343E+03 -0.28262821869E+03 -0.36399114501E+03  0.53294490657E+03  0.91057883372E+02 0.  0.
         23    2    4    4    0    0 -0.27324995122E+03  0.37681189024E+03 -0.44930359714E+02  0.47706332798E+03  0.94434872868E+02 0.  0.
          3    1    3    3  502    0  0.12907460685E+02 -0.81276071423E+02 -0.91615508035E+03  0.91984375498E+03  0.00000000000E+00 0. -1.
         -4    1    3    3    0  502  0.86075671026E+01 -0.12907600121E+02 -0.21398517795E+02  0.26430908349E+02  0.00000000000E+00 0.  1.
         13    1    5    5    0    0  0.16060436094E+03 -0.19415020349E+03 -0.18120369190E+03  0.31035921160E+03  0.00000000000E+00 0.  1.
        -13    1    5    5    0    0  0.91130562497E+02 -0.88478015205E+02 -0.18278745310E+03  0.22258569497E+03  0.00000000000E+00 0. -1.
          4    1    6    6  503    0 -0.21670959154E+03  0.33020185125E+03 -0.80866485894E+01  0.39504645742E+03  0.00000000000E+00 0. -1.
         -4    1    6    6    0  503 -0.56540359678E+02  0.46610038986E+02 -0.36843711125E+02  0.82016870559E+02  0.00000000000E+00 0.  1.
<mgrwt>
<rscale>  0 0.14191714E+04</rscale>
<asrwt>0</asrwt>
<pdfrwt beam="1">  1        1 0.25405831E+00 0.14191714E+04</pdfrwt>
<pdfrwt beam="2">  1       -2 0.46908292E-01 0.14191714E+04</pdfrwt>
<totfact> 0.18940754E+01</totfact>
</mgrwt>
</event>
<event>
12    5  0.5029243E-008  0.2148318E+04  0.7818608E-02  0.8540253E-01
         -2   -1    0    0    0  501 -0.00000000000E+00  0.00000000000E+00  0.11077131772E+04  0.11077131772E+04  0.00000000000E+00 0.  1.
          1   -1    0    0  501    0  0.00000000000E+00 -0.00000000000E+00 -0.10416213742E+04  0.10416213742E+04  0.00000000000E+00 0. -1.
        -24    2    1    2    0    0  0.64557599887E+03  0.93698797053E+02 -0.58097214569E+03  0.87718113990E+03  0.79814054182E+02 0.  0.
        254    2    1    2    0    0 -0.64557599887E+03 -0.93698797053E+02  0.64706394865E+03  0.12721534115E+04  0.87984925626E+03 0.  0.
         23    2    4    4    0    0 -0.90790744318E+02  0.90369269603E+02 -0.18990294803E+03  0.24738715893E+03  0.93422227503E+02 0.  0.
         23    2    4    4    0    0 -0.55478525455E+03 -0.18406806666E+03  0.83696689668E+03  0.10247662525E+04  0.89244351840E+02 0.  0.
          1    1    3    3  502    0  0.49036643905E+03  0.64387004407E+02 -0.48307112471E+03  0.69134842331E+03  0.00000000000E+00 0. -1.
         -2    1    3    3    0  502  0.15520955981E+03  0.29311792646E+02 -0.97901020983E+02  0.18583271659E+03  0.00000000000E+00 0.  1.
         13    1    5    5    0    0 -0.66389666207E+02  0.85494545544E+02 -0.19401326914E+03  0.22216672501E+03  0.00000000000E+00 0.  1.
        -13    1    5    5    0    0 -0.24401078111E+02  0.48747240589E+01  0.41103211149E+01  0.25220433923E+02  0.00000000000E+00 0. -1.
          2    1    6    6  503    0 -0.48204650911E+03 -0.12906546462E+03  0.72898890183E+03  0.88343168954E+03  0.00000000000E+00 0.  1.
         -2    1    6    6    0  503 -0.72738745442E+02 -0.55002602039E+02  0.10797799486E+03  0.14133456298E+03  0.00000000000E+00 0. -1.
<mgrwt>
<rscale>  0 0.21483182E+04</rscale>
<asrwt>0</asrwt>
<pdfrwt beam="1">  1        1 0.16024944E+00 0.21483182E+04</pdfrwt>
<pdfrwt beam="2">  1       -2 0.17041741E+00 0.21483182E+04</pdfrwt>
<totfact> 0.23874442E+00</totfact>
</mgrwt>
</event>
<event>
12    5  0.5029243E-008  0.1451426E+04  0.7818608E-02  0.8917412E-01
         -2   -1    0    0    0  501 -0.00000000000E+00  0.00000000000E+00  0.65691707680E+03  0.65691707680E+03  0.00000000000E+00 0.  1.
          1   -1    0    0  501    0  0.00000000000E+00 -0.00000000000E+00 -0.80171368191E+03  0.80171368191E+03  0.00000000000E+00 0. -1.
        -24    2    1    2    0    0 -0.57879972820E+02  0.20674232411E+03  0.34168409972E+03  0.41154665534E+03  0.80809316878E+02 0.  0.
        254    2    1    2    0    0  0.57879972820E+02 -0.20674232411E+03 -0.48648070482E+03  0.10470841034E+04  0.90201394863E+03 0.  0.
         23    2    4    4    0    0  0.31099516515E+03 -0.45597792486E+03 -0.28653074809E+03  0.62900021856E+03  0.94379789380E+02 0.  0.
         23    2    4    4    0    0 -0.25311519233E+03  0.24923560075E+03 -0.19994995673E+03  0.41808388480E+03  0.92889527188E+02 0.  0.
          1    1    3    3  502    0 -0.16543882313E+02  0.22263461349E+02  0.94748743192E+01  0.29311004701E+02  0.00000000000E+00 0. -1.
         -2    1    3    3    0  502 -0.41336090507E+02  0.18447886276E+03  0.33220922540E+03  0.38223565064E+03  0.00000000000E+00 0.  1.
         13    1    5    5    0    0  0.27466906564E+02 -0.87643324516E+02 -0.23043878667E+02  0.94693207953E+02  0.00000000000E+00 0. -1.
        -13    1    5    5    0    0  0.28352825859E+03 -0.36833460034E+03 -0.26348686943E+03  0.53430701061E+03  0.00000000000E+00 0.  1.
          4    1    6    6  503    0 -0.44464842505E+02  0.94948448380E+02 -0.81673523024E+02  0.13290182253E+03  0.00000000000E+00 0. -1.
         -4    1    6    6    0  503 -0.20865034983E+03  0.15428715237E+03 -0.11827643371E+03  0.28518206227E+03  0.00000000000E+00 0.  1.
<mgrwt>
<rscale>  0 0.14514261E+04</rscale>
<asrwt>0</asrwt>
<pdfrwt beam="1">  1        1 0.12334057E+00 0.14514261E+04</pdfrwt>
<pdfrwt beam="2">  1       -2 0.10106417E+00 0.14514261E+04</pdfrwt>
<totfact> 0.15098620E+01</totfact>
</mgrwt>
</event>
<event>
12    5  0.5029243E-008  0.2281937E+04  0.7818608E-02  0.8485077E-01
         -2   -1    0    0    0  501 -0.00000000000E+00  0.00000000000E+00  0.68392710498E+03  0.68392710498E+03  0.00000000000E+00 0.  1.
          1   -1    0    0  501    0  0.00000000000E+00 -0.00000000000E+00 -0.19034331085E+04  0.19034331085E+04  0.00000000000E+00 0. -1.
        -24    2    1    2    0    0  0.50903287372E+03  0.12377898260E+03 -0.14258058108E+04  0.15212255575E+04  0.82275656703E+02 0.  0.
        254    2    1    2    0    0 -0.50903287372E+03 -0.12377898260E+03  0.20629980734E+03  0.10661346559E+04  0.90534401801E+03 0.  0.
         23    2    4    4    0    0 -0.34154296292E+03 -0.42679566147E+03 -0.13588660311E+03  0.57078787575E+03  0.92344453165E+02 0.  0.
         23    2    4    4    0    0 -0.16748991080E+03  0.30301667887E+03  0.34218641044E+03  0.49534678015E+03  0.91678324714E+02 0.  0.
          1    1    3    3  502    0  0.43373088682E+03  0.10393994590E+03 -0.12866712254E+04  0.13617814938E+04  0.00000000000E+00 0. -1.
         -2    1    3    3    0  502  0.75301986900E+02  0.19839036699E+02 -0.13913458544E+03  0.15944406377E+03  0.00000000000E+00 0.  1.
         13    1    5    5    0    0 -0.35914002852E+02 -0.53667724733E+02 -0.48152360846E+02  0.80552406133E+02  0.00000000000E+00 0. -1.
        -13    1    5    5    0    0 -0.30562896007E+03 -0.37312793673E+03 -0.87734242261E+02  0.49023546962E+03  0.00000000000E+00 0.  1.
          4    1    6    6  503    0 -0.98221032048E+00  0.38411291039E+02  0.74261405454E+02  0.83613087232E+02  0.00000000000E+00 0. -1.
         -4    1    6    6    0  503 -0.16650770048E+03  0.26460538783E+03  0.26792500499E+03  0.41173369292E+03  0.00000000000E+00 0.  1.
<mgrwt>
<rscale>  0 0.22819373E+04</rscale>
<asrwt>0</asrwt>
<pdfrwt beam="1">  1        1 0.29283586E+00 0.22819373E+04</pdfrwt>
<pdfrwt beam="2">  1       -2 0.10521956E+00 0.22819373E+04</pdfrwt>
<totfact> 0.20155878E+00</totfact>
</mgrwt>
</event>
<event>
12    5  0.5029243E-008  0.2210830E+04  0.7818608E-02  0.8513934E-01
          1   -1    0    0  501    0  0.00000000000E+00  0.00000000000E+00  0.19175052872E+04  0.19175052872E+04  0.00000000000E+00 0. -1.
         -2   -1    0    0    0  501 -0.00000000000E+00 -0.00000000000E+00 -0.63725656164E+03  0.63725656164E+03  0.00000000000E+00 0.  1.
        -24    2    1    2    0    0  0.32716110460E+02  0.28002497798E+03  0.15471523672E+04  0.15745939566E+04  0.78621554433E+02 0.  0.
        254    2    1    2    0    0 -0.32716110460E+02 -0.28002497798E+03 -0.26690364163E+03  0.98016789220E+03  0.90000400599E+03 0.  0.
         23    2    4    4    0    0  0.90886297469E+01 -0.44011653137E+03  0.18758481722E+03  0.48740770826E+03  0.92698684160E+02 0.  0.
         23    2    4    4    0    0 -0.41804740207E+02  0.16009155339E+03 -0.45448845885E+03  0.49276018393E+03  0.94211983702E+02 0.  0.
          1    1    3    3  502    0 -0.78059093238E+01  0.16519690431E+03  0.10373838999E+04  0.10504838434E+04  0.00000000000E+00 0. -1.
         -4    1    3    3    0  502  0.40522019784E+02  0.11482807368E+03  0.50976846726E+03  0.52411011325E+03  0.00000000000E+00 0.  1.
         13    1    5    5    0    0  0.28427147322E+02 -0.89662655249E+02  0.11604260545E+02  0.94774222835E+02  0.00000000000E+00 0.  1.
        -13    1    5    5    0    0 -0.19338517575E+02 -0.35045387612E+03  0.17598055668E+03  0.39263348543E+03  0.00000000000E+00 0. -1.
          1    1    6    6  503    0 -0.29056877006E+02  0.35033450010E+02 -0.23892174990E+03  0.24321851759E+03  0.00000000000E+00 0. -1.
         -1    1    6    6    0  503 -0.12747863201E+02  0.12505810338E+03 -0.21556670895E+03  0.24954166635E+03  0.00000000000E+00 0.  1.
<mgrwt>
<rscale>  0 0.22108305E+04</rscale>
<asrwt>0</asrwt>
<pdfrwt beam="1">  1        1 0.29500081E+00 0.22108305E+04</pdfrwt>
<pdfrwt beam="2">  1       -2 0.98039471E-01 0.22108305E+04</pdfrwt>
<totfact> 0.23476199E+00</totfact>
</mgrwt>
</event>
<event>
12    5  0.5029243E-008  0.2614818E+04  0.7818608E-02  0.8363185E-01
         -2   -1    0    0    0  501 -0.00000000000E+00  0.00000000000E+00  0.11469210088E+04  0.11469210088E+04  0.00000000000E+00 0.  1.
          1   -1    0    0  501    0  0.00000000000E+00 -0.00000000000E+00 -0.14903536545E+04  0.14903536545E+04  0.00000000000E+00 0. -1.
        -24    2    1    2    0    0  0.10422157042E+04  0.44502227995E+03  0.47643546312E+02  0.11369536936E+04  0.78328732233E+02 0.  0.
        254    2    1    2    0    0 -0.10422157042E+04 -0.44502227995E+03 -0.39107619202E+03  0.15003209697E+04  0.90208869877E+03 0.  0.
         23    2    4    4    0    0  0.57249207940E+02  0.11358196977E+03 -0.19119798560E+03  0.24757559988E+03  0.92513092551E+02 0.  0.
         23    2    4    4    0    0 -0.10994649121E+04 -0.55860424972E+03 -0.19987820642E+03  0.12527453698E+04  0.92508720690E+02 0.  0.
          3    1    3    3  502    0  0.26086424016E+03  0.93349324910E+02  0.41012879997E+02  0.28008267455E+03  0.00000000000E+00 0. -1.
         -4    1    3    3    0  502  0.78135146401E+03  0.35167295504E+03  0.66306663147E+01  0.85687101909E+03  0.00000000000E+00 0.  1.
         13    1    5    5    0    0  0.56851266153E+02  0.88497789959E+02 -0.19561567884E+03  0.22210227171E+03  0.00000000000E+00 0.  1.
        -13    1    5    5    0    0  0.39794178688E+00  0.25084179814E+02  0.44176932419E+01  0.25473328173E+02  0.00000000000E+00 0. -1.
          1    1    6    6  503    0 -0.86880796645E+03 -0.43787062076E+03 -0.19552319727E+03  0.99236449138E+03  0.00000000000E+00 0. -1.
         -1    1    6    6    0  503 -0.23065694566E+03 -0.12073362896E+03 -0.43550091537E+01  0.26038087842E+03  0.00000000000E+00 0.  1.
<mgrwt>
<rscale>  0 0.26148177E+04</rscale>
<asrwt>0</asrwt>
<pdfrwt beam="1">  1        1 0.22928518E+00 0.26148177E+04</pdfrwt>
<pdfrwt beam="2">  1       -2 0.17644939E+00 0.26148177E+04</pdfrwt>
<totfact> 0.98492709E-01</totfact>
</mgrwt>
</event>
<event>
12    5  0.5029243E-008  0.1565385E+04  0.7818608E-02  0.8842100E-01
          1   -1    0    0  501    0  0.00000000000E+00  0.00000000000E+00  0.15827155187E+04  0.15827155187E+04  0.00000000000E+00 0. -1.
         -2   -1    0    0    0  501 -0.00000000000E+00 -0.00000000000E+00 -0.38706099165E+03  0.38706099165E+03  0.00000000000E+00 0.  1.
        -24    2    1    2    0    0 -0.28572155577E+03  0.30340908103E+03 -0.53196371599E+01  0.42450502915E+03  0.80513001122E+02 0.  0.
        254    2    1    2    0    0  0.28572155577E+03 -0.30340908103E+03  0.12009741642E+04  0.15452714812E+04  0.87853920210E+03 0.  0.
         23    2    4    4    0    0  0.30976205818E+03  0.24391366390E+03  0.39042085100E+03  0.56276683150E+03  0.93976899383E+02 0.  0.
         23    2    4    4    0    0 -0.24040502414E+02 -0.54732274493E+03  0.81055331322E+03  0.98250464971E+03  0.90435503251E+02 0.  0.
          3    1    3    3  502    0 -0.35079306350E+02  0.93536916739E+01 -0.11474894129E+02  0.38075221302E+02  0.00000000000E+00 0. -1.
         -4    1    3    3    0  502 -0.25064224942E+03  0.29405538936E+03  0.61552569691E+01  0.38642980785E+03  0.00000000000E+00 0.  1.
         13    1    5    5    0    0  0.24585839178E+03  0.13894171090E+03  0.27436158397E+03  0.39373268418E+03  0.00000000000E+00 0. -1.
        -13    1    5    5    0    0  0.63903666407E+02  0.10497195300E+03  0.11605926703E+03  0.16903414732E+03  0.00000000000E+00 0.  1.
          2    1    6    6  503    0 -0.13000290068E+02 -0.53891820226E+03  0.80155515169E+03  0.96596713063E+03  0.00000000000E+00 0. -1.
         -2    1    6    6    0  503 -0.11040212345E+02 -0.84045426768E+01  0.89981615349E+01  0.16537519078E+02  0.00000000000E+00 0.  1.
<mgrwt>
<rscale>  0 0.15653849E+04</rscale>
<asrwt>0</asrwt>
<pdfrwt beam="1">  1        1 0.24349469E+00 0.15653849E+04</pdfrwt>
<pdfrwt beam="2">  1       -2 0.59547846E-01 0.15653849E+04</pdfrwt>
<totfact> 0.12745009E+01</totfact>
</mgrwt>
</event>
<event>
12    5  0.5029243E-008  0.1813171E+04  0.7818608E-02  0.8699327E-01
          1   -1    0    0  501    0  0.00000000000E+00  0.00000000000E+00  0.13966954788E+04  0.13966954788E+04  0.00000000000E+00 0. -1.
         -2   -1    0    0    0  501 -0.00000000000E+00 -0.00000000000E+00 -0.58845830147E+03  0.58845830147E+03  0.00000000000E+00 0.  1.
        -24    2    1    2    0    0  0.82475064618E+01  0.26818363121E+03  0.99137534062E+03  0.10300162126E+04  0.78216691977E+02 0.  0.
        254    2    1    2    0    0 -0.82475064618E+01 -0.26818363121E+03 -0.18313816324E+03  0.95513756767E+03  0.89819691880E+03 0.  0.
         23    2    4    4    0    0  0.22937547668E+02  0.31770800657E+03 -0.13807959758E+03  0.35929098986E+03  0.92517736623E+02 0.  0.
         23    2    4    4    0    0 -0.31185054130E+02 -0.58589163778E+03 -0.45058565664E+02  0.59584657782E+03  0.93602089354E+02 0.  0.
          1    1    3    3  502    0  0.36460482893E+02  0.20935898047E+03  0.70667185181E+03  0.73793336803E+03  0.00000000000E+00 0. -1.
         -2    1    3    3    0  502 -0.28212976432E+02  0.58824650733E+02  0.28470348881E+03  0.29208284461E+03  0.00000000000E+00 0.  1.
         13    1    5    5    0    0  0.10922281559E+02  0.99060331492E+02 -0.91755826649E+02  0.13546725521E+03  0.00000000000E+00 0.  1.
        -13    1    5    5    0    0  0.12015266109E+02  0.21864767508E+03 -0.46323770932E+02  0.22382373465E+03  0.00000000000E+00 0. -1.
          2    1    6    6  503    0 -0.25454604630E+02 -0.31785897994E+03  0.21543881599E+02  0.31960351509E+03  0.00000000000E+00 0.  1.
         -2    1    6    6    0  503 -0.57304494996E+01 -0.26803265785E+03 -0.66602447263E+02  0.27624306273E+03  0.00000000000E+00 0. -1.
<mgrwt>
<rscale>  0 0.18131708E+04</rscale>
<asrwt>0</asrwt>
<pdfrwt beam="1">  1        1 0.21487623E+00 0.18131708E+04</pdfrwt>
<pdfrwt beam="2">  1       -2 0.90532047E-01 0.18131708E+04</pdfrwt>
<totfact> 0.66598084E+00</totfact>
</mgrwt>
</event>
<event>
12    5  0.5029243E-008  0.2026145E+04  0.7818608E-02  0.8594494E-01
          1   -1    0    0  501    0  0.00000000000E+00  0.00000000000E+00  0.22016903715E+04  0.22016903715E+04  0.00000000000E+00 0. -1.
         -2   -1    0    0    0  501 -0.00000000000E+00 -0.00000000000E+00 -0.46614894090E+03  0.46614894090E+03  0.00000000000E+00 0.  1.
        -24    2    1    2    0    0 -0.60930818735E+03 -0.52540559139E+03  0.61003175982E+03  0.10128524202E+04  0.80148452794E+02 0.  0.
        254    2    1    2    0    0  0.60930818735E+03  0.52540559139E+03  0.11255096708E+04  0.16549868922E+04  0.90824120788E+03 0.  0.
         23    2    4    4    0    0  0.59036306926E+03  0.46312734453E+03  0.28597763039E+03  0.80812541297E+03  0.90928473034E+02 0.  0.
         23    2    4    4    0    0  0.18945118086E+02  0.62278246863E+02  0.83953204038E+03  0.84686147922E+03  0.90126692113E+02 0.  0.
          3    1    3    3  502    0 -0.31147862662E+03 -0.24576503996E+03  0.34587761127E+03  0.52635606930E+03  0.00000000000E+00 0. -1.
         -4    1    3    3    0  502 -0.29782956072E+03 -0.27964055143E+03  0.26415414855E+03  0.48649635090E+03  0.00000000000E+00 0.  1.
         13    1    5    5    0    0  0.17407945376E+03  0.18264751148E+03  0.12034238360E+03  0.27954616607E+03  0.00000000000E+00 0. -1.
        -13    1    5    5    0    0  0.41628361550E+03  0.28047983305E+03  0.16563524680E+03  0.52857924691E+03  0.00000000000E+00 0.  1.
          3    1    6    6  503    0 -0.20013839725E+02 -0.12375814370E+02  0.28530110385E+03  0.28626986292E+03  0.00000000000E+00 0. -1.
         -3    1    6    6    0  503  0.38958957811E+02  0.74654061233E+02  0.55423093653E+03  0.56059161630E+03  0.00000000000E+00 0.  1.
<mgrwt>
<rscale>  0 0.20261447E+04</rscale>
<asrwt>0</asrwt>
<pdfrwt beam="1">  1        1 0.33872159E+00 0.20261447E+04</pdfrwt>
<pdfrwt beam="2">  1       -2 0.71715223E-01 0.20261447E+04</pdfrwt>
<totfact> 0.31141728E+00</totfact>
</mgrwt>
</event>
<event>
12    5  0.5029243E-008  0.1504769E+04  0.7818608E-02  0.8881288E-01
          1   -1    0    0  501    0  0.00000000000E+00  0.00000000000E+00  0.28925927742E+03  0.28925927742E+03  0.00000000000E+00 0. -1.
         -2   -1    0    0    0  501 -0.00000000000E+00 -0.00000000000E+00 -0.19570075875E+04  0.19570075875E+04  0.00000000000E+00 0.  1.
        -24    2    1    2    0    0 -0.23847684007E+03 -0.26404122981E+03 -0.10135773660E+04  0.10771542949E+04  0.79582183005E+02 0.  0.
        254    2    1    2    0    0  0.23847684007E+03  0.26404122981E+03 -0.65417094402E+03  0.11691125700E+04  0.90127443265E+03 0.  0.
         23    2    4    4    0    0  0.14505053903E+03  0.52647181396E+03 -0.67715213299E+03  0.87483417507E+03  0.92669266136E+02 0.  0.
         23    2    4    4    0    0  0.93426301038E+02 -0.26243058415E+03  0.22981188974E+02  0.29427839489E+03  0.92050819830E+02 0.  0.
          1    1    3    3  502    0 -0.13492511975E+01  0.49961213253E+01 -0.78671587869E+01  0.94166817122E+01  0.00000000000E+00 0. -1.
         -2    1    3    3    0  502 -0.23712758887E+03 -0.26903735113E+03 -0.10057102073E+04  0.10677376132E+04  0.00000000000E+00 0.  1.
         13    1    5    5    0    0  0.13660394309E+03  0.52787207390E+03 -0.66485125726E+03  0.85984693868E+03  0.00000000000E+00 0. -1.
        -13    1    5    5    0    0  0.84465959402E+01 -0.14002599422E+01 -0.12300875729E+02  0.14987236389E+02  0.00000000000E+00 0.  1.
          3    1    6    6  503    0  0.98381864498E+02 -0.26822985170E+03  0.21527723878E+02  0.28651297963E+03  0.00000000000E+00 0. -1.
         -3    1    6    6    0  503 -0.49555634597E+01  0.57992675502E+01  0.14534650955E+01  0.77654152565E+01  0.00000000000E+00 0.  1.
<mgrwt>
<rscale>  0 0.15047692E+04</rscale>
<asrwt>0</asrwt>
<pdfrwt beam="1">  1        1 0.44501426E-01 0.15047692E+04</pdfrwt>
<pdfrwt beam="2">  1       -2 0.30107810E+00 0.15047692E+04</pdfrwt>
<totfact> 0.24396821E+00</totfact>
</mgrwt>
</event>
<event>
12    5  0.5029243E-008  0.2746791E+04  0.7818608E-02  0.8319981E-01
          1   -1    0    0  501    0  0.00000000000E+00  0.00000000000E+00  0.89540403647E+03  0.89540403647E+03  0.00000000000E+00 0. -1.
         -2   -1    0    0    0  501 -0.00000000000E+00 -0.00000000000E+00 -0.21065517183E+04  0.21065517183E+04  0.00000000000E+00 0.  1.
        -24    2    1    2    0    0  0.44337428446E+03 -0.61271575129E+03 -0.15925727961E+04  0.17652739411E+04  0.88896727692E+02 0.  0.
        254    2    1    2    0    0 -0.44337428446E+03  0.61271575129E+03  0.38142511430E+03  0.12366818137E+04  0.90105240827E+03 0.  0.
         23    2    4    4    0    0 -0.12136996740E+03  0.36063868712E+03 -0.26038855287E+03  0.46986198649E+03  0.90427629875E+02 0.  0.
         23    2    4    4    0    0 -0.32200431705E+03  0.25207706417E+03  0.64181366717E+03  0.76681982718E+03  0.94118210309E+02 0.  0.
          1    1    3    3  502    0  0.38749226929E+02 -0.97255040927E+02 -0.18315700584E+03  0.21096571845E+03  0.00000000000E+00 0. -1.
         -2    1    3    3    0  502  0.40462505753E+03 -0.51546071036E+03 -0.14094157903E+04  0.15543082227E+04  0.00000000000E+00 0.  1.
         13    1    5    5    0    0 -0.11589497612E+03  0.21911365073E+03 -0.18587587980E+03  0.30982620954E+03  0.00000000000E+00 0. -1.
        -13    1    5    5    0    0 -0.54749912814E+01  0.14152503639E+03 -0.74512673066E+02  0.16003577695E+03  0.00000000000E+00 0.  1.
          1    1    6    6  503    0 -0.26620676886E+03  0.24763323581E+03  0.56109519919E+03  0.66859261574E+03  0.00000000000E+00 0. -1.
         -1    1    6    6    0  503 -0.55797548187E+02  0.44438283526E+01  0.80718467976E+02  0.98227211437E+02  0.00000000000E+00 0.  1.
<mgrwt>
<rscale>  0 0.27467908E+04</rscale>
<asrwt>0</asrwt>
<pdfrwt beam="1">  1        1 0.13775447E+00 0.27467908E+04</pdfrwt>
<pdfrwt beam="2">  1       -2 0.32408488E+00 0.27467908E+04</pdfrwt>
<totfact> 0.31632334E-01</totfact>
</mgrwt>
</event>
<event>
12    5  0.5029243E-008  0.1891037E+04  0.7818608E-02  0.8659331E-01
          1   -1    0    0  501    0  0.00000000000E+00  0.00000000000E+00  0.16662353826E+04  0.16662353826E+04  0.00000000000E+00 0. -1.
         -2   -1    0    0    0  501 -0.00000000000E+00 -0.00000000000E+00 -0.53654196203E+03  0.53654196203E+03  0.00000000000E+00 0.  1.
        -24    2    1    2    0    0  0.69757081789E+03 -0.19559982976E+02  0.22830574906E+03  0.74160632371E+03  0.10425346714E+03 0.  0.
        254    2    1    2    0    0 -0.69757081789E+03  0.19559982976E+02  0.90138767154E+03  0.14611710209E+04  0.91407514961E+03 0.  0.
         23    2    4    4    0    0 -0.84353941202E+03 -0.19564197348E+03  0.73243959238E+03  0.11378413315E+04  0.91545714404E+02 0.  0.
         23    2    4    4    0    0  0.14596859413E+03  0.21520195645E+03  0.16894807915E+03  0.32332968941E+03  0.91541914284E+02 0.  0.
          3    1    3    3  502    0  0.58122804661E+03 -0.35049681590E+02  0.22484084260E+03  0.62418581115E+03  0.00000000000E+00 0. -1.
         -4    1    3    3    0  502  0.11634277128E+03  0.15489698615E+02  0.34649064574E+01  0.11742051256E+03  0.00000000000E+00 0.  1.
         13    1    5    5    0    0 -0.17285550290E+03 -0.78216308668E+02  0.15122180350E+03  0.24262079399E+03  0.00000000000E+00 0.  1.
        -13    1    5    5    0    0 -0.67068390912E+03 -0.11742566481E+03  0.58121778889E+03  0.89522053753E+03  0.00000000000E+00 0. -1.
          1    1    6    6  503    0  0.58514741704E+02  0.21112483288E+02  0.47248369386E+02  0.78116069774E+02  0.00000000000E+00 0.  1.
         -1    1    6    6    0  503  0.87453852428E+02  0.19408947316E+03  0.12169970977E+03  0.24521361964E+03  0.00000000000E+00 0. -1.
<mgrwt>
<rscale>  0 0.18910370E+04</rscale>
<asrwt>0</asrwt>
<pdfrwt beam="1">  1        1 0.25634390E+00 0.18910370E+04</pdfrwt>
<pdfrwt beam="2">  1       -2 0.82544918E-01 0.18910370E+04</pdfrwt>
<totfact> 0.53203200E+00</totfact>
</mgrwt>
</event>
<event>
12    5  0.5029243E-008  0.2214954E+04  0.7818608E-02  0.8512230E-01
         -2   -1    0    0    0  501 -0.00000000000E+00  0.00000000000E+00  0.78490977600E+03  0.78490977600E+03  0.00000000000E+00 0.  1.
          1   -1    0    0  501    0  0.00000000000E+00 -0.00000000000E+00 -0.15626070551E+04  0.15626070551E+04  0.00000000000E+00 0. -1.
        -24    2    1    2    0    0  0.33624062582E+03  0.43531618957E+03  0.46358710291E+03  0.72371207321E+03  0.79298294837E+02 0.  0.
        254    2    1    2    0    0 -0.33624062582E+03 -0.43531618957E+03 -0.12412843820E+04  0.16238047579E+04  0.89072837127E+03 0.  0.
         23    2    4    4    0    0 -0.17526684334E+03 -0.58963106348E+03 -0.12350031437E+04  0.13826718455E+04  0.90362658071E+02 0.  0.
         23    2    4    4    0    0 -0.16097378248E+03  0.15431487391E+03 -0.62812383587E+01  0.24113291244E+03  0.91542277400E+02 0.  0.
          3    1    3    3  502    0  0.13908229009E+03  0.12697789776E+03  0.13331966615E+03  0.23074098751E+03  0.00000000000E+00 0. -1.
         -4    1    3    3    0  502  0.19715833573E+03  0.30833829181E+03  0.33026743676E+03  0.49297108569E+03  0.00000000000E+00 0.  1.
         13    1    5    5    0    0 -0.11696041799E+03 -0.50834300072E+03 -0.10437306152E+04  0.11668187275E+04  0.00000000000E+00 0. -1.
        -13    1    5    5    0    0 -0.58306425354E+02 -0.81288062759E+02 -0.19127252844E+03  0.21585311793E+03  0.00000000000E+00 0.  1.
          1    1    6    6  503    0 -0.12360123381E+03  0.15063442525E+03  0.19129041671E+02  0.19579048829E+03  0.00000000000E+00 0. -1.
         -1    1    6    6    0  503 -0.37372548675E+02  0.36804486560E+01 -0.25410280030E+02  0.45342424152E+02  0.00000000000E+00 0.  1.
<mgrwt>
<rscale>  0 0.22149542E+04</rscale>
<asrwt>0</asrwt>
<pdfrwt beam="1">  1        1 0.24040108E+00 0.22149542E+04</pdfrwt>
<pdfrwt beam="2">  1       -2 0.12075535E+00 0.22149542E+04</pdfrwt>
<totfact> 0.24745419E+00</totfact>
</mgrwt>
</event>
<event>
12    5  0.5029243E-008  0.1790446E+04  0.7818608E-02  0.8711397E-01
         -2   -1    0    0    0  501 -0.00000000000E+00  0.00000000000E+00  0.34758662570E+03  0.34758662570E+03  0.00000000000E+00 0.  1.
          1   -1    0    0  501    0  0.00000000000E+00 -0.00000000000E+00 -0.23056830177E+04  0.23056830177E+04  0.00000000000E+00 0. -1.
        -24    2    1    2    0    0  0.37382653121E+03 -0.28585601783E+03 -0.40369871280E+02  0.47763296739E+03  0.71018213606E+02 0.  0.
        254    2    1    2    0    0 -0.37382653121E+03  0.28585601783E+03 -0.19177265207E+04  0.21756366760E+04  0.91337834404E+03 0.  0.
         23    2    4    4    0    0 -0.63174559724E+03  0.92671342452E+01 -0.11884493153E+04  0.13489654070E+04  0.90041738951E+02 0.  0.
         23    2    4    4    0    0  0.25791906602E+03  0.27658888358E+03 -0.72927720538E+03  0.82667126901E+03  0.92284828533E+02 0.  0.
          1    1    3    3  502    0  0.33785655806E+01 -0.45273884139E+01 -0.99917865409E+01  0.11478142250E+02  0.00000000000E+00 0. -1.
         -2    1    3    3    0  502  0.37044796563E+03 -0.28132862942E+03 -0.30378084739E+02  0.46615482514E+03  0.00000000000E+00 0.  1.
         13    1    5    5    0    0 -0.41422610776E+03  0.43515568861E+02 -0.73270969463E+03  0.84281692537E+03  0.00000000000E+00 0. -1.
        -13    1    5    5    0    0 -0.21751948948E+03 -0.34248434616E+02 -0.45573962071E+03  0.50614848163E+03  0.00000000000E+00 0.  1.
          3    1    6    6  503    0  0.22159007763E+03  0.17921298974E+03 -0.54979613613E+03  0.61926993266E+03  0.00000000000E+00 0. -1.
         -3    1    6    6    0  503  0.36328988394E+02  0.97375893842E+02 -0.17948106925E+03  0.20740133635E+03  0.00000000000E+00 0.  1.
<mgrwt>
<rscale>  0 0.17904464E+04</rscale>
<asrwt>0</asrwt>
<pdfrwt beam="1">  1        1 0.35472047E+00 0.17904464E+04</pdfrwt>
<pdfrwt beam="2">  1       -2 0.53474865E-01 0.17904464E+04</pdfrwt>
<totfact> 0.50451247E+00</totfact>
</mgrwt>
</event>
<event>
12    5  0.5029243E-008  0.1791579E+04  0.7818608E-02  0.8710790E-01
          1   -1    0    0  501    0  0.00000000000E+00  0.00000000000E+00  0.18846378974E+04  0.18846378974E+04  0.00000000000E+00 0. -1.
         -2   -1    0    0    0  501 -0.00000000000E+00 -0.00000000000E+00 -0.42577885023E+03  0.42577885023E+03  0.00000000000E+00 0.  1.
        -24    2    1    2    0    0 -0.41126571910E+02 -0.62761735732E+03  0.25844066151E+03  0.68456475172E+03  0.79008744081E+02 0.  0.
        254    2    1    2    0    0  0.41126571910E+02  0.62761735732E+03  0.12004183856E+04  0.16258519959E+04  0.89821794116E+03 0.  0.
         23    2    4    4    0    0  0.46806836716E+02  0.52673583785E+03  0.13684458052E+03  0.55371495188E+03  0.90731945215E+02 0.  0.
         23    2    4    4    0    0 -0.56802648064E+01  0.10088151947E+03  0.10635738051E+04  0.10721370440E+04  0.89884680600E+02 0.  0.
          1    1    3    3  502    0 -0.48053744740E+02 -0.26554243937E+03  0.84198299230E+02  0.28268587351E+03  0.00000000000E+00 0. -1.
         -2    1    3    3    0  502  0.69271728298E+01 -0.36207491795E+03  0.17424236228E+03  0.40187887820E+03  0.00000000000E+00 0.  1.
         13    1    5    5    0    0 -0.12835648729E+02  0.31879451205E+03  0.63633875670E+02  0.32533669471E+03  0.00000000000E+00 0.  1.
        -13    1    5    5    0    0  0.59642485445E+02  0.20794132580E+03  0.73210704846E+02  0.22837825718E+03  0.00000000000E+00 0. -1.
          1    1    6    6  503    0  0.31774834429E+02  0.50364047086E+02  0.29234215611E+03  0.29834562772E+03  0.00000000000E+00 0. -1.
         -1    1    6    6    0  503 -0.37455099236E+02  0.50517472386E+02  0.77123164901E+03  0.77379141628E+03  0.00000000000E+00 0.  1.
<mgrwt>
<rscale>  0 0.17915791E+04</rscale>
<asrwt>0</asrwt>
<pdfrwt beam="1">  1        1 0.28994429E+00 0.17915791E+04</pdfrwt>
<pdfrwt beam="2">  1       -2 0.65504440E-01 0.17915791E+04</pdfrwt>
<totfact> 0.63528933E+00</totfact>
</mgrwt>
</event>
<event>
12    5  0.5029243E-008  0.1592764E+04  0.7818608E-02  0.8825006E-01
          1   -1    0    0  501    0  0.00000000000E+00  0.00000000000E+00  0.24698578579E+03  0.24698578579E+03  0.00000000000E+00 0. -1.
         -2   -1    0    0    0  501 -0.00000000000E+00 -0.00000000000E+00 -0.25678571624E+04  0.25678571624E+04  0.00000000000E+00 0.  1.
        -24    2    1    2    0    0  0.37758792661E+03 -0.26152380587E+03 -0.12980810633E+04  0.13792953085E+04  0.80459665836E+02 0.  0.
        254    2    1    2    0    0 -0.37758792661E+03  0.26152380587E+03 -0.10227903133E+04  0.14355476397E+04  0.89650970849E+03 0.  0.
         23    2    4    4    0    0 -0.22332816877E+03  0.46433452503E+03 -0.10398285075E+04  0.11640999918E+04  0.91670298869E+02 0.  0.
         23    2    4    4    0    0 -0.15425975784E+03 -0.20281071916E+03  0.17038194225E+02  0.27144764789E+03  0.92006873582E+02 0.  0.
          3    1    3    3  502    0  0.52345603468E+02 -0.28611115824E+02 -0.26108749506E+03  0.26781586627E+03  0.00000000000E+00 0. -1.
         -4    1    3    3    0  502  0.32524232314E+03 -0.23291269005E+03 -0.10369935682E+04  0.11114794422E+04  0.00000000000E+00 0.  1.
         13    1    5    5    0    0 -0.93051993673E+01  0.50623606555E+02 -0.16711605773E+03  0.17486312655E+03  0.00000000000E+00 0.  1.
        -13    1    5    5    0    0 -0.21402296940E+03  0.41371091848E+03 -0.87271244980E+03  0.98923686524E+03  0.00000000000E+00 0. -1.
          1    1    6    6  503    0 -0.46115091387E+02 -0.13642345804E+03  0.10209871157E+02  0.14436828954E+03  0.00000000000E+00 0. -1.
         -1    1    6    6    0  503 -0.10814466645E+03 -0.66387261123E+02  0.68283230681E+01  0.12707935834E+03  0.00000000000E+00 0.  1.
<mgrwt>
<rscale>  0 0.15927639E+04</rscale>
<asrwt>0</asrwt>
<pdfrwt beam="1">  1        1 0.37997814E-01 0.15927639E+04</pdfrwt>
<pdfrwt beam="2">  1       -2 0.39505494E+00 0.15927639E+04</pdfrwt>
<totfact> 0.76297545E-01</totfact>
</mgrwt>
</event>
<event>
12    5  0.5029243E-008  0.1481149E+04  0.7818608E-02  0.8897086E-01
         -2   -1    0    0    0  501 -0.00000000000E+00  0.00000000000E+00  0.94572316303E+03  0.94572316303E+03  0.00000000000E+00 0.  1.
          1   -1    0    0  501    0  0.00000000000E+00 -0.00000000000E+00 -0.57992721997E+03  0.57992721997E+03  0.00000000000E+00 0. -1.
        -24    2    1    2    0    0 -0.37752274496E+03 -0.25779236615E+03  0.46268479871E+02  0.46629020760E+03  0.79406916979E+02 0.  0.
        254    2    1    2    0    0  0.37752274496E+03  0.25779236615E+03  0.31952746320E+03  0.10593601754E+04  0.90064746404E+03 0.  0.
         23    2    4    4    0    0  0.11796914691E+03  0.50305819114E+03 -0.63263740562E+02  0.52783804700E+03  0.87329489214E+02 0.  0.
         23    2    4    4    0    0  0.25955359805E+03 -0.24526582499E+03  0.38279120376E+03  0.53152212840E+03  0.91996044135E+02 0.  0.
          1    1    3    3  502    0 -0.31215215738E+03 -0.21746472923E+03  0.68006219833E+02  0.38646438872E+03  0.00000000000E+00 0. -1.
         -2    1    3    3    0  502 -0.65370587586E+02 -0.40327636925E+02 -0.21737739962E+02  0.79825818881E+02  0.00000000000E+00 0.  1.
         13    1    5    5    0    0  0.10982575548E+03  0.27923357965E+03 -0.35053566628E+02  0.30209574824E+03  0.00000000000E+00 0.  1.
        -13    1    5    5    0    0  0.81433914308E+01  0.22382461149E+03 -0.28210173934E+02  0.22574229876E+03  0.00000000000E+00 0. -1.
          4    1    6    6  503    0  0.24490129474E+03 -0.18558144022E+03  0.31630159250E+03  0.44098051265E+03  0.00000000000E+00 0. -1.
         -4    1    6    6    0  503  0.14652303314E+02 -0.59684384771E+02  0.66489611263E+02  0.90541615756E+02  0.00000000000E+00 0.  1.
<mgrwt>
<rscale>  0 0.14811490E+04</rscale>
<asrwt>0</asrwt>
<pdfrwt beam="1">  1        1 0.89219572E-01 0.14811490E+04</pdfrwt>
<pdfrwt beam="2">  1       -2 0.14549587E+00 0.14811490E+04</pdfrwt>
<totfact> 0.98959490E+00</totfact>
</mgrwt>
</event>
<event>
12    5  0.5029243E-008  0.2287403E+04  0.7818608E-02  0.8482904E-01
         -2   -1    0    0    0  501 -0.00000000000E+00  0.00000000000E+00  0.10203826500E+04  0.10203826500E+04  0.00000000000E+00 0.  1.
          1   -1    0    0  501    0  0.00000000000E+00 -0.00000000000E+00 -0.12819243020E+04  0.12819243020E+04  0.00000000000E+00 0. -1.
        -24    2    1    2    0    0 -0.89495047417E+03  0.32200606882E+03 -0.27322207987E+03  0.99285001698E+03  0.80477274484E+02 0.  0.
        254    2    1    2    0    0  0.89495047417E+03 -0.32200606882E+03  0.11680427823E+02  0.13094569351E+04  0.89995376150E+03 0.  0.
         23    2    4    4    0    0  0.19290803049E+03  0.29171987850E+03  0.82897170678E+02  0.37008513286E+03  0.88187691400E+02 0.  0.
         23    2    4    4    0    0  0.70204244367E+03 -0.61372594732E+03 -0.71216742855E+02  0.93937180221E+03  0.88455792288E+02 0.  0.
          1    1    3    3  502    0 -0.44483884018E+03  0.15419317990E+03 -0.17670342733E+03  0.50287297769E+03  0.00000000000E+00 0. -1.
         -2    1    3    3    0  502 -0.45011163398E+03  0.16781288893E+03 -0.96518652541E+02  0.48997703928E+03  0.00000000000E+00 0.  1.
         13    1    5    5    0    0  0.16764114461E+02  0.92664885342E+02  0.11539907864E+02  0.94873526247E+02  0.00000000000E+00 0.  1.
        -13    1    5    5    0    0  0.17614391603E+03  0.19905499316E+03  0.71357262814E+02  0.27521160661E+03  0.00000000000E+00 0. -1.
          3    1    6    6  503    0  0.68186443485E+03 -0.57743606226E+03 -0.56435207610E+02  0.89529684808E+03  0.00000000000E+00 0. -1.
         -3    1    6    6    0  503  0.20178008820E+02 -0.36289885063E+02 -0.14781535245E+02  0.44074954135E+02  0.00000000000E+00 0.  1.
<mgrwt>
<rscale>  0 0.22874032E+04</rscale>
<asrwt>0</asrwt>
<pdfrwt beam="1">  1        1 0.19721912E+00 0.22874032E+04</pdfrwt>
<pdfrwt beam="2">  1       -2 0.15698195E+00 0.22874032E+04</pdfrwt>
<totfact> 0.19630424E+00</totfact>
</mgrwt>
</event>
<event>
12    5  0.5029243E-008  0.1045114E+04  0.7818608E-02  0.9260404E-01
          1   -1    0    0  501    0  0.00000000000E+00  0.00000000000E+00  0.57756525811E+03  0.57756525811E+03  0.00000000000E+00 0. -1.
         -2   -1    0    0    0  501 -0.00000000000E+00 -0.00000000000E+00 -0.47278745951E+03  0.47278745951E+03  0.00000000000E+00 0.  1.
        -24    2    1    2    0    0  0.11040676895E+02  0.19110131390E+02  0.12403240601E+03  0.14906540443E+03  0.79682892710E+02 0.  0.
        254    2    1    2    0    0 -0.11040676895E+02 -0.19110131390E+02 -0.19254607408E+02  0.90128731318E+03  0.90081129396E+03 0.  0.
         23    2    4    4    0    0  0.35271130905E+03 -0.17825890017E+03 -0.20400135559E+03  0.45399449849E+03  0.91175372519E+02 0.  0.
         23    2    4    4    0    0 -0.36375198594E+03  0.15914876878E+03  0.18474674818E+03  0.44729281469E+03  0.91080531564E+02 0.  0.
          3    1    3    3  502    0  0.20947918005E+02  0.28603785420E+02  0.12952172380E+03  0.13428651736E+03  0.00000000000E+00 0. -1.
         -4    1    3    3    0  502 -0.99072411095E+01 -0.94936540299E+01 -0.54893177921E+01  0.14778887071E+02  0.00000000000E+00 0.  1.
         13    1    5    5    0    0  0.76397973413E+02 -0.66059260284E+01 -0.63895824503E+02  0.99814653179E+02  0.00000000000E+00 0. -1.
        -13    1    5    5    0    0  0.27631333563E+03 -0.17165297414E+03 -0.14010553109E+03  0.35417984531E+03  0.00000000000E+00 0.  1.
          3    1    6    6  503    0 -0.16237496274E+03  0.22384983885E+02  0.72261132761E+02  0.17913231796E+03  0.00000000000E+00 0. -1.
         -3    1    6    6    0  503 -0.20137702320E+03  0.13676378490E+03  0.11248561542E+03  0.26816049674E+03  0.00000000000E+00 0.  1.
<mgrwt>
<rscale>  0 0.10451136E+04</rscale>
<asrwt>0</asrwt>
<pdfrwt beam="1">  1        1 0.88856193E-01 0.10451136E+04</pdfrwt>
<pdfrwt beam="2">  1       -2 0.72736532E-01 0.10451136E+04</pdfrwt>
<totfact> 0.54132324E+01</totfact>
</mgrwt>
</event>
<event>
12    5  0.5029243E-008  0.1918623E+04  0.7818608E-02  0.8645642E-01
          1   -1    0    0  501    0  0.00000000000E+00  0.00000000000E+00  0.80586755560E+03  0.80586755560E+03  0.00000000000E+00 0. -1.
         -2   -1    0    0    0  501 -0.00000000000E+00 -0.00000000000E+00 -0.11419722366E+04  0.11419722366E+04  0.00000000000E+00 0.  1.
        -24    2    1    2    0    0 -0.27372370735E+02 -0.61775401741E+03  0.29371439621E+03  0.68916291116E+03  0.79423541009E+02 0.  0.
        254    2    1    2    0    0  0.27372370735E+02  0.61775401741E+03 -0.62981907723E+03  0.12586768811E+04  0.89734394086E+03 0.  0.
         23    2    4    4    0    0 -0.12577295582E+03  0.32666598630E+03  0.16220605623E+03  0.39630621365E+03  0.90654880043E+02 0.  0.
         23    2    4    4    0    0  0.15314532656E+03  0.29108803111E+03 -0.79202513346E+03  0.86237066742E+03  0.90518633979E+02 0.  0.
          3    1    3    3  502    0  0.17858370209E+01 -0.34530959001E+03  0.20286030489E+03  0.40049245370E+03  0.00000000000E+00 0. -1.
         -4    1    3    3    0  502 -0.29158207756E+02 -0.27244442740E+03  0.90854091314E+02  0.28867045746E+03  0.00000000000E+00 0.  1.
         13    1    5    5    0    0  0.83792417321E+01  0.31500001723E+02 -0.24168104375E+01  0.32684901304E+02  0.00000000000E+00 0.  1.
        -13    1    5    5    0    0 -0.13415219756E+03  0.29516598458E+03  0.16462286667E+03  0.36362131234E+03  0.00000000000E+00 0. -1.
          2    1    6    6  503    0  0.71342515133E+02  0.22450116291E+03 -0.53721203043E+03  0.58658954325E+03  0.00000000000E+00 0. -1.
         -2    1    6    6    0  503  0.81802811426E+02  0.66586868204E+02 -0.25481310303E+03  0.27578112418E+03  0.00000000000E+00 0.  1.
<mgrwt>
<rscale>  0 0.19186228E+04</rscale>
<asrwt>0</asrwt>
<pdfrwt beam="1">  1        1 0.12397962E+00 0.19186228E+04</pdfrwt>
<pdfrwt beam="2">  1       -2 0.17568804E+00 0.19186228E+04</pdfrwt>
<totfact> 0.34731713E+00</totfact>
</mgrwt>
</event>
<event>
12    5  0.5029243E-008  0.1613088E+04  0.7818608E-02  0.8812548E-01
          1   -1    0    0  501    0  0.00000000000E+00  0.00000000000E+00  0.83270084896E+03  0.83270084896E+03  0.00000000000E+00 0. -1.
         -2   -1    0    0    0  501 -0.00000000000E+00 -0.00000000000E+00 -0.78120832177E+03  0.78120832177E+03  0.00000000000E+00 0.  1.
        -24    2    1    2    0    0  0.60702480713E+02 -0.40697152632E+03 -0.34427713948E+03  0.54231451193E+03  0.79168596606E+02 0.  0.
        254    2    1    2    0    0 -0.60702480713E+02  0.40697152632E+03  0.39576966667E+03  0.10715946588E+04  0.90684666251E+03 0.  0.
         23    2    4    4    0    0  0.11361418258E+03 -0.26152158799E+03  0.10987361808E+03  0.31837348121E+03  0.89374146815E+02 0.  0.
         23    2    4    4    0    0 -0.17431666329E+03  0.66849311431E+03  0.28589604858E+03  0.75322117758E+03  0.91303060120E+02 0.  0.
          3    1    3    3  502    0  0.11512541661E+02 -0.83375823750E+01 -0.15325025256E+01  0.14296938810E+02  0.00000000000E+00 0. -1.
         -4    1    3    3    0  502  0.49189939052E+02 -0.39863394394E+03 -0.34274463695E+03  0.52801757312E+03  0.00000000000E+00 0.  1.
         13    1    5    5    0    0  0.98844845760E+02 -0.24191288796E+03  0.68320650260E+02  0.27011082938E+03  0.00000000000E+00 0. -1.
        -13    1    5    5    0    0  0.14769336817E+02 -0.19608700029E+02  0.41552967824E+02  0.48262651832E+02  0.00000000000E+00 0.  1.
          2    1    6    6  503    0 -0.29259844111E+02  0.31011080488E+02  0.11226824621E+02  0.44089309152E+02  0.00000000000E+00 0.  1.
         -2    1    6    6    0  503 -0.14505681918E+03  0.63748203382E+03  0.27466922396E+03  0.70913186843E+03  0.00000000000E+00 0. -1.
<mgrwt>
<rscale>  0 0.16130875E+04</rscale>
<asrwt>0</asrwt>
<pdfrwt beam="1">  1        1 0.12810782E+00 0.16130875E+04</pdfrwt>
<pdfrwt beam="2">  1       -2 0.12018589E+00 0.16130875E+04</pdfrwt>
<totfact> 0.92013330E+00</totfact>
</mgrwt>
</event>
<event>
12    5  0.5029243E-008  0.1743019E+04  0.7818608E-02  0.8737202E-01
          1   -1    0    0  501    0  0.00000000000E+00  0.00000000000E+00  0.64960634365E+03  0.64960634365E+03  0.00000000000E+00 0. -1.
         -2   -1    0    0    0  501 -0.00000000000E+00 -0.00000000000E+00 -0.11692144805E+04  0.11692144805E+04  0.00000000000E+00 0.  1.
        -24    2    1    2    0    0  0.59109220260E+03  0.23937520796E+03 -0.16598527049E+03  0.66375907904E+03  0.79589715631E+02 0.  0.
        254    2    1    2    0    0 -0.59109220260E+03 -0.23937520796E+03 -0.35362286640E+03  0.11550617451E+04  0.89578346787E+03 0.  0.
         23    2    4    4    0    0  0.45787963847E+02 -0.27564808374E+03 -0.41589369893E+03  0.50754357635E+03  0.80959924516E+02 0.  0.
         23    2    4    4    0    0 -0.63688016644E+03  0.36272875775E+02  0.62270832533E+02  0.64751816880E+03  0.92032898551E+02 0.  0.
          1    1    3    3  502    0  0.54432747805E+03  0.23234568907E+03 -0.17139638805E+03  0.61616040479E+03  0.00000000000E+00 0. -1.
         -2    1    3    3    0  502  0.46764724543E+02  0.70295188932E+01  0.54111175593E+01  0.47598674254E+02  0.00000000000E+00 0.  1.
         13    1    5    5    0    0 -0.37319464296E+01 -0.18218655885E+00  0.22605555389E+01  0.43670044012E+01  0.00000000000E+00 0. -1.
        -13    1    5    5    0    0  0.49519910277E+02 -0.27546589718E+03 -0.41815425447E+03  0.50317657194E+03  0.00000000000E+00 0.  1.
          3    1    6    6  503    0 -0.41676174669E+02  0.11446914299E+02  0.26557584451E+02  0.50727119708E+02  0.00000000000E+00 0. -1.
         -3    1    6    6    0  503 -0.59520399177E+03  0.24825961476E+02  0.35713248082E+02  0.59679104909E+03  0.00000000000E+00 0.  1.
<mgrwt>
<rscale>  0 0.17430194E+04</rscale>
<asrwt>0</asrwt>
<pdfrwt beam="1">  1        1 0.99939438E-01 0.17430194E+04</pdfrwt>
<pdfrwt beam="2">  1       -2 0.17987915E+00 0.17430194E+04</pdfrwt>
<totfact> 0.45939684E+00</totfact>
</mgrwt>
</event>
<event>
12    5  0.5029243E-008  0.1215237E+04  0.7818608E-02  0.9099624E-01
         -2   -1    0    0    0  501 -0.00000000000E+00  0.00000000000E+00  0.22329197811E+03  0.22329197811E+03  0.00000000000E+00 0.  1.
          1   -1    0    0  501    0  0.00000000000E+00 -0.00000000000E+00 -0.16534405821E+04  0.16534405821E+04  0.00000000000E+00 0. -1.
        -24    2    1    2    0    0 -0.15190984278E+03  0.24906168129E+03 -0.61349750736E+03  0.68335668286E+03  0.74086726554E+02 0.  0.
        254    2    1    2    0    0  0.15190984278E+03 -0.24906168129E+03 -0.81665109658E+03  0.11933758773E+04  0.81982842691E+03 0.  0.
         23    2    4    4    0    0 -0.26839225124E+03 -0.12068183299E+03 -0.64474850907E+03  0.71467728908E+03  0.92002620807E+02 0.  0.
         23    2    4    4    0    0  0.42030209401E+03 -0.12837984830E+03 -0.17190258751E+03  0.47869858823E+03  0.80415191961E+02 0.  0.
          1    1    3    3  502    0 -0.34868391371E+02  0.88262543156E+02 -0.27306821935E+03  0.28908879892E+03  0.00000000000E+00 0. -1.
         -2    1    3    3    0  502 -0.11704145141E+03  0.16079913813E+03 -0.34042928801E+03  0.39426788394E+03  0.00000000000E+00 0.  1.
         13    1    5    5    0    0 -0.21496780800E+03 -0.13393556050E+03 -0.53020772532E+03  0.58759690676E+03  0.00000000000E+00 0. -1.
        -13    1    5    5    0    0 -0.53424443231E+02  0.13253727510E+02 -0.11454078375E+03  0.12708038232E+03  0.00000000000E+00 0.  1.
          4    1    6    6  503    0  0.35741740441E+03 -0.78990965424E+02 -0.13013876279E+03  0.38848792925E+03  0.00000000000E+00 0. -1.
         -4    1    6    6    0  503  0.62884689607E+02 -0.49388882873E+02 -0.41763824714E+02  0.90210658978E+02  0.00000000000E+00 0.  1.
<mgrwt>
<rscale>  0 0.12152366E+04</rscale>
<asrwt>0</asrwt>
<pdfrwt beam="1">  1        1 0.25437547E+00 0.12152366E+04</pdfrwt>
<pdfrwt beam="2">  1       -2 0.34352612E-01 0.12152366E+04</pdfrwt>
<totfact> 0.35335861E+01</totfact>
</mgrwt>
</event>
<event>
12    5  0.5029243E-008  0.2024314E+04  0.7818608E-02  0.8595337E-01
          1   -1    0    0  501    0  0.00000000000E+00  0.00000000000E+00  0.47384198960E+03  0.47384198960E+03  0.00000000000E+00 0. -1.
         -2   -1    0    0    0  501 -0.00000000000E+00 -0.00000000000E+00 -0.21620323760E+04  0.21620323760E+04  0.00000000000E+00 0.  1.
        -24    2    1    2    0    0  0.14291404295E+03 -0.47313291930E+03  0.16869098173E+03  0.52844648203E+03  0.80745613199E+02 0.  0.
        254    2    1    2    0    0 -0.14291404295E+03  0.47313291930E+03 -0.18568813681E+04  0.21074278836E+04  0.86542745861E+03 0.  0.
         23    2    4    4    0    0  0.50044736026E+02 -0.20800648497E+03 -0.79267267195E+03  0.82605570260E+03  0.90922414960E+02 0.  0.
         23    2    4    4    0    0 -0.19295877898E+03  0.68113940427E+03 -0.10642086962E+04  0.12813721810E+04  0.90501594977E+02 0.  0.
          1    1    3    3  502    0  0.11487991056E+03 -0.44832379084E+03  0.16246956952E+03  0.49049768226E+03  0.00000000000E+00 0. -1.
         -2    1    3    3    0  502  0.28034132388E+02 -0.24809128460E+02  0.62214122098E+01  0.37948799765E+02  0.00000000000E+00 0.  1.
         13    1    5    5    0    0 -0.18738122499E+02 -0.89949049381E+02 -0.24695401984E+03  0.26349238440E+03  0.00000000000E+00 0. -1.
        -13    1    5    5    0    0  0.68782858524E+02 -0.11805743559E+03 -0.54571865211E+03  0.56256331820E+03  0.00000000000E+00 0.  1.
          3    1    6    6  503    0 -0.17056123708E+02  0.14589475391E+03 -0.17226512426E+03  0.22638786100E+03  0.00000000000E+00 0. -1.
         -3    1    6    6    0  503 -0.17590265527E+03  0.53524465036E+03 -0.89194357193E+03  0.10549843200E+04  0.00000000000E+00 0.  1.
<mgrwt>
<rscale>  0 0.20243139E+04</rscale>
<asrwt>0</asrwt>
<pdfrwt beam="1">  1        1 0.72898769E-01 0.20243139E+04</pdfrwt>
<pdfrwt beam="2">  1       -2 0.33262036E+00 0.20243139E+04</pdfrwt>
<totfact> 0.77458509E-01</totfact>
</mgrwt>
</event>
<event>
12    5  0.5029243E-008  0.1448571E+04  0.7818608E-02  0.8919392E-01
         -2   -1    0    0    0  501 -0.00000000000E+00  0.00000000000E+00  0.22066843606E+03  0.22066843606E+03  0.00000000000E+00 0.  1.
          1   -1    0    0  501    0  0.00000000000E+00 -0.00000000000E+00 -0.23772737686E+04  0.23772737686E+04  0.00000000000E+00 0. -1.
        -24    2    1    2    0    0  0.11285241323E+03 -0.36719030880E+03 -0.32011212979E+03  0.50617045838E+03  0.78564414643E+02 0.  0.
        254    2    1    2    0    0 -0.11285241323E+03  0.36719030880E+03 -0.18364932028E+04  0.20917717463E+04  0.92479044371E+03 0.  0.
         23    2    4    4    0    0 -0.47948817333E+03  0.21631372465E+02 -0.86399577510E+03  0.99266411827E+03  0.92285035019E+02 0.  0.
         23    2    4    4    0    0  0.36663576010E+03  0.34555893633E+03 -0.97249742767E+03  0.10991076280E+04  0.91943309186E+02 0.  0.
          3    1    3    3  502    0 -0.85344372797E+01 -0.16016740032E+02 -0.46001270949E+01  0.18722546574E+02  0.00000000000E+00 0. -1.
         -4    1    3    3    0  502  0.12138685051E+03 -0.35117356876E+03 -0.31551200270E+03  0.48744791181E+03  0.00000000000E+00 0.  1.
         13    1    5    5    0    0 -0.57315260890E+02 -0.12108659057E+02 -0.16819689085E+03  0.17810629648E+03  0.00000000000E+00 0. -1.
        -13    1    5    5    0    0 -0.42217291244E+03  0.33740031521E+02 -0.69579888424E+03  0.81455782179E+03  0.00000000000E+00 0.  1.
          4    1    6    6  503    0  0.15615164257E+03  0.20766179639E+03 -0.46559516024E+03  0.53318440562E+03  0.00000000000E+00 0. -1.
         -4    1    6    6    0  503  0.21048411753E+03  0.13789713994E+03 -0.50690226743E+03  0.56592322241E+03  0.00000000000E+00 0.  1.
<mgrwt>
<rscale>  0 0.14485707E+04</rscale>
<asrwt>0</asrwt>
<pdfrwt beam="1">  1        1 0.36573440E+00 0.14485707E+04</pdfrwt>
<pdfrwt beam="2">  1       -2 0.33948992E-01 0.14485707E+04</pdfrwt>
<totfact> 0.11433468E+01</totfact>
</mgrwt>
</event>
<event>
12    5  0.5029243E-008  0.1729513E+04  0.7818608E-02  0.8744709E-01
         -2   -1    0    0    0  501 -0.00000000000E+00  0.00000000000E+00  0.68151632731E+03  0.68151632731E+03  0.00000000000E+00 0.  1.
          1   -1    0    0  501    0  0.00000000000E+00 -0.00000000000E+00 -0.10972648797E+04  0.10972648797E+04  0.00000000000E+00 0. -1.
        -24    2    1    2    0    0  0.88444399861E+02 -0.28568122138E+03 -0.71387597129E+03  0.77825624125E+03  0.81410702856E+02 0.  0.
        254    2    1    2    0    0 -0.88444399861E+02  0.28568122138E+03  0.29812741890E+03  0.10005249658E+04  0.90704689907E+03 0.  0.
         23    2    4    4    0    0 -0.12009399060E+03  0.47784341144E+03 -0.13297478124E+03  0.51840446818E+03  0.91126328529E+02 0.  0.
         23    2    4    4    0    0  0.31649590741E+02 -0.19216219006E+03  0.43110220014E+03  0.48212049758E+03  0.93075578648E+02 0.  0.
          1    1    3    3  502    0  0.97668120382E+02 -0.19083363080E+03 -0.50899968123E+03  0.55230173988E+03  0.00000000000E+00 0. -1.
         -2    1    3    3    0  502 -0.92237205208E+01 -0.94847590580E+02 -0.20487629006E+03  0.22595450137E+03  0.00000000000E+00 0.  1.
         13    1    5    5    0    0 -0.29195051853E+02  0.26403833429E+03 -0.42219128386E+02  0.26898150091E+03  0.00000000000E+00 0. -1.
        -13    1    5    5    0    0 -0.90898938748E+02  0.21380507715E+03 -0.90755652854E+02  0.24942296727E+03  0.00000000000E+00 0.  1.
          4    1    6    6  503    0  0.12846043157E+02 -0.11997684221E+02  0.12658262285E+03  0.12779720521E+03  0.00000000000E+00 0. -1.
         -4    1    6    6    0  503  0.18803547583E+02 -0.18016450584E+03  0.30451957729E+03  0.35432329238E+03  0.00000000000E+00 0.  1.
<mgrwt>
<rscale>  0 0.17295131E+04</rscale>
<asrwt>0</asrwt>
<pdfrwt beam="1">  1        1 0.16880998E+00 0.17295131E+04</pdfrwt>
<pdfrwt beam="2">  1       -2 0.10484867E+00 0.17295131E+04</pdfrwt>
<totfact> 0.78219880E+00</totfact>
</mgrwt>
</event>
<event>
12    5  0.5029243E-008  0.1880274E+04  0.7818608E-02  0.8664738E-01
         -2   -1    0    0    0  501 -0.00000000000E+00  0.00000000000E+00  0.51037052863E+03  0.51037052863E+03  0.00000000000E+00 0.  1.
          1   -1    0    0  501    0  0.00000000000E+00 -0.00000000000E+00 -0.17317961699E+04  0.17317961699E+04  0.00000000000E+00 0. -1.
        -24    2    1    2    0    0 -0.21561371095E+03  0.10765320767E+03  0.34233444775E+03  0.42615220960E+03  0.79588605660E+02 0.  0.
        254    2    1    2    0    0  0.21561371095E+03 -0.10765320767E+03 -0.15637600891E+04  0.18160144890E+04  0.89133861274E+03 0.  0.
         23    2    4    4    0    0  0.35496510119E+03 -0.12447042202E+03 -0.15986878763E+04  0.16447373715E+04  0.88684757790E+02 0.  0.
         23    2    4    4    0    0 -0.13935139023E+03  0.16817214347E+02  0.34927787210E+02  0.17127711753E+03  0.91729341064E+02 0.  0.
          3    1    3    3  502    0 -0.10798050628E+02 -0.10020068016E+02  0.79159028458E+01  0.16723073231E+02  0.00000000000E+00 0. -1.
         -4    1    3    3    0  502 -0.20481566033E+03  0.11767327569E+03  0.33441854491E+03  0.40942913637E+03  0.00000000000E+00 0.  1.
         13    1    5    5    0    0  0.30249662541E+03 -0.11214530597E+03 -0.12075289573E+04  0.12498827788E+04  0.00000000000E+00 0. -1.
        -13    1    5    5    0    0  0.52468475774E+02 -0.12325116044E+02 -0.39115891895E+03  0.39485459261E+03  0.00000000000E+00 0.  1.
          1    1    6    6  503    0 -0.13225666598E+03  0.34519596118E+02  0.51444625599E+02  0.14604786104E+03  0.00000000000E+00 0. -1.
         -1    1    6    6    0  503 -0.70947242543E+01 -0.17702381771E+02 -0.16516838389E+02  0.25229256489E+02  0.00000000000E+00 0.  1.
<mgrwt>
<rscale>  0 0.18802742E+04</rscale>
<asrwt>0</asrwt>
<pdfrwt beam="1">  1        1 0.26643018E+00 0.18802742E+04</pdfrwt>
<pdfrwt beam="2">  1       -2 0.78518544E-01 0.18802742E+04</pdfrwt>
<totfact> 0.53771342E+00</totfact>
</mgrwt>
</event>
<event>
12    5  0.5029243E-008  0.2070461E+04  0.7818608E-02  0.8574368E-01
          1   -1    0    0  501    0  0.00000000000E+00  0.00000000000E+00  0.27347077121E+04  0.27347077121E+04  0.00000000000E+00 0. -1.
         -2   -1    0    0    0  501 -0.00000000000E+00 -0.00000000000E+00 -0.39188912878E+03  0.39188912878E+03  0.00000000000E+00 0.  1.
        -24    2    1    2    0    0  0.29495098437E+03  0.63662744083E+03  0.16603120947E+04  0.18041688717E+04  0.78092792594E+02 0.  0.
        254    2    1    2    0    0 -0.29495098437E+03 -0.63662744083E+03  0.68250648866E+03  0.13224279692E+04  0.88921878358E+03 0.  0.
         23    2    4    4    0    0  0.23063772503E+03  0.11468980510E+02  0.12633572127E+02  0.24862508647E+03  0.91266252004E+02 0.  0.
         23    2    4    4    0    0 -0.52558870940E+03 -0.64809642134E+03  0.66987291653E+03  0.10738028827E+04  0.89724265802E+02 0.  0.
          1    1    3    3  502    0  0.21642256165E+03  0.53593561633E+03  0.13793325605E+04  0.14955346945E+04  0.00000000000E+00 0. -1.
         -2    1    3    3    0  502  0.78528422720E+02  0.10069182450E+03  0.28097953419E+03  0.30863417719E+03  0.00000000000E+00 0.  1.
         13    1    5    5    0    0  0.11380416895E+03 -0.17300292443E+02  0.45683079905E+02  0.12384519683E+03  0.00000000000E+00 0.  1.
        -13    1    5    5    0    0  0.11683355608E+03  0.28769272953E+02 -0.33049507778E+02  0.12477988963E+03  0.00000000000E+00 0. -1.
          4    1    6    6  503    0 -0.38607216405E+03 -0.50950927599E+03  0.55147965191E+03  0.84426371748E+03  0.00000000000E+00 0. -1.
         -4    1    6    6    0  503 -0.13951654534E+03 -0.13858714535E+03  0.11839326462E+03  0.22953916526E+03  0.00000000000E+00 0.  1.
<mgrwt>
<rscale>  0 0.20704610E+04</rscale>
<asrwt>0</asrwt>
<pdfrwt beam="1">  1        1 0.42072425E+00 0.20704610E+04</pdfrwt>
<pdfrwt beam="2">  1       -2 0.60290637E-01 0.20704610E+04</pdfrwt>
<totfact> 0.19275612E+00</totfact>
</mgrwt>
</event>
<event>
12    5  0.5029243E-008  0.2158574E+04  0.7818608E-02  0.8535871E-01
          1   -1    0    0  501    0  0.00000000000E+00  0.00000000000E+00  0.11513151065E+04  0.11513151065E+04  0.00000000000E+00 0. -1.
         -2   -1    0    0    0  501 -0.00000000000E+00 -0.00000000000E+00 -0.10117649054E+04  0.10117649054E+04  0.00000000000E+00 0.  1.
        -24    2    1    2    0    0  0.33035930207E+02 -0.68339953484E+03  0.62267167445E+03  0.93173054309E+03  0.11079482776E+03 0.  0.
        254    2    1    2    0    0 -0.33035930207E+02  0.68339953484E+03 -0.48312147329E+03  0.12313494688E+04  0.90260116305E+03 0.  0.
         23    2    4    4    0    0 -0.21115542078E+03  0.73028778570E+03 -0.69732499420E+02  0.76881693880E+03  0.91159213677E+02 0.  0.
         23    2    4    4    0    0  0.17811949057E+03 -0.46888250855E+02 -0.41338897387E+03  0.46253253004E+03  0.95503071361E+02 0.  0.
          1    1    3    3  502    0 -0.37066618604E+02 -0.23559192178E+03  0.18733211227E+03  0.30326689254E+03  0.00000000000E+00 0. -1.
         -2    1    3    3    0  502  0.70102548811E+02 -0.44780761306E+03  0.43533956218E+03  0.62846365055E+03  0.00000000000E+00 0.  1.
         13    1    5    5    0    0 -0.12566844681E+03  0.56837087550E+03 -0.41760569736E+02  0.58359399914E+03  0.00000000000E+00 0.  1.
        -13    1    5    5    0    0 -0.85486973967E+02  0.16191691019E+03 -0.27971929685E+02  0.18522293966E+03  0.00000000000E+00 0. -1.
          2    1    6    6  503    0  0.66135212469E+02  0.29255905763E+01 -0.63237137281E+02  0.91549773020E+02  0.00000000000E+00 0. -1.
         -2    1    6    6    0  503  0.11198427810E+03 -0.49813841431E+02 -0.35015183659E+03  0.37098275702E+03  0.00000000000E+00 0.  1.
<mgrwt>
<rscale>  0 0.21585738E+04</rscale>
<asrwt>0</asrwt>
<pdfrwt beam="1">  1        1 0.17712540E+00 0.21585738E+04</pdfrwt>
<pdfrwt beam="2">  1       -2 0.15565614E+00 0.21585738E+04</pdfrwt>
<totfact> 0.25282276E+00</totfact>
</mgrwt>
</event>
<event>
12    5  0.5029243E-008  0.2218716E+04  0.7818608E-02  0.8510678E-01
         -2   -1    0    0    0  501 -0.00000000000E+00  0.00000000000E+00  0.45504329800E+03  0.45504329800E+03  0.00000000000E+00 0.  1.
          1   -1    0    0  501    0  0.00000000000E+00 -0.00000000000E+00 -0.27045243437E+04  0.27045243437E+04  0.00000000000E+00 0. -1.
        -24    2    1    2    0    0  0.17037180557E+03 -0.10983454469E+03 -0.22264242827E+04  0.22370910975E+04  0.80754645707E+02 0.  0.
        254    2    1    2    0    0 -0.17037180557E+03  0.10983454469E+03 -0.23056762992E+02  0.92247654414E+03  0.89963391489E+03 0.  0.
         23    2    4    4    0    0 -0.29142398944E+03 -0.13212596375E+03  0.32999101190E+03  0.46872426448E+03  0.91777754681E+02 0.  0.
         23    2    4    4    0    0  0.12105218387E+03  0.24196050844E+03 -0.35304777489E+03  0.45375227966E+03  0.89721129482E+02 0.  0.
          1    1    3    3  502    0  0.58364094541E+02 -0.59574860737E+02 -0.12837594612E+04  0.12864656566E+04  0.00000000000E+00 0. -1.
         -2    1    3    3    0  502  0.11200771103E+03 -0.50259683954E+02 -0.94266482149E+03  0.95062544087E+03  0.00000000000E+00 0.  1.
         13    1    5    5    0    0 -0.26418001899E+03 -0.14582873537E+03  0.30752517287E+03  0.43084664840E+03  0.00000000000E+00 0.  1.
        -13    1    5    5    0    0 -0.27243970455E+02  0.13702771616E+02  0.22465839030E+02  0.37877616073E+02  0.00000000000E+00 0. -1.
          1    1    6    6  503    0  0.13537853041E+02 -0.53449655725E+01 -0.26666749237E+02  0.30380217853E+02  0.00000000000E+00 0. -1.
         -1    1    6    6    0  503  0.10751433083E+03  0.24730547402E+03 -0.32638102566E+03  0.42337206181E+03  0.00000000000E+00 0.  1.
<mgrwt>
<rscale>  0 0.22187165E+04</rscale>
<asrwt>0</asrwt>
<pdfrwt beam="1">  1        1 0.41608067E+00 0.22187165E+04</pdfrwt>
<pdfrwt beam="2">  1       -2 0.70006661E-01 0.22187165E+04</pdfrwt>
<totfact> 0.14486958E+00</totfact>
</mgrwt>
</event>
<event>
12    5  0.5029243E-008  0.1113312E+04  0.7818608E-02  0.9192313E-01
         -2   -1    0    0    0  501 -0.00000000000E+00  0.00000000000E+00  0.30123762349E+03  0.30123762349E+03  0.00000000000E+00 0.  1.
          1   -1    0    0  501    0  0.00000000000E+00 -0.00000000000E+00 -0.10286436055E+04  0.10286436055E+04  0.00000000000E+00 0. -1.
        -24    2    1    2    0    0  0.12250646197E+03 -0.10388908977E+03 -0.41624668346E+01  0.17963183947E+03  0.80308750600E+02 0.  0.
        254    2    1    2    0    0 -0.12250646197E+03  0.10388908977E+03 -0.72324351519E+03  0.11502493895E+04  0.87988163958E+03 0.  0.
         23    2    4    4    0    0 -0.15404239681E+03  0.40966558173E+03 -0.69828917315E+03  0.82897763192E+03  0.89672716105E+02 0.  0.
         23    2    4    4    0    0  0.31535934834E+02 -0.30577649195E+03 -0.24954342044E+02  0.32127175763E+03  0.89994693424E+02 0.  0.
          1    1    3    3  502    0  0.57929375320E+01 -0.18092217909E+02  0.25472069236E+02  0.31775978117E+02  0.00000000000E+00 0. -1.
         -2    1    3    3    0  502  0.11671352444E+03 -0.85796871865E+02 -0.29634536070E+02  0.14785586136E+03  0.00000000000E+00 0.  1.
         13    1    5    5    0    0 -0.16193503681E+03  0.34313601042E+03 -0.60465077104E+03  0.71384020110E+03  0.00000000000E+00 0.  1.
        -13    1    5    5    0    0  0.78926400009E+01  0.66529571305E+02 -0.93638402110E+02  0.11513743081E+03  0.00000000000E+00 0. -1.
          3    1    6    6  503    0 -0.25561132054E+02 -0.15204295045E+03  0.63903054719E+01  0.15430899603E+03  0.00000000000E+00 0. -1.
         -3    1    6    6    0  503  0.57097066888E+02 -0.15373354151E+03 -0.31344647516E+02  0.16696276160E+03  0.00000000000E+00 0.  1.
<mgrwt>
<rscale>  0 0.11133125E+04</rscale>
<asrwt>0</asrwt>
<pdfrwt beam="1">  1        1 0.15825286E+00 0.11133125E+04</pdfrwt>
<pdfrwt beam="2">  1       -2 0.46344250E-01 0.11133125E+04</pdfrwt>
<totfact> 0.55373330E+01</totfact>
</mgrwt>
</event>
<event>
12    5  0.5029243E-008  0.1501866E+04  0.7818608E-02  0.8883213E-01
         -2   -1    0    0    0  501 -0.00000000000E+00  0.00000000000E+00  0.90381697347E+03  0.90381697347E+03  0.00000000000E+00 0.  1.
          1   -1    0    0  501    0  0.00000000000E+00 -0.00000000000E+00 -0.62390973035E+03  0.62390973035E+03  0.00000000000E+00 0. -1.
        -24    2    1    2    0    0  0.34418224409E+03 -0.28120060094E+03 -0.66188889791E+02  0.45601096214E+03  0.77652001566E+02 0.  0.
        254    2    1    2    0    0 -0.34418224409E+03  0.28120060094E+03  0.34609613291E+03  0.10717157417E+04  0.91173291189E+03 0.  0.
         23    2    4    4    0    0 -0.20400250301E+03 -0.81098400580E+02 -0.25671130248E+03  0.34877445094E+03  0.86884710951E+02 0.  0.
         23    2    4    4    0    0 -0.14017974108E+03  0.36229900152E+03  0.60280743539E+03  0.72294129073E+03  0.91413234104E+02 0.  0.
          1    1    3    3  502    0  0.34025699681E+03 -0.28382112331E+03 -0.58426050451E+02  0.44692600874E+03  0.00000000000E+00 0. -1.
         -2    1    3    3    0  502  0.39252472803E+01  0.26205223734E+01 -0.77628393402E+01  0.90849534034E+01  0.00000000000E+00 0.  1.
         13    1    5    5    0    0 -0.33772746130E+02  0.15476054855E+02 -0.22021227207E+02  0.43186121645E+02  0.00000000000E+00 0. -1.
        -13    1    5    5    0    0 -0.17022975688E+03 -0.96574455435E+02 -0.23469007528E+03  0.30558832930E+03  0.00000000000E+00 0.  1.
          1    1    6    6  503    0 -0.26947334892E+01  0.12053739773E+03  0.16775060789E+03  0.20658362057E+03  0.00000000000E+00 0. -1.
         -1    1    6    6    0  503 -0.13748500759E+03  0.24176160379E+03  0.43505682751E+03  0.51635767017E+03  0.00000000000E+00 0.  1.
<mgrwt>
<rscale>  0 0.15018658E+04</rscale>
<asrwt>0</asrwt>
<pdfrwt beam="1">  1        1 0.95986112E-01 0.15018658E+04</pdfrwt>
<pdfrwt beam="2">  1       -2 0.13904877E+00 0.15018658E+04</pdfrwt>
<totfact> 0.10007276E+01</totfact>
</mgrwt>
</event>
<event>
12    5  0.5029243E-008  0.2408504E+04  0.7818608E-02  0.8436327E-01
         -4   -1    0    0    0  501 -0.00000000000E+00  0.00000000000E+00  0.12943831695E+04  0.12943831695E+04  0.00000000000E+00 0.  1.
          3   -1    0    0  501    0  0.00000000000E+00 -0.00000000000E+00 -0.11203964343E+04  0.11203964343E+04  0.00000000000E+00 0. -1.
        -24    2    1    2    0    0  0.62242348919E+03 -0.81495748619E+03  0.20550008885E+03  0.10489156962E+04  0.80169489630E+02 0.  0.
        254    2    1    2    0    0 -0.62242348919E+03  0.81495748619E+03 -0.31513353590E+02  0.13658639076E+04  0.90167866697E+03 0.  0.
         23    2    4    4    0    0  0.46516770944E+02  0.59705491988E+03 -0.19752490566E+03  0.63725985075E+03  0.91900172384E+02 0.  0.
         23    2    4    4    0    0 -0.66894026013E+03  0.21790256630E+03  0.16601155207E+03  0.72860405686E+03  0.91331463530E+02 0.  0.
          1    1    3    3  502    0  0.61529792537E+03 -0.81123747295E+03  0.19672264469E+03  0.10370137769E+04  0.00000000000E+00 0. -1.
         -2    1    3    3    0  502  0.71255638221E+01 -0.37200132397E+01  0.87774441597E+01  0.11901919352E+02  0.00000000000E+00 0.  1.
         13    1    5    5    0    0  0.18053241104E+02  0.17001454211E+02 -0.12331695975E+02  0.27695481315E+02  0.00000000000E+00 0.  1.
        -13    1    5    5    0    0  0.28463529840E+02  0.58005346567E+03 -0.18519320968E+03  0.60956436943E+03  0.00000000000E+00 0. -1.
          2    1    6    6  503    0 -0.37461537169E+03  0.76130888851E+02  0.76198279543E+02  0.38979323589E+03  0.00000000000E+00 0. -1.
         -2    1    6    6    0  503 -0.29432488845E+03  0.14177167745E+03  0.89813272525E+02  0.33881082097E+03  0.00000000000E+00 0.  1.
<mgrwt>
<rscale>  0 0.24085035E+04</rscale>
<asrwt>0</asrwt>
<pdfrwt beam="1">  1        3 0.17236868E+00 0.24085035E+04</pdfrwt>
<pdfrwt beam="2">  1       -4 0.19913587E+00 0.24085035E+04</pdfrwt>
<totfact> 0.61126701E-02</totfact>
</mgrwt>
</event>
<event>
12    5  0.5029243E-008  0.2094082E+04  0.7818608E-02  0.8563855E-01
          1   -1    0    0  501    0  0.00000000000E+00  0.00000000000E+00  0.17549820467E+04  0.17549820467E+04  0.00000000000E+00 0. -1.
         -2   -1    0    0    0  501 -0.00000000000E+00 -0.00000000000E+00 -0.62467555049E+03  0.62467555049E+03  0.00000000000E+00 0.  1.
        -24    2    1    2    0    0  0.19755020380E+03  0.80183369378E+03  0.63975366603E+03  0.10475250321E+04  0.77849754087E+02 0.  0.
        254    2    1    2    0    0 -0.19755020380E+03 -0.80183369378E+03  0.49055283021E+03  0.13321325651E+04  0.92302315045E+03 0.  0.
         23    2    4    4    0    0 -0.54566206211E+03 -0.36228349534E+03  0.34484253197E+03  0.74585560148E+03  0.91584875248E+02 0.  0.
         23    2    4    4    0    0  0.34811185832E+03 -0.43955019844E+03  0.14571029824E+03  0.58627696362E+03  0.90016355233E+02 0.  0.
          1    1    3    3  502    0  0.14845217365E+03  0.70824737029E+03  0.55149206819E+03  0.90983288942E+03  0.00000000000E+00 0. -1.
         -2    1    3    3    0  502  0.49098030148E+02  0.93586323490E+02  0.88261597832E+02  0.13769214270E+03  0.00000000000E+00 0.  1.
         13    1    5    5    0    0 -0.20215053739E+03 -0.12809060653E+03  0.17629847730E+03  0.29724265566E+03  0.00000000000E+00 0. -1.
        -13    1    5    5    0    0 -0.34351152472E+03 -0.23419288881E+03  0.16854405467E+03  0.44861294581E+03  0.00000000000E+00 0.  1.
          1    1    6    6  503    0  0.31473763213E+03 -0.41107394643E+03  0.10901116140E+03  0.52907938896E+03  0.00000000000E+00 0. -1.
         -1    1    6    6    0  503  0.33374226183E+02 -0.28476252010E+02  0.36699136843E+02  0.57197574659E+02  0.00000000000E+00 0.  1.
<mgrwt>
<rscale>  0 0.20940815E+04</rscale>
<asrwt>0</asrwt>
<pdfrwt beam="1">  1        1 0.26999724E+00 0.20940815E+04</pdfrwt>
<pdfrwt beam="2">  1       -2 0.96103931E-01 0.20940815E+04</pdfrwt>
<totfact> 0.32042157E+00</totfact>
</mgrwt>
</event>
<event>
12    5  0.5137764E-008  0.2287451E+04  0.7818608E-02  0.8482886E-01
         -2   -1    0    0    0  501 -0.00000000000E+00  0.00000000000E+00  0.10378383729E+04  0.10378383729E+04  0.00000000000E+00 0.  1.
          1   -1    0    0  501    0  0.00000000000E+00 -0.00000000000E+00 -0.12604155660E+04  0.12604155660E+04  0.00000000000E+00 0. -1.
        -24    2    1    2    0    0 -0.24960515164E+02 -0.14066196504E+03  0.86524174994E+03  0.88122768891E+03  0.86661053210E+02 0.  0.
        254    2    1    2    0    0  0.24960515164E+02  0.14066196504E+03 -0.10878189431E+04  0.14170262500E+04  0.89677451145E+03 0.  0.
         23    2    4    4    0    0 -0.24252053763E+03  0.43058772097E+03 -0.63022826513E+03  0.80592073253E+03  0.89992023744E+02 0.  0.
         23    2    4    4    0    0  0.26748105280E+03 -0.28992575593E+03 -0.45759067796E+03  0.61110551742E+03  0.91965576757E+02 0.  0.
          3    1    3    3  502    0  0.22878295850E+02 -0.25349418794E+02  0.95355542463E+02  0.10128518615E+03  0.00000000000E+00 0. -1.
         -4    1    3    3    0  502 -0.47838811014E+02 -0.11531254625E+03  0.76988620747E+03  0.77994250277E+03  0.00000000000E+00 0.  1.
         13    1    5    5    0    0 -0.45964134712E+02  0.73623575951E+02 -0.17233621431E+03  0.19295829440E+03  0.00000000000E+00 0. -1.
        -13    1    5    5    0    0 -0.19655640292E+03  0.35696414502E+03 -0.45789205082E+03  0.61296243813E+03  0.00000000000E+00 0.  1.
          4    1    6    6  503    0  0.22772300580E+02 -0.26548480771E+02 -0.87901386148E+01  0.36064747910E+02  0.00000000000E+00 0. -1.
         -4    1    6    6    0  503  0.24470875221E+03 -0.26337727516E+03 -0.44880053935E+03  0.57504076951E+03  0.00000000000E+00 0.  1.
<mgrwt>
<rscale>  0 0.22874507E+04</rscale>
<asrwt>0</asrwt>
<pdfrwt beam="1">  1        1 0.19391009E+00 0.22874507E+04</pdfrwt>
<pdfrwt beam="2">  1       -2 0.15966744E+00 0.22874507E+04</pdfrwt>
<totfact> 0.19426047E+00</totfact>
</mgrwt>
</event>
<event>
12    5  0.5029243E-008  0.1392811E+04  0.7818608E-02  0.8959039E-01
          1   -1    0    0  501    0  0.00000000000E+00  0.00000000000E+00  0.15015485700E+04  0.15015485700E+04  0.00000000000E+00 0. -1.
         -2   -1    0    0    0  501 -0.00000000000E+00 -0.00000000000E+00 -0.32298694569E+03  0.32298694569E+03  0.00000000000E+00 0.  1.
        -24    2    1    2    0    0  0.21563557372E+03  0.22404027741E+02 -0.86370224346E+02  0.24674632489E+03  0.80145443294E+02 0.  0.
        254    2    1    2    0    0 -0.21563557372E+03 -0.22404027741E+02  0.12649318487E+04  0.15777891908E+04  0.91780472202E+03 0.  0.
         23    2    4    4    0    0 -0.29194444150E+03 -0.41184437240E+03  0.87765693875E+03  0.10163222756E+04  0.88215201652E+02 0.  0.
         23    2    4    4    0    0  0.76308867786E+02  0.38944034466E+03  0.38727490995E+03  0.56146691521E+03  0.88183987471E+02 0.  0.
          3    1    3    3  502    0  0.19754003446E+02  0.12257304501E+02  0.13244840296E+02  0.26756082677E+02  0.00000000000E+00 0. -1.
         -4    1    3    3    0  502  0.19588157027E+03  0.10146723240E+02 -0.99615064642E+02  0.21999024221E+03  0.00000000000E+00 0.  1.
         13    1    5    5    0    0 -0.79324810395E+00 -0.13505524324E+02  0.61967601143E+01  0.14880465911E+02  0.00000000000E+00 0.  1.
        -13    1    5    5    0    0 -0.29115119340E+03 -0.39833884808E+03  0.87146017864E+03  0.10014418097E+04  0.00000000000E+00 0. -1.
          4    1    6    6  503    0  0.89501107325E+02  0.23486943126E+03  0.23525171992E+03  0.34426366303E+03  0.00000000000E+00 0. -1.
         -4    1    6    6    0  503 -0.13192239539E+02  0.15457091340E+03  0.15202319003E+03  0.21720325219E+03  0.00000000000E+00 0.  1.
<mgrwt>
<rscale>  0 0.13928110E+04</rscale>
<asrwt>0</asrwt>
<pdfrwt beam="1">  1        1 0.23100747E+00 0.13928110E+04</pdfrwt>
<pdfrwt beam="2">  1       -2 0.49690300E-01 0.13928110E+04</pdfrwt>
<totfact> 0.21408811E+01</totfact>
</mgrwt>
</event>
<event>
12    5  0.5029243E-008  0.1675604E+04  0.7818608E-02  0.8775402E-01
         -2   -1    0    0    0  501 -0.00000000000E+00  0.00000000000E+00  0.99518380198E+03  0.99518380198E+03  0.00000000000E+00 0.  1.
          1   -1    0    0  501    0  0.00000000000E+00 -0.00000000000E+00 -0.70530872366E+03  0.70530872366E+03  0.00000000000E+00 0. -1.
        -24    2    1    2    0    0  0.15822852809E+03 -0.19450391546E+03 -0.44460763342E+03  0.51668189986E+03  0.80101171775E+02 0.  0.
        254    2    1    2    0    0 -0.15822852809E+03  0.19450391546E+03  0.73448271174E+03  0.11838106258E+04  0.89390978495E+03 0.  0.
         23    2    4    4    0    0  0.34406641245E+03  0.29437221636E+01  0.43555761120E+03  0.56228612142E+03  0.89804721427E+02 0.  0.
         23    2    4    4    0    0 -0.50229494054E+03  0.19156019330E+03  0.29892510055E+03  0.62152450437E+03  0.89112170030E+02 0.  0.
          1    1    3    3  502    0  0.60405761212E+02 -0.13622491825E+03 -0.23904403370E+03  0.28168800895E+03  0.00000000000E+00 0. -1.
         -4    1    3    3    0  502  0.97822766877E+02 -0.58278997209E+02 -0.20556359972E+03  0.23499389091E+03  0.00000000000E+00 0.  1.
         13    1    5    5    0    0  0.32249573920E+03 -0.10628557506E+02  0.42740379385E+03  0.53552821684E+03  0.00000000000E+00 0. -1.
        -13    1    5    5    0    0  0.21570673249E+02  0.13572279670E+02  0.81538173454E+01  0.26757904573E+02  0.00000000000E+00 0.  1.
          1    1    6    6  503    0 -0.42866210020E+03  0.15965415038E+03  0.28798709925E+03  0.54053419246E+03  0.00000000000E+00 0. -1.
         -1    1    6    6    0  503 -0.73632840336E+02  0.31906042916E+02  0.10938001294E+02  0.80990311907E+02  0.00000000000E+00 0.  1.
<mgrwt>
<rscale>  0 0.16756036E+04</rscale>
<asrwt>0</asrwt>
<pdfrwt beam="1">  1        1 0.10850903E+00 0.16756036E+04</pdfrwt>
<pdfrwt beam="2">  1       -2 0.15310520E+00 0.16756036E+04</pdfrwt>
<totfact> 0.63764657E+00</totfact>
</mgrwt>
</event>
<event>
12    5  0.5029243E-008  0.1328632E+04  0.7818608E-02  0.9007163E-01
          1   -1    0    0  501    0  0.00000000000E+00  0.00000000000E+00  0.13344325471E+04  0.13344325471E+04  0.00000000000E+00 0. -1.
         -2   -1    0    0    0  501 -0.00000000000E+00 -0.00000000000E+00 -0.33071402702E+03  0.33071402702E+03  0.00000000000E+00 0.  1.
        -24    2    1    2    0    0  0.20677163315E+03  0.52569460342E+02  0.61279797900E+03  0.65415397200E+03  0.82933705966E+02 0.  0.
        254    2    1    2    0    0 -0.20677163315E+03 -0.52569460342E+02  0.39092054110E+03  0.10109926021E+04  0.90761727378E+03 0.  0.
         23    2    4    4    0    0  0.11944298809E+03 -0.38435373839E+03  0.33527195295E+03  0.53318947264E+03  0.99444998265E+02 0.  0.
         23    2    4    4    0    0 -0.32621462124E+03  0.33178427805E+03  0.55648588149E+02  0.47780312949E+03  0.93286005981E+02 0.  0.
          3    1    3    3  502    0  0.14850217591E+03  0.28992412263E+02  0.52366434638E+03  0.54508513454E+03  0.00000000000E+00 0. -1.
         -4    1    3    3    0  502  0.58269457236E+02  0.23577048079E+02  0.89133632610E+02  0.10906883746E+03  0.00000000000E+00 0.  1.
         13    1    5    5    0    0  0.99385264193E+02 -0.23201049169E+03  0.25899169870E+03  0.36163932168E+03  0.00000000000E+00 0. -1.
        -13    1    5    5    0    0  0.20057723901E+02 -0.15234324671E+03  0.76280254242E+02  0.17155015095E+03  0.00000000000E+00 0.  1.
          4    1    6    6  503    0 -0.20502526099E+03  0.14211473611E+03  0.27936503800E+02  0.25102271631E+03  0.00000000000E+00 0. -1.
         -4    1    6    6    0  503 -0.12118936025E+03  0.18966954194E+03  0.27712084349E+02  0.22678041317E+03  0.00000000000E+00 0.  1.
<mgrwt>
<rscale>  0 0.13286317E+04</rscale>
<asrwt>0</asrwt>
<pdfrwt beam="1">  1        1 0.20529731E+00 0.13286317E+04</pdfrwt>
<pdfrwt beam="2">  1       -2 0.50879082E-01 0.13286317E+04</pdfrwt>
<totfact> 0.26844706E+01</totfact>
</mgrwt>
</event>
<event>
12    5  0.5029243E-008  0.1426604E+04  0.7818608E-02  0.8934783E-01
          1   -1    0    0  501    0  0.00000000000E+00  0.00000000000E+00  0.64785119841E+03  0.64785119841E+03  0.00000000000E+00 0. -1.
         -2   -1    0    0    0  501 -0.00000000000E+00 -0.00000000000E+00 -0.78536558435E+03  0.78536558435E+03  0.00000000000E+00 0.  1.
        -24    2    1    2    0    0 -0.31573648376E+03  0.25059129969E+03  0.83405232397E+02  0.41848481994E+03  0.75416079649E+02 0.  0.
        254    2    1    2    0    0  0.31573648376E+03 -0.25059129969E+03 -0.22091961834E+03  0.10147319628E+04  0.90464907668E+03 0.  0.
         23    2    4    4    0    0  0.15566587307E+02 -0.37970459147E+03 -0.45703684390E+03  0.60128907014E+03  0.90818355923E+02 0.  0.
         23    2    4    4    0    0  0.30016989645E+03  0.12911329177E+03  0.23611722556E+03  0.41344289268E+03  0.91714079897E+02 0.  0.
          3    1    3    3  502    0 -0.26207900331E+03  0.22645845607E+03  0.93563040123E+02  0.35877970787E+03  0.00000000000E+00 0. -1.
         -4    1    3    3    0  502 -0.53657480442E+02  0.24132843620E+02 -0.10157807727E+02  0.59705112062E+02  0.00000000000E+00 0.  1.
         13    1    5    5    0    0  0.46863479064E+02 -0.15715288679E+03 -0.22311846002E+03  0.27690262313E+03  0.00000000000E+00 0. -1.
        -13    1    5    5    0    0 -0.31296891756E+02 -0.22255170467E+03 -0.23391838388E+03  0.32438644701E+03  0.00000000000E+00 0.  1.
          1    1    6    6  503    0  0.26749829624E+03  0.83123724960E+02  0.17508768681E+03  0.33033405851E+03  0.00000000000E+00 0. -1.
         -1    1    6    6    0  503  0.32671600213E+02  0.45989566815E+02  0.61029538745E+02  0.83108834162E+02  0.00000000000E+00 0.  1.
<mgrwt>
<rscale>  0 0.14266044E+04</rscale>
<asrwt>0</asrwt>
<pdfrwt beam="1">  1        1 0.99669416E-01 0.14266044E+04</pdfrwt>
<pdfrwt beam="2">  1       -2 0.12082547E+00 0.14266044E+04</pdfrwt>
<totfact> 0.13604908E+01</totfact>
</mgrwt>
</event>
<event>
12    5  0.5029243E-008  0.2750270E+04  0.7818608E-02  0.8318876E-01
         -2   -1    0    0    0  501 -0.00000000000E+00  0.00000000000E+00  0.11002832647E+04  0.11002832647E+04  0.00000000000E+00 0.  1.
          1   -1    0    0  501    0  0.00000000000E+00 -0.00000000000E+00 -0.17186455094E+04  0.17186455094E+04  0.00000000000E+00 0. -1.
        -24    2    1    2    0    0  0.21447346940E+03 -0.81852238325E+03 -0.11749093909E+04  0.14501844455E+04  0.81517409756E+02 0.  0.
        254    2    1    2    0    0 -0.21447346940E+03  0.81852238325E+03  0.55654714629E+03  0.13687443286E+04  0.92072718550E+03 0.  0.
         23    2    4    4    0    0  0.31826759471E+03  0.50047538302E+03  0.40415649755E+03  0.72352980083E+03  0.91558873591E+02 0.  0.
         23    2    4    4    0    0 -0.53274106411E+03  0.31804700023E+03  0.15239064875E+03  0.64521452778E+03  0.90066316059E+02 0.  0.
          3    1    3    3  502    0  0.21398681939E+03 -0.80189734268E+03 -0.11281433946E+04  0.14005489016E+04  0.00000000000E+00 0. -1.
         -4    1    3    3    0  502  0.48665001249E+00 -0.16625040566E+02 -0.46765996312E+02  0.49635543848E+02  0.00000000000E+00 0.  1.
         13    1    5    5    0    0  0.26972616671E+03  0.35351993016E+03  0.31483027658E+03  0.54483635073E+03  0.00000000000E+00 0. -1.
        -13    1    5    5    0    0  0.48541428007E+02  0.14695545285E+03  0.89326220969E+02  0.17869345010E+03  0.00000000000E+00 0.  1.
          4    1    6    6  503    0 -0.28562410118E+03  0.12097178830E+03  0.60284848391E+02  0.31598981579E+03  0.00000000000E+00 0.  1.
         -4    1    6    6    0  503 -0.24711696294E+03  0.19707521193E+03  0.92105800354E+02  0.32922471199E+03  0.00000000000E+00 0. -1.
<mgrwt>
<rscale>  0 0.27502705E+04</rscale>
<asrwt>0</asrwt>
<pdfrwt beam="1">  1        1 0.26440700E+00 0.27502705E+04</pdfrwt>
<pdfrwt beam="2">  1       -2 0.16927435E+00 0.27502705E+04</pdfrwt>
<totfact> 0.76257989E-01</totfact>
</mgrwt>
</event>
<event>
12    5  0.5029243E-008  0.2202122E+04  0.7818608E-02  0.8517545E-01
          1   -1    0    0  501    0  0.00000000000E+00  0.00000000000E+00  0.17622887206E+04  0.17622887206E+04  0.00000000000E+00 0. -1.
         -2   -1    0    0    0  501 -0.00000000000E+00 -0.00000000000E+00 -0.68793242244E+03  0.68793242244E+03  0.00000000000E+00 0.  1.
        -24    2    1    2    0    0 -0.53854156397E+03  0.70752213388E+03  0.20668678904E+03  0.91635293020E+03  0.79803996553E+02 0.  0.
        254    2    1    2    0    0  0.53854156397E+03 -0.70752213388E+03  0.86766950917E+03  0.15338682129E+04  0.89960365235E+03 0.  0.
         23    2    4    4    0    0  0.48425526623E+03 -0.69754382365E+03  0.10306793483E+04  0.13385652970E+04  0.91578307990E+02 0.  0.
         23    2    4    4    0    0  0.54286297734E+02 -0.99783102301E+01 -0.16300983910E+03  0.19530291593E+03  0.92327961808E+02 0.  0.
          3    1    3    3  502    0 -0.22600339567E+03  0.35295830041E+03  0.11854508929E+03  0.43555715454E+03  0.00000000000E+00 0. -1.
         -4    1    3    3    0  502 -0.31253816830E+03  0.35456383348E+03  0.88141699750E+02  0.48079577566E+03  0.00000000000E+00 0.  1.
         13    1    5    5    0    0  0.40813123877E+03 -0.62870624946E+03  0.93386351299E+03  0.11974738899E+04  0.00000000000E+00 0.  1.
        -13    1    5    5    0    0  0.76124027460E+02 -0.68837574195E+02  0.96815835280E+02  0.14109140703E+03  0.00000000000E+00 0. -1.
          1    1    6    6  503    0  0.13680154198E+02 -0.46855966246E+02 -0.10312156470E+03  0.11409068891E+03  0.00000000000E+00 0. -1.
         -1    1    6    6    0  503  0.40606143535E+02  0.36877656016E+02 -0.59888274403E+02  0.81212227017E+02  0.00000000000E+00 0.  1.
<mgrwt>
<rscale>  0 0.22021222E+04</rscale>
<asrwt>0</asrwt>
<pdfrwt beam="1">  1        1 0.27112134E+00 0.22021222E+04</pdfrwt>
<pdfrwt beam="2">  1       -2 0.10583576E+00 0.22021222E+04</pdfrwt>
<totfact> 0.24952944E+00</totfact>
</mgrwt>
</event>
<event>
12    5  0.5029243E-008  0.2225703E+04  0.7818608E-02  0.8507805E-01
          1   -1    0    0  501    0  0.00000000000E+00  0.00000000000E+00  0.94665527031E+03  0.94665527031E+03  0.00000000000E+00 0. -1.
         -2   -1    0    0    0  501 -0.00000000000E+00 -0.00000000000E+00 -0.13082257241E+04  0.13082257241E+04  0.00000000000E+00 0.  1.
        -24    2    1    2    0    0  0.47682903625E+03  0.75129372998E+03  0.10039097616E+03  0.89898995138E+03  0.79349770510E+02 0.  0.
        254    2    1    2    0    0 -0.47682903625E+03 -0.75129372998E+03 -0.46196142996E+03  0.13558910430E+04  0.91281102060E+03 0.  0.
         23    2    4    4    0    0  0.68732992722E+01 -0.75100736174E+03 -0.41094905965E+03  0.86103105113E+03  0.91847927209E+02 0.  0.
         23    2    4    4    0    0 -0.48370233552E+03 -0.28636823142E+00 -0.51012370300E+02  0.49485999192E+03  0.91192753460E+02 0.  0.
          1    1    3    3  502    0  0.63557382792E+02  0.13326911405E+03  0.40546981197E+02  0.15311517022E+03  0.00000000000E+00 0. -1.
         -2    1    3    3    0  502  0.41327165346E+03  0.61802461592E+03  0.59843994961E+02  0.74587478116E+03  0.00000000000E+00 0.  1.
         13    1    5    5    0    0  0.18394948874E+02 -0.70065389751E+03 -0.40377337104E+03  0.80888020955E+03  0.00000000000E+00 0. -1.
        -13    1    5    5    0    0 -0.11521649602E+02 -0.50353464236E+02 -0.71756886170E+01  0.52150841578E+02  0.00000000000E+00 0.  1.
          2    1    6    6  503    0 -0.33694072328E+03  0.23809465411E+02 -0.69904052903E+02  0.34493842676E+03  0.00000000000E+00 0. -1.
         -2    1    6    6    0  503 -0.14676161225E+03 -0.24095833642E+02  0.18891682603E+02  0.14992156516E+03  0.00000000000E+00 0.  1.
<mgrwt>
<rscale>  0 0.22257033E+04</rscale>
<asrwt>0</asrwt>
<pdfrwt beam="1">  1        1 0.14563927E+00 0.22257033E+04</pdfrwt>
<pdfrwt beam="2">  1       -2 0.20126550E+00 0.22257033E+04</pdfrwt>
<totfact> 0.17351017E+00</totfact>
</mgrwt>
</event>
<event>
12    5  0.5029243E-008  0.2467052E+04  0.7818608E-02  0.8414818E-01
          1   -1    0    0  501    0  0.00000000000E+00  0.00000000000E+00  0.57586876405E+03  0.57586876405E+03  0.00000000000E+00 0. -1.
         -2   -1    0    0    0  501 -0.00000000000E+00 -0.00000000000E+00 -0.26422443732E+04  0.26422443732E+04  0.00000000000E+00 0.  1.
        -24    2    1    2    0    0 -0.13682854228E+03 -0.47467268845E+03  0.33980096043E+03  0.60578252984E+03  0.86438241590E+02 0.  0.
        254    2    1    2    0    0  0.13682854228E+03  0.47467268845E+03 -0.24061765696E+04  0.26123306074E+04  0.88912839749E+03 0.  0.
         23    2    4    4    0    0  0.36321809130E+03  0.61171335514E+03 -0.19216485768E+04  0.20509023001E+04  0.85711033889E+02 0.  0.
         23    2    4    4    0    0 -0.22638954902E+03 -0.13704066669E+03 -0.48452799281E+03  0.56142830729E+03  0.10199017683E+03 0.  0.
          3    1    3    3  502    0 -0.11124415151E+03 -0.45652838541E+03  0.31371422436E+03  0.56498676312E+03  0.00000000000E+00 0. -1.
         -4    1    3    3    0  502 -0.25584390771E+02 -0.18144303040E+02  0.26086736074E+02  0.40795766728E+02  0.00000000000E+00 0.  1.
         13    1    5    5    0    0  0.20024527119E+03  0.28866935980E+03 -0.10468283694E+04  0.11042091301E+04  0.00000000000E+00 0. -1.
        -13    1    5    5    0    0  0.16297282011E+03  0.32304399534E+03 -0.87482020734E+03  0.94669317004E+03  0.00000000000E+00 0.  1.
          1    1    6    6  503    0 -0.96876558213E+02 -0.40398437085E+02 -0.10285959062E+03  0.14695984700E+03  0.00000000000E+00 0. -1.
         -1    1    6    6    0  503 -0.12951299081E+03 -0.96642229604E+02 -0.38166840220E+03  0.41446846028E+03  0.00000000000E+00 0.  1.
<mgrwt>
<rscale>  0 0.24670517E+04</rscale>
<asrwt>0</asrwt>
<pdfrwt beam="1">  1        1 0.88595196E-01 0.24670517E+04</pdfrwt>
<pdfrwt beam="2">  1       -2 0.40649913E+00 0.24670517E+04</pdfrwt>
<totfact> 0.19095051E-01</totfact>
</mgrwt>
</event>
<event>
12    5  0.5029243E-008  0.1259750E+04  0.7818608E-02  0.9062107E-01
         -2   -1    0    0    0  501 -0.00000000000E+00  0.00000000000E+00  0.15486424831E+03  0.15486424831E+03  0.00000000000E+00 0.  1.
          1   -1    0    0  501    0  0.00000000000E+00 -0.00000000000E+00 -0.25618738504E+04  0.25618738504E+04  0.00000000000E+00 0. -1.
        -24    2    1    2    0    0 -0.22804803078E+03  0.23062620566E+02 -0.18219264083E+03  0.30368223398E+03  0.80566444983E+02 0.  0.
        254    2    1    2    0    0  0.22804803078E+03 -0.23062620566E+02 -0.22248169613E+04  0.24130558647E+04  0.90580919977E+03 0.  0.
         23    2    4    4    0    0 -0.17335744546E+03  0.29188145292E+03 -0.49462237219E+03  0.60686664849E+03  0.91587398278E+02 0.  0.
         23    2    4    4    0    0  0.40140547623E+03 -0.31494407349E+03 -0.17301945891E+04  0.18061892162E+04  0.91815265819E+02 0.  0.
          3    1    3    3  502    0 -0.22148916073E+02  0.29503096254E+02 -0.25153569243E+02  0.44650971069E+02  0.00000000000E+00 0. -1.
         -2    1    3    3    0  502 -0.20589911470E+03 -0.64404756878E+01 -0.15703907158E+03  0.25903126291E+03  0.00000000000E+00 0.  1.
         13    1    5    5    0    0 -0.73910934492E+02  0.48446851570E+02 -0.11407972663E+03  0.14430560520E+03  0.00000000000E+00 0. -1.
        -13    1    5    5    0    0 -0.99446510965E+02  0.24343460135E+03 -0.38054264556E+03  0.46256104329E+03  0.00000000000E+00 0.  1.
          3    1    6    6  503    0  0.44376872741E+02 -0.43074469606E+02 -0.12524038031E+03  0.13967773490E+03  0.00000000000E+00 0. -1.
         -3    1    6    6    0  503  0.35702860349E+03 -0.27186960388E+03 -0.16049542088E+04  0.16665114813E+04  0.00000000000E+00 0.  1.
<mgrwt>
<rscale>  0 0.12597502E+04</rscale>
<asrwt>0</asrwt>
<pdfrwt beam="1">  1        1 0.39413442E+00 0.12597502E+04</pdfrwt>
<pdfrwt beam="2">  1       -2 0.23825270E-01 0.12597502E+04</pdfrwt>
<totfact> 0.16711116E+01</totfact>
</mgrwt>
</event>
<event>
12    5  0.5029243E-008  0.2315332E+04  0.7818608E-02  0.8471900E-01
         -2   -1    0    0    0  501 -0.00000000000E+00  0.00000000000E+00  0.11082131260E+04  0.11082131260E+04  0.00000000000E+00 0.  1.
          1   -1    0    0  501    0  0.00000000000E+00 -0.00000000000E+00 -0.12093257102E+04  0.12093257102E+04  0.00000000000E+00 0. -1.
        -24    2    1    2    0    0  0.26319717832E+03  0.71448319700E+03 -0.66283834326E+03  0.10128474444E+04  0.82135759022E+02 0.  0.
        254    2    1    2    0    0 -0.26319717832E+03 -0.71448319700E+03  0.56172575904E+03  0.13046913918E+04  0.89828993426E+03 0.  0.
         23    2    4    4    0    0 -0.14119023904E+03  0.10770281803E+03 -0.11434690335E+03  0.22990745601E+03  0.90816537104E+02 0.  0.
         23    2    4    4    0    0 -0.12200693928E+03 -0.82218601502E+03  0.67607266239E+03  0.10747839358E+04  0.84916001206E+02 0.  0.
          1    1    3    3  502    0  0.23662905257E+03  0.65159733620E+03 -0.63144463845E+03  0.93770716563E+03  0.00000000000E+00 0. -1.
         -2    1    3    3    0  502  0.26568125755E+02  0.62885860798E+02 -0.31393704816E+02  0.75140278789E+02  0.00000000000E+00 0.  1.
         13    1    5    5    0    0  0.11214189993E+02  0.20732244257E+02 -0.18496641314E+02  0.29961804836E+02  0.00000000000E+00 0.  1.
        -13    1    5    5    0    0 -0.15240442903E+03  0.86970573770E+02 -0.95850262037E+02  0.19994565117E+03  0.00000000000E+00 0. -1.
          1    1    6    6  503    0  0.40871045148E+01 -0.22904436227E+03  0.18080056308E+03  0.29183363056E+03  0.00000000000E+00 0. -1.
         -1    1    6    6    0  503 -0.12609404380E+03 -0.59314165275E+03  0.49527209930E+03  0.78295030523E+03  0.00000000000E+00 0.  1.
<mgrwt>
<rscale>  0 0.23153321E+04</rscale>
<asrwt>0</asrwt>
<pdfrwt beam="1">  1        1 0.18605011E+00 0.23153321E+04</pdfrwt>
<pdfrwt beam="2">  1       -2 0.17049433E+00 0.23153321E+04</pdfrwt>
<totfact> 0.17612876E+00</totfact>
</mgrwt>
</event>
<event>
12    5  0.5029243E-008  0.1553151E+04  0.7818608E-02  0.8849857E-01
          1   -1    0    0  501    0  0.00000000000E+00  0.00000000000E+00  0.10430800694E+04  0.10430800694E+04  0.00000000000E+00 0. -1.
         -2   -1    0    0    0  501 -0.00000000000E+00 -0.00000000000E+00 -0.57816241551E+03  0.57816241551E+03  0.00000000000E+00 0.  1.
        -24    2    1    2    0    0 -0.26550351855E+03  0.41613442988E+03  0.20336735650E+03  0.53695674819E+03  0.57482916163E+02 0.  0.
        254    2    1    2    0    0  0.26550351855E+03 -0.41613442988E+03  0.26155029743E+03  0.10842857368E+04  0.92930458879E+03 0.  0.
         23    2    4    4    0    0 -0.95840698647E+02 -0.37423184094E+01  0.47235315389E+03  0.49008720377E+03  0.88704683328E+02 0.  0.
         23    2    4    4    0    0  0.36134421720E+03 -0.41239211147E+03 -0.21080285646E+03  0.59419853298E+03  0.89426815939E+02 0.  0.
          3    1    3    3  502    0 -0.23683498962E+03  0.33453610500E+03  0.15790920137E+03  0.43924996726E+03  0.00000000000E+00 0. -1.
         -4    1    3    3    0  502 -0.28668528931E+02  0.81598324874E+02  0.45458155130E+02  0.97706780937E+02  0.00000000000E+00 0.  1.
         13    1    5    5    0    0  0.95881769096E+01 -0.79845067662E+01  0.10418735077E+02  0.16255322985E+02  0.00000000000E+00 0. -1.
        -13    1    5    5    0    0 -0.10542887556E+03  0.42421883567E+01  0.46193441881E+03  0.47383188078E+03  0.00000000000E+00 0.  1.
          4    1    6    6  503    0  0.97642837206E+00 -0.40542107034E+01  0.65903119825E+01  0.77988620208E+01  0.00000000000E+00 0. -1.
         -4    1    6    6    0  503  0.36036778883E+03 -0.40833790076E+03 -0.21739316844E+03  0.58639967096E+03  0.00000000000E+00 0.  1.
<mgrwt>
<rscale>  0 0.15531512E+04</rscale>
<asrwt>0</asrwt>
<pdfrwt beam="1">  1        1 0.16047386E+00 0.15531512E+04</pdfrwt>
<pdfrwt beam="2">  1       -2 0.88948064E-01 0.15531512E+04</pdfrwt>
<totfact> 0.12847450E+01</totfact>
</mgrwt>
</event>
<event>
12    5  0.5029243E-008  0.2843273E+04  0.7818608E-02  0.8289958E-01
         -2   -1    0    0    0  501 -0.00000000000E+00  0.00000000000E+00  0.81117654763E+03  0.81117654763E+03  0.00000000000E+00 0.  1.
          1   -1    0    0  501    0  0.00000000000E+00 -0.00000000000E+00 -0.24915046841E+04  0.24915046841E+04  0.00000000000E+00 0. -1.
        -24    2    1    2    0    0  0.86654595641E+03 -0.15246093645E+03  0.31501004092E+03  0.93812009729E+03  0.81803174504E+02 0.  0.
        254    2    1    2    0    0 -0.86654595641E+03  0.15246093645E+03 -0.19953381773E+04  0.23645611344E+04  0.91412728032E+03 0.  0.
         23    2    4    4    0    0  0.17270232519E+03 -0.27248495007E+02 -0.45097782606E+03  0.49231232774E+03  0.91770664390E+02 0.  0.
         23    2    4    4    0    0 -0.10392482816E+04  0.17970943146E+03 -0.15443603513E+04  0.18722488067E+04  0.89074288388E+02 0.  0.
          1    1    3    3  502    0  0.14114888914E+03  0.51133937427E+01  0.55408999455E+02  0.15172116834E+03  0.00000000000E+00 0. -1.
         -4    1    3    3    0  502  0.72539706727E+03 -0.15757433020E+03  0.25960104146E+03  0.78639892896E+03  0.00000000000E+00 0.  1.
         13    1    5    5    0    0  0.48162221367E+02 -0.33341352287E+02 -0.24177130942E+03  0.24876617816E+03  0.00000000000E+00 0. -1.
        -13    1    5    5    0    0  0.12454010382E+03  0.60928572798E+01 -0.20920651664E+03  0.24354614958E+03  0.00000000000E+00 0.  1.
          3    1    6    6  503    0 -0.97325220109E+02 -0.18805962749E+01 -0.17624841642E+03  0.20134358545E+03  0.00000000000E+00 0. -1.
         -3    1    6    6    0  503 -0.94192306149E+03  0.18159002773E+03 -0.13681119349E+04  0.16709052212E+04  0.00000000000E+00 0.  1.
<mgrwt>
<rscale>  0 0.28432729E+04</rscale>
<asrwt>0</asrwt>
<pdfrwt beam="1">  1        1 0.38330841E+00 0.28432729E+04</pdfrwt>
<pdfrwt beam="2">  1       -2 0.12479639E+00 0.28432729E+04</pdfrwt>
<totfact> 0.50143112E-01</totfact>
</mgrwt>
</event>
<event>
12    5  0.5029243E-008  0.2073076E+04  0.7818608E-02  0.8573197E-01
          1   -1    0    0  501    0  0.00000000000E+00  0.00000000000E+00  0.79650264689E+03  0.79650264689E+03  0.00000000000E+00 0. -1.
         -2   -1    0    0    0  501 -0.00000000000E+00 -0.00000000000E+00 -0.13489104674E+04  0.13489104674E+04  0.00000000000E+00 0.  1.
        -24    2    1    2    0    0  0.63297707436E+01  0.80554049033E+03  0.68949305542E+02  0.81254777023E+03  0.80897000008E+02 0.  0.
        254    2    1    2    0    0 -0.63297707436E+01 -0.80554049033E+03 -0.62135712605E+03  0.13328653441E+04  0.86110963283E+03 0.  0.
         23    2    4    4    0    0 -0.18528324764E+03 -0.29985966215E+03  0.14596763239E+03  0.39217431554E+03  0.90820951456E+02 0.  0.
         23    2    4    4    0    0  0.17895347690E+03 -0.50568082818E+03 -0.76732475844E+03  0.94069102853E+03  0.91514366903E+02 0.  0.
          3    1    3    3  502    0  0.72924534863E+01  0.48395576820E+03  0.80971605644E+02  0.49073696251E+03  0.00000000000E+00 0. -1.
         -4    1    3    3    0  502 -0.96268274274E+00  0.32158472213E+03 -0.12022300103E+02  0.32181080772E+03  0.00000000000E+00 0.  1.
         13    1    5    5    0    0 -0.80343013270E+02 -0.60705799183E+02  0.21966692180E+02  0.10306662603E+03  0.00000000000E+00 0.  1.
        -13    1    5    5    0    0 -0.10494023437E+03 -0.23915386297E+03  0.12400094021E+03  0.28910768951E+03  0.00000000000E+00 0. -1.
          2    1    6    6  503    0  0.17769118725E+03 -0.40235122336E+03 -0.64269522666E+03  0.77879253934E+03  0.00000000000E+00 0. -1.
         -2    1    6    6    0  503  0.12622896459E+01 -0.10332960482E+03 -0.12462953178E+03  0.16189848918E+03  0.00000000000E+00 0.  1.
<mgrwt>
<rscale>  0 0.20730757E+04</rscale>
<asrwt>0</asrwt>
<pdfrwt beam="1">  1        1 0.12253887E+00 0.20730757E+04</pdfrwt>
<pdfrwt beam="2">  1       -2 0.20752469E+00 0.20730757E+04</pdfrwt>
<totfact> 0.21356473E+00</totfact>
</mgrwt>
</event>
<event>
12    5  0.5029243E-008  0.1701509E+04  0.7818608E-02  0.8760504E-01
          1   -1    0    0  501    0  0.00000000000E+00  0.00000000000E+00  0.25527666122E+04  0.25527666122E+04  0.00000000000E+00 0. -1.
         -2   -1    0    0    0  501 -0.00000000000E+00 -0.00000000000E+00 -0.28352900359E+03  0.28352900359E+03  0.00000000000E+00 0.  1.
        -24    2    1    2    0    0 -0.40655724508E+03 -0.43985865529E+03  0.64146367793E+03  0.88150536894E+03  0.82532631143E+02 0.  0.
        254    2    1    2    0    0  0.40655724508E+03  0.43985865529E+03  0.16277739307E+04  0.19547902469E+04  0.90155005939E+03 0.  0.
         23    2    4    4    0    0  0.63902280011E+03  0.10861521432E+03  0.84321928108E+03  0.10674188697E+04  0.90647027603E+02 0.  0.
         23    2    4    4    0    0 -0.23246555503E+03  0.33124344098E+03  0.78455464962E+03  0.88737137714E+03  0.90219239958E+02 0.  0.
          3    1    3    3  502    0 -0.10730861182E+03 -0.94423292038E+02  0.20208863358E+03  0.24752921459E+03  0.00000000000E+00 0. -1.
         -4    1    3    3    0  502 -0.29924863325E+03 -0.34543536326E+03  0.43937504435E+03  0.63397615435E+03  0.00000000000E+00 0.  1.
         13    1    5    5    0    0  0.32078568427E+03  0.16890319806E+02  0.45765360373E+03  0.55913822901E+03  0.00000000000E+00 0.  1.
        -13    1    5    5    0    0  0.31823711584E+03  0.91724894511E+02  0.38556567735E+03  0.50828064071E+03  0.00000000000E+00 0. -1.
          3    1    6    6  503    0 -0.10343693507E+02  0.73938293712E+02  0.13692318911E+03  0.15595455424E+03  0.00000000000E+00 0. -1.
         -3    1    6    6    0  503 -0.22212186152E+03  0.25730514727E+03  0.64763146050E+03  0.73141682289E+03  0.00000000000E+00 0.  1.
<mgrwt>
<rscale>  0 0.17015092E+04</rscale>
<asrwt>0</asrwt>
<pdfrwt beam="1">  1        1 0.39273331E+00 0.17015092E+04</pdfrwt>
<pdfrwt beam="2">  1       -2 0.43619848E-01 0.17015092E+04</pdfrwt>
<totfact> 0.51933976E+00</totfact>
</mgrwt>
</event>
<event>
12    5  0.5029243E-008  0.1847461E+04  0.7818608E-02  0.8681460E-01
         -2   -1    0    0    0  501 -0.00000000000E+00  0.00000000000E+00  0.75344670463E+03  0.75344670463E+03  0.00000000000E+00 0.  1.
          1   -1    0    0  501    0  0.00000000000E+00 -0.00000000000E+00 -0.11324997591E+04  0.11324997591E+04  0.00000000000E+00 0. -1.
        -24    2    1    2    0    0 -0.34590754090E+03  0.59788007836E+03 -0.24258420814E+03  0.73904533186E+03  0.10113500655E+03 0.  0.
        254    2    1    2    0    0  0.34590754090E+03 -0.59788007836E+03 -0.13646884629E+03  0.11469011318E+04  0.90534294345E+03 0.  0.
         23    2    4    4    0    0 -0.79501171510E+02  0.19334237964E+03  0.25774108407E+02  0.22945483282E+03  0.91013755028E+02 0.  0.
         23    2    4    4    0    0  0.42540871241E+03 -0.79122245800E+03 -0.16224295470E+03  0.91744629901E+03  0.91538978467E+02 0.  0.
          1    1    3    3  502    0 -0.17531051548E+03  0.37639166476E+03 -0.18000443835E+03  0.45255503528E+03  0.00000000000E+00 0. -1.
         -2    1    3    3    0  502 -0.17059702542E+03  0.22148841360E+03 -0.62579769792E+02  0.28649029658E+03  0.00000000000E+00 0.  1.
         13    1    5    5    0    0 -0.51678929548E+02  0.19339436039E+03  0.22735763769E+02  0.20146713217E+03  0.00000000000E+00 0.  1.
        -13    1    5    5    0    0 -0.27822241962E+02 -0.51980747850E-01  0.30383446383E+01  0.27987700654E+02  0.00000000000E+00 0. -1.
          4    1    6    6  503    0  0.91991834009E+02 -0.22967950736E+03 -0.14292260479E+02  0.24782946221E+03  0.00000000000E+00 0. -1.
         -4    1    6    6    0  503  0.33341687840E+03 -0.56154295064E+03 -0.14795069422E+03  0.66961683681E+03  0.00000000000E+00 0.  1.
<mgrwt>
<rscale>  0 0.18474612E+04</rscale>
<asrwt>0</asrwt>
<pdfrwt beam="1">  1        1 0.17423073E+00 0.18474612E+04</pdfrwt>
<pdfrwt beam="2">  1       -2 0.11591488E+00 0.18474612E+04</pdfrwt>
<totfact> 0.57135625E+00</totfact>
</mgrwt>
</event>
<event>
12    5  0.5029243E-008  0.1710889E+04  0.7818608E-02  0.8755178E-01
         -4   -1    0    0    0  501 -0.00000000000E+00  0.00000000000E+00  0.35233657295E+03  0.35233657295E+03  0.00000000000E+00 0.  1.
          1   -1    0    0  501    0  0.00000000000E+00 -0.00000000000E+00 -0.20769503146E+04  0.20769503146E+04  0.00000000000E+00 0. -1.
        -24    2    1    2    0    0  0.24659302609E+03  0.51181940005E+03 -0.24949293825E+03  0.62376410252E+03  0.63778605906E+02 0.  0.
        254    2    1    2    0    0 -0.24659302609E+03 -0.51181940005E+03 -0.14751208034E+04  0.18055227851E+04  0.87244708946E+03 0.  0.
         23    2    4    4    0    0 -0.43827862049E+03 -0.50955989371E+03 -0.60012726592E+03  0.90599004359E+03  0.94476395682E+02 0.  0.
         23    2    4    4    0    0  0.19168559440E+03 -0.22595063443E+01 -0.87499353753E+03  0.89953274149E+03  0.82443858662E+02 0.  0.
          3    1    3    3  502    0  0.20162450102E+03  0.38129822107E+03 -0.16438720663E+03  0.46158848177E+03  0.00000000000E+00 0. -1.
         -4    1    3    3    0  502  0.44968525067E+02  0.13052117898E+03 -0.85105731624E+02  0.16217562075E+03  0.00000000000E+00 0.  1.
         13    1    5    5    0    0 -0.33325392473E+03 -0.32062349801E+03 -0.40128699813E+03  0.61228168411E+03  0.00000000000E+00 0. -1.
        -13    1    5    5    0    0 -0.10502469575E+03 -0.18893639570E+03 -0.19884026778E+03  0.29370835948E+03  0.00000000000E+00 0.  1.
          4    1    6    6  503    0  0.27532493178E+02 -0.32272746014E+01 -0.40705534316E+02  0.49248289370E+02  0.00000000000E+00 0.  1.
         -4    1    6    6    0  503  0.16415310122E+03  0.96776825710E+00 -0.83428800321E+03  0.85028445212E+03  0.00000000000E+00 0. -1.
<mgrwt>
<rscale>  0 0.17108893E+04</rscale>
<asrwt>0</asrwt>
<pdfrwt beam="1">  1        1 0.31953082E+00 0.17108893E+04</pdfrwt>
<pdfrwt beam="2">  1       -4 0.54205627E-01 0.17108893E+04</pdfrwt>
<totfact> 0.40441142E+00</totfact>
</mgrwt>
</event>
<event>
12    5  0.5029243E-008  0.1621236E+04  0.7818608E-02  0.8807607E-01
          1   -1    0    0  501    0  0.00000000000E+00  0.00000000000E+00  0.21310245697E+04  0.21310245697E+04  0.00000000000E+00 0. -1.
         -2   -1    0    0    0  501 -0.00000000000E+00 -0.00000000000E+00 -0.30835016247E+03  0.30835016247E+03  0.00000000000E+00 0.  1.
        -24    2    1    2    0    0 -0.27572525781E+03 -0.17418516133E+03  0.13143064742E+04  0.13566606762E+04  0.82230127152E+02 0.  0.
        254    2    1    2    0    0  0.27572525781E+03  0.17418516133E+03  0.50836793296E+03  0.10827140560E+04  0.89859161109E+03 0.  0.
         23    2    4    4    0    0  0.81841408218E+01 -0.34798032881E+03  0.16257203847E+03  0.39520190219E+03  0.92723170779E+02 0.  0.
         23    2    4    4    0    0  0.26754111699E+03  0.52216549014E+03  0.34579589449E+03  0.68751215379E+03  0.94144105444E+02 0.  0.
          3    1    3    3  502    0 -0.25431304389E+03 -0.18075122147E+03  0.11826958136E+04  0.12231580093E+04  0.00000000000E+00 0. -1.
         -4    1    3    3    0  502 -0.21412213927E+02  0.65660601426E+01  0.13161066065E+03  0.13350266682E+03  0.00000000000E+00 0.  1.
         13    1    5    5    0    0  0.18478228958E+02 -0.34586018805E+03  0.14664353001E+03  0.37611838497E+03  0.00000000000E+00 0.  1.
        -13    1    5    5    0    0 -0.10294088136E+02 -0.21201407637E+01  0.15928508462E+02  0.19083517214E+02  0.00000000000E+00 0. -1.
          1    1    6    6  503    0  0.10731659714E+03  0.11914444658E+03  0.86132587921E+02  0.18201943268E+03  0.00000000000E+00 0. -1.
         -1    1    6    6    0  503  0.16022451985E+03  0.40302104356E+03  0.25966330657E+03  0.50549272111E+03  0.00000000000E+00 0.  1.
<mgrwt>
<rscale>  0 0.16212363E+04</rscale>
<asrwt>0</asrwt>
<pdfrwt beam="1">  1        1 0.32784992E+00 0.16212363E+04</pdfrwt>
<pdfrwt beam="2">  1       -2 0.47438488E-01 0.16212363E+04</pdfrwt>
<totfact> 0.86035239E+00</totfact>
</mgrwt>
</event>
<event>
12    5  0.5029243E-008  0.2189691E+04  0.7818608E-02  0.8522731E-01
          1   -1    0    0  501    0  0.00000000000E+00  0.00000000000E+00  0.30374801163E+04  0.30374801163E+04  0.00000000000E+00 0. -1.
         -2   -1    0    0    0  501 -0.00000000000E+00 -0.00000000000E+00 -0.39463181388E+03  0.39463181388E+03  0.00000000000E+00 0.  1.
        -24    2    1    2    0    0 -0.53820794105E+03 -0.58788076875E+03  0.17943298775E+04  0.19650266535E+04  0.80239975906E+02 0.  0.
        254    2    1    2    0    0  0.53820794105E+03  0.58788076875E+03  0.84851842496E+03  0.14670852767E+04  0.89279566839E+03 0.  0.
         23    2    4    4    0    0  0.11464348418E+02  0.52270049862E+03  0.75081106593E+03  0.91979557572E+03  0.94654116927E+02 0.  0.
         23    2    4    4    0    0  0.52674359263E+03  0.65180270129E+02  0.97707359027E+02  0.54728970096E+03  0.90950584284E+02 0.  0.
          3    1    3    3  502    0 -0.49671701443E+03 -0.50596713067E+03  0.15738697566E+04  0.17262087186E+04  0.00000000000E+00 0. -1.
         -4    1    3    3    0  502 -0.41490926620E+02 -0.81913638080E+02  0.22046012095E+03  0.23881793489E+03  0.00000000000E+00 0.  1.
         13    1    5    5    0    0 -0.16082570488E+02  0.48093584292E+03  0.67506510205E+03  0.82901798900E+03  0.00000000000E+00 0.  1.
        -13    1    5    5    0    0  0.27546918906E+02  0.41764655698E+02  0.75745963877E+02  0.90777586719E+02  0.00000000000E+00 0. -1.
          4    1    6    6  503    0  0.44146257781E+02 -0.43662281229E+01  0.33304485839E+02  0.55472018181E+02  0.00000000000E+00 0. -1.
         -4    1    6    6    0  503  0.48259733485E+03  0.69546498252E+02  0.64402873188E+02  0.49181768278E+03  0.00000000000E+00 0.  1.
<mgrwt>
<rscale>  0 0.21896907E+04</rscale>
<asrwt>0</asrwt>
<pdfrwt beam="1">  1        1 0.46730462E+00 0.21896907E+04</pdfrwt>
<pdfrwt beam="2">  1       -2 0.60712589E-01 0.21896907E+04</pdfrwt>
<totfact> 0.11379264E+00</totfact>
</mgrwt>
</event>
<event>
12    5  0.5029243E-008  0.2272704E+04  0.7818608E-02  0.8488762E-01
         -2   -1    0    0    0  501 -0.00000000000E+00  0.00000000000E+00  0.10663619857E+04  0.10663619857E+04  0.00000000000E+00 0.  1.
          1   -1    0    0  501    0  0.00000000000E+00 -0.00000000000E+00 -0.12109362592E+04  0.12109362592E+04  0.00000000000E+00 0. -1.
        -24    2    1    2    0    0 -0.83782890048E+03  0.24578568829E+03  0.33208750632E+03  0.93757266517E+03  0.79953233628E+02 0.  0.
        254    2    1    2    0    0  0.83782890048E+03 -0.24578568829E+03 -0.47666177977E+03  0.13397255798E+04  0.89737968874E+03 0.  0.
         23    2    4    4    0    0  0.84551496666E+03  0.12994105247E+03 -0.38308828872E+03  0.94175845318E+03  0.91499241593E+02 0.  0.
         23    2    4    4    0    0 -0.76860661811E+01 -0.37572674076E+03 -0.93573491050E+02  0.39796712660E+03  0.91608822132E+02 0.  0.
          1    1    3    3  502    0 -0.18060857728E+03  0.87702678469E+02  0.80189980669E+02  0.21619817529E+03  0.00000000000E+00 0. -1.
         -2    1    3    3    0  502 -0.65722032320E+03  0.15808300982E+03  0.25189752565E+03  0.72137448988E+03  0.00000000000E+00 0.  1.
         13    1    5    5    0    0  0.31078555591E+03  0.15779769038E+02 -0.17272202889E+03  0.35590667616E+03  0.00000000000E+00 0.  1.
        -13    1    5    5    0    0  0.53472941076E+03  0.11416128343E+03 -0.21036625983E+03  0.58585177702E+03  0.00000000000E+00 0. -1.
          1    1    6    6  503    0 -0.24375031036E+02 -0.18317275686E+03 -0.87848854081E+02  0.20460650565E+03  0.00000000000E+00 0. -1.
         -1    1    6    6    0  503  0.16688964855E+02 -0.19255398390E+03 -0.57246369698E+01  0.19336062094E+03  0.00000000000E+00 0.  1.
<mgrwt>
<rscale>  0 0.22727045E+04</rscale>
<asrwt>0</asrwt>
<pdfrwt beam="1">  1        1 0.18629789E+00 0.22727045E+04</pdfrwt>
<pdfrwt beam="2">  1       -2 0.16405569E+00 0.22727045E+04</pdfrwt>
<totfact> 0.19613572E+00</totfact>
</mgrwt>
</event>
<event>
12    5  0.5029243E-008  0.1908405E+04  0.7818608E-02  0.8650684E-01
          3   -1    0    0  501    0  0.00000000000E+00  0.00000000000E+00  0.24784257503E+04  0.24784257503E+04  0.00000000000E+00 0. -1.
         -4   -1    0    0    0  501 -0.00000000000E+00 -0.00000000000E+00 -0.36737144955E+03  0.36737144955E+03  0.00000000000E+00 0.  1.
        -24    2    1    2    0    0  0.60715947716E+03 -0.37593478409E+03  0.11055395192E+04  0.13184930879E+04  0.78973424598E+02 0.  0.
        254    2    1    2    0    0 -0.60715947716E+03  0.37593478409E+03  0.10055147816E+04  0.15273041119E+04  0.90090414686E+03 0.  0.
         23    2    4    4    0    0 -0.29699589547E+03 -0.22947501643E+03  0.11525231395E+03  0.40241750497E+03  0.88268948908E+02 0.  0.
         23    2    4    4    0    0 -0.31016358169E+03  0.60540980052E+03  0.89026246761E+03  0.11248866070E+04  0.10039991702E+03 0.  0.
          1    1    3    3  502    0  0.47795457320E+03 -0.31698440184E+03  0.83573616728E+03  0.10135949025E+04  0.00000000000E+00 0. -1.
         -2    1    3    3    0  502  0.12920490396E+03 -0.58950382251E+02  0.26980335187E+03  0.30489818539E+03  0.00000000000E+00 0.  1.
         13    1    5    5    0    0 -0.27086211470E+03 -0.17292898518E+03  0.11096757211E+03  0.33997723623E+03  0.00000000000E+00 0. -1.
        -13    1    5    5    0    0 -0.26133780772E+02 -0.56546031253E+02  0.42847418490E+01  0.62440268742E+02  0.00000000000E+00 0.  1.
          3    1    6    6  503    0 -0.40497936084E+02  0.79398909827E+02  0.67528946903E+02  0.11182320143E+03  0.00000000000E+00 0.  1.
         -3    1    6    6    0  503 -0.26966564560E+03  0.52601089069E+03  0.82273352071E+03  0.10130634055E+04  0.00000000000E+00 0. -1.
<mgrwt>
<rscale>  0 0.19084055E+04</rscale>
<asrwt>0</asrwt>
<pdfrwt beam="1">  1        3 0.38129626E+00 0.19084055E+04</pdfrwt>
<pdfrwt beam="2">  1       -4 0.56518686E-01 0.19084055E+04</pdfrwt>
<totfact> 0.89856042E-02</totfact>
</mgrwt>
</event>
<event>
12    5  0.5029243E-008  0.2323538E+04  0.7818608E-02  0.8468698E-01
         -2   -1    0    0    0  501 -0.00000000000E+00  0.00000000000E+00  0.62118455384E+03  0.62118455384E+03  0.00000000000E+00 0.  1.
          1   -1    0    0  501    0  0.00000000000E+00 -0.00000000000E+00 -0.21727960154E+04  0.21727960154E+04  0.00000000000E+00 0. -1.
        -24    2    1    2    0    0  0.42581502199E+03 -0.87759157696E+03 -0.89798213697E+03  0.13281127194E+04  0.77627754326E+02 0.  0.
        254    2    1    2    0    0 -0.42581502199E+03  0.87759157696E+03 -0.65362932463E+03  0.14658678499E+04  0.87752598274E+03 0.  0.
         23    2    4    4    0    0 -0.17649734639E+03  0.35276805015E+03  0.18193505224E+03  0.44398879254E+03  0.91809989537E+02 0.  0.
         23    2    4    4    0    0 -0.24931767559E+03  0.52482352681E+03 -0.83556437687E+03  0.10218790573E+04  0.92032289274E+02 0.  0.
          1    1    3    3  502    0  0.39406603119E+03 -0.76411806736E+03 -0.80813021897E+03  0.11799317390E+04  0.00000000000E+00 0. -1.
         -2    1    3    3    0  502  0.31748990794E+02 -0.11347350960E+03 -0.89851918002E+02  0.14818098044E+03  0.00000000000E+00 0.  1.
         13    1    5    5    0    0 -0.17152618582E+03  0.35633364161E+03  0.16976209981E+03  0.43036503936E+03  0.00000000000E+00 0.  1.
        -13    1    5    5    0    0 -0.49711605742E+01 -0.35655914676E+01  0.12172952428E+02  0.13623753183E+02  0.00000000000E+00 0. -1.
          1    1    6    6  503    0 -0.24347915159E+02  0.97720709472E+01 -0.37115185280E+02  0.45451637171E+02  0.00000000000E+00 0. -1.
         -1    1    6    6    0  503 -0.22496976043E+03  0.51505145586E+03 -0.79844919159E+03  0.97642742017E+03  0.00000000000E+00 0.  1.
<mgrwt>
<rscale>  0 0.23235381E+04</rscale>
<asrwt>0</asrwt>
<pdfrwt beam="1">  1        1 0.33427631E+00 0.23235381E+04</pdfrwt>
<pdfrwt beam="2">  1       -2 0.95566855E-01 0.23235381E+04</pdfrwt>
<totfact> 0.16562302E+00</totfact>
</mgrwt>
</event>
<event>
12    5  0.5029243E-008  0.2971167E+04  0.7818608E-02  0.8252013E-01
          1   -1    0    0  501    0  0.00000000000E+00  0.00000000000E+00  0.17692510349E+04  0.17692510349E+04  0.00000000000E+00 0. -1.
         -2   -1    0    0    0  501 -0.00000000000E+00 -0.00000000000E+00 -0.12473969259E+04  0.12473969259E+04  0.00000000000E+00 0.  1.
        -24    2    1    2    0    0 -0.75787096950E+03 -0.83990679819E+03 -0.50673365116E+03  0.12421526565E+04  0.79701900280E+02 0.  0.
        254    2    1    2    0    0  0.75787096950E+03  0.83990679819E+03  0.10285877601E+04  0.17744953043E+04  0.90057146777E+03 0.  0.
         23    2    4    4    0    0  0.58685637203E+03  0.64622732452E+03  0.19849281250E+03  0.90011815541E+03  0.93825053920E+02 0.  0.
         23    2    4    4    0    0  0.17101459746E+03  0.19367947367E+03  0.83009494764E+03  0.87437714887E+03  0.93381182813E+02 0.  0.
          1    1    3    3  502    0 -0.75028895945E+02 -0.51753321973E+02 -0.35628805642E+02  0.97862931457E+02  0.00000000000E+00 0. -1.
         -2    1    3    3    0  502 -0.68284207355E+03 -0.78815347621E+03 -0.47110484552E+03  0.11442897251E+04  0.00000000000E+00 0.  1.
         13    1    5    5    0    0  0.61321226210E+02  0.68631263112E+02  0.51630247416E+02  0.10552831615E+03  0.00000000000E+00 0. -1.
        -13    1    5    5    0    0  0.52553514582E+03  0.57759606141E+03  0.14686256509E+03  0.79458983927E+03  0.00000000000E+00 0.  1.
          3    1    6    6  503    0  0.33477425963E+02  0.34899430560E+02  0.30520523715E+03  0.30901285586E+03  0.00000000000E+00 0. -1.
         -3    1    6    6    0  503  0.13753717150E+03  0.15878004311E+03  0.52488971049E+03  0.56536429301E+03  0.00000000000E+00 0.  1.
<mgrwt>
<rscale>  0 0.29711670E+04</rscale>
<asrwt>0</asrwt>
<pdfrwt beam="1">  1        1 0.27219247E+00 0.29711670E+04</pdfrwt>
<pdfrwt beam="2">  1       -2 0.19190722E+00 0.29711670E+04</pdfrwt>
<totfact> 0.48241618E-01</totfact>
</mgrwt>
</event>
<event>
12    5  0.5029243E-008  0.1778071E+04  0.7818608E-02  0.8718049E-01
         -2   -1    0    0    0  501 -0.00000000000E+00  0.00000000000E+00  0.70547294491E+03  0.70547294491E+03  0.00000000000E+00 0.  1.
          1   -1    0    0  501    0  0.00000000000E+00 -0.00000000000E+00 -0.11203608737E+04  0.11203608737E+04  0.00000000000E+00 0. -1.
        -24    2    1    2    0    0  0.54684846297E+03  0.40124481675E+03 -0.20469249465E+03  0.71306103165E+03  0.80724055109E+02 0.  0.
        254    2    1    2    0    0 -0.54684846297E+03 -0.40124481675E+03 -0.21019543413E+03  0.11127727869E+04  0.85676164154E+03 0.  0.
         23    2    4    4    0    0 -0.35446283512E+03  0.22524260516E+03 -0.68728519910E+02  0.43608561871E+03  0.95230902225E+02 0.  0.
         23    2    4    4    0    0 -0.19238562785E+03 -0.62648742191E+03 -0.14146691422E+03  0.67668716824E+03  0.91618318154E+02 0.  0.
          3    1    3    3  502    0  0.11050915807E+03  0.49931039235E+02 -0.55381777807E+02  0.13331363024E+03  0.00000000000E+00 0. -1.
         -4    1    3    3    0  502  0.43633930490E+03  0.35131377752E+03 -0.14931071684E+03  0.57974740141E+03  0.00000000000E+00 0.  1.
         13    1    5    5    0    0 -0.33427329779E+03  0.23367859539E+03 -0.71352576138E+02  0.41404771909E+03  0.00000000000E+00 0.  1.
        -13    1    5    5    0    0 -0.20189537327E+02 -0.84359902335E+01  0.26240562276E+01  0.22037899623E+02  0.00000000000E+00 0. -1.
          4    1    6    6  503    0 -0.43739897219E+01  0.15758809256E+01  0.27642377771E+01  0.54088998204E+01  0.00000000000E+00 0. -1.
         -4    1    6    6    0  503 -0.18801163813E+03 -0.62806330283E+03 -0.14423115200E+03  0.67127826841E+03  0.00000000000E+00 0.  1.
<mgrwt>
<rscale>  0 0.17780712E+04</rscale>
<asrwt>0</asrwt>
<pdfrwt beam="1">  1        1 0.17236321E+00 0.17780712E+04</pdfrwt>
<pdfrwt beam="2">  1       -2 0.10853430E+00 0.17780712E+04</pdfrwt>
<totfact> 0.68871138E+00</totfact>
</mgrwt>
</event>
<event>
12    5  0.5029243E-008  0.1112535E+04  0.7818608E-02  0.9193060E-01
          1   -1    0    0  501    0  0.00000000000E+00  0.00000000000E+00  0.94290295931E+03  0.94290295931E+03  0.00000000000E+00 0. -1.
         -2   -1    0    0    0  501 -0.00000000000E+00 -0.00000000000E+00 -0.32817094411E+03  0.32817094411E+03  0.00000000000E+00 0.  1.
        -24    2    1    2    0    0 -0.58795616225E+01 -0.16322784115E+02 -0.92129392456E+02  0.12313936484E+03  0.79840313702E+02 0.  0.
        254    2    1    2    0    0  0.58795616225E+01  0.16322784115E+02  0.70686140765E+03  0.11479345386E+04  0.90432275915E+03 0.  0.
         23    2    4    4    0    0 -0.34825780428E+03  0.11770119145E+03  0.40358486621E+02  0.38089847106E+03  0.91201804286E+02 0.  0.
         23    2    4    4    0    0  0.35413736590E+03 -0.10137840734E+03  0.66650292103E+03  0.76703606752E+03  0.91800488726E+02 0.  0.
          3    1    3    3  502    0 -0.35779008487E+02 -0.31879808658E+02 -0.51429983758E+02  0.70295824042E+02  0.00000000000E+00 0. -1.
         -4    1    3    3    0  502  0.29899446865E+02  0.15557024543E+02 -0.40699408698E+02  0.52843540796E+02  0.00000000000E+00 0.  1.
         13    1    5    5    0    0 -0.98935067802E+02  0.59656502847E+02 -0.21565555329E+02  0.11752497245E+03  0.00000000000E+00 0.  1.
        -13    1    5    5    0    0 -0.24932273648E+03  0.58044688604E+02  0.61924041950E+02  0.26337349861E+03  0.00000000000E+00 0. -1.
          4    1    6    6  503    0  0.25423436499E+03 -0.11330179731E+03  0.50923740749E+03  0.58034054382E+03  0.00000000000E+00 0. -1.
         -4    1    6    6    0  503  0.99903000915E+02  0.11923389971E+02  0.15726551354E+03  0.18669552370E+03  0.00000000000E+00 0.  1.
<mgrwt>
<rscale>  0 0.11125347E+04</rscale>
<asrwt>0</asrwt>
<pdfrwt beam="1">  1        1 0.14506199E+00 0.11125347E+04</pdfrwt>
<pdfrwt beam="2">  1       -2 0.50487838E-01 0.11125347E+04</pdfrwt>
<totfact> 0.54368939E+01</totfact>
</mgrwt>
</event>
<event>
12    5  0.5029243E-008  0.2016479E+04  0.7818608E-02  0.8598955E-01
          1   -1    0    0  501    0  0.00000000000E+00  0.00000000000E+00  0.35750445900E+04  0.35750445900E+04  0.00000000000E+00 0. -1.
         -2   -1    0    0    0  501 -0.00000000000E+00 -0.00000000000E+00 -0.28434529480E+03  0.28434529480E+03  0.00000000000E+00 0.  1.
        -24    2    1    2    0    0 -0.56589721988E+02  0.33434787292E+03  0.27141507901E+04  0.27364266869E+04  0.80159867521E+02 0.  0.
        254    2    1    2    0    0  0.56589721988E+02 -0.33434787292E+03  0.57654850509E+03  0.11229631979E+04  0.90202398439E+03 0.  0.
         23    2    4    4    0    0 -0.17503285420E+01  0.25188039972E+03 -0.34147900647E+02  0.26940936562E+03  0.89266610504E+02 0.  0.
         23    2    4    4    0    0  0.58340050530E+02 -0.58622827264E+03  0.61069640573E+03  0.85355383231E+03  0.92395322058E+02 0.  0.
          3    1    3    3  502    0 -0.44410109402E+02  0.33110950406E+03  0.25495612543E+04  0.25713553529E+04  0.00000000000E+00 0. -1.
         -4    1    3    3    0  502 -0.12179612586E+02  0.32383688536E+01  0.16458953582E+03  0.16507133397E+03  0.00000000000E+00 0.  1.
         13    1    5    5    0    0 -0.35526319239E+01  0.19552665465E+03  0.12888391013E+02  0.19598317401E+03  0.00000000000E+00 0. -1.
        -13    1    5    5    0    0  0.18023033818E+01  0.56353745072E+02 -0.47036291660E+02  0.73426191610E+02  0.00000000000E+00 0.  1.
          2    1    6    6  503    0  0.76839065766E+01 -0.76178730290E+02  0.39681182054E+02  0.86237100938E+02  0.00000000000E+00 0. -1.
         -2    1    6    6    0  503  0.50656143953E+02 -0.51004954235E+03  0.57101522368E+03  0.76731673137E+03  0.00000000000E+00 0.  1.
<mgrwt>
<rscale>  0 0.20164792E+04</rscale>
<asrwt>0</asrwt>
<pdfrwt beam="1">  1        1 0.55000683E+00 0.20164792E+04</pdfrwt>
<pdfrwt beam="2">  1       -2 0.43745433E-01 0.20164792E+04</pdfrwt>
<totfact> 0.88272643E-01</totfact>
</mgrwt>
</event>
<event>
12    5  0.5029243E-008  0.1721446E+04  0.7818608E-02  0.8749227E-01
          1   -1    0    0  501    0  0.00000000000E+00  0.00000000000E+00  0.22439175734E+04  0.22439175734E+04  0.00000000000E+00 0. -1.
         -2   -1    0    0    0  501 -0.00000000000E+00 -0.00000000000E+00 -0.33015638205E+03  0.33015638205E+03  0.00000000000E+00 0.  1.
        -24    2    1    2    0    0  0.21933604102E+03 -0.39724784612E+03  0.12595814237E+04  0.13411610729E+04  0.79079139586E+02 0.  0.
        254    2    1    2    0    0 -0.21933604102E+03  0.39724784612E+03  0.65417976769E+03  0.12329128826E+04  0.94138666739E+03 0.  0.
         23    2    4    4    0    0 -0.30368858372E+02 -0.27114526370E+03  0.38951983147E+03  0.48382177943E+03  0.88970745513E+02 0.  0.
         23    2    4    4    0    0 -0.18896718264E+03  0.66839310982E+03  0.26465993622E+03  0.74909110319E+03  0.92922837200E+02 0.  0.
          3    1    3    3  502    0  0.17460431931E+03 -0.32449959809E+03  0.11012598181E+04  0.11612750942E+04  0.00000000000E+00 0. -1.
         -4    1    3    3    0  502  0.44731721707E+02 -0.72748248022E+02  0.15832160563E+03  0.17988597868E+03  0.00000000000E+00 0.  1.
         13    1    5    5    0    0 -0.44550655955E+02 -0.10057367352E+03  0.10673152108E+03  0.15326918263E+03  0.00000000000E+00 0.  1.
        -13    1    5    5    0    0  0.14181797583E+02 -0.17057159017E+03  0.28278831039E+03  0.33055259680E+03  0.00000000000E+00 0. -1.
          3    1    6    6  503    0 -0.44203235789E+02  0.89180052612E+02  0.10058733261E+02  0.10004092139E+03  0.00000000000E+00 0. -1.
         -3    1    6    6    0  503 -0.14476394685E+03  0.57921305720E+03  0.25460120296E+03  0.64905018180E+03  0.00000000000E+00 0.  1.
<mgrwt>
<rscale>  0 0.17214456E+04</rscale>
<asrwt>0</asrwt>
<pdfrwt beam="1">  1        1 0.34521808E+00 0.17214456E+04</pdfrwt>
<pdfrwt beam="2">  1       -2 0.50793291E-01 0.17214456E+04</pdfrwt>
<totfact> 0.62186703E+00</totfact>
</mgrwt>
</event>
<event>
12    5  0.5029243E-008  0.2191910E+04  0.7818608E-02  0.8521803E-01
          1   -1    0    0  501    0  0.00000000000E+00  0.00000000000E+00  0.27208832947E+04  0.27208832947E+04  0.00000000000E+00 0. -1.
         -2   -1    0    0    0  501 -0.00000000000E+00 -0.00000000000E+00 -0.44144401114E+03  0.44144401114E+03  0.00000000000E+00 0.  1.
        -24    2    1    2    0    0 -0.59643197877E+03 -0.53358543645E+03  0.15655502589E+04  0.17600524217E+04  0.79952427600E+02 0.  0.
        254    2    1    2    0    0  0.59643197877E+03  0.53358543645E+03  0.71388902467E+03  0.14022748842E+04  0.90348922956E+03 0.  0.
         23    2    4    4    0    0  0.47066667807E+03  0.77843326788E+03  0.57816494103E+03  0.10817074013E+04  0.91272825308E+02 0.  0.
         23    2    4    4    0    0  0.12576530070E+03 -0.24484783143E+03  0.13572408364E+03  0.32056748285E+03  0.92601904759E+02 0.  0.
          3    1    3    3  502    0 -0.45392799555E+03 -0.35929850415E+03  0.11087828363E+04  0.12508178997E+04  0.00000000000E+00 0. -1.
         -4    1    3    3    0  502 -0.14250398321E+03 -0.17428693230E+03  0.45676742262E+03  0.50923452197E+03  0.00000000000E+00 0.  1.
         13    1    5    5    0    0  0.10996207839E+03  0.21044520100E+03  0.10787291420E+03  0.26079763597E+03  0.00000000000E+00 0. -1.
        -13    1    5    5    0    0  0.36070459968E+03  0.56798806688E+03  0.47029202683E+03  0.82090976535E+03  0.00000000000E+00 0.  1.
          4    1    6    6  503    0  0.37302871235E+02 -0.87864760484E+01  0.18281762993E+02  0.42460914049E+02  0.00000000000E+00 0. -1.
         -4    1    6    6    0  503  0.88462429462E+02 -0.23606135538E+03  0.11744232065E+03  0.27810656880E+03  0.00000000000E+00 0.  1.
<mgrwt>
<rscale>  0 0.21919102E+04</rscale>
<asrwt>0</asrwt>
<pdfrwt beam="1">  1        1 0.41859742E+00 0.21919102E+04</pdfrwt>
<pdfrwt beam="2">  1       -2 0.67914465E-01 0.21919102E+04</pdfrwt>
<totfact> 0.15106672E+00</totfact>
</mgrwt>
</event>
<event>
12    5  0.5029243E-008  0.2601653E+04  0.7818608E-02  0.8367640E-01
         -2   -1    0    0    0  501 -0.00000000000E+00  0.00000000000E+00  0.12784957698E+04  0.12784957698E+04  0.00000000000E+00 0.  1.
          1   -1    0    0  501    0  0.00000000000E+00 -0.00000000000E+00 -0.13235476316E+04  0.13235476316E+04  0.00000000000E+00 0. -1.
        -24    2    1    2    0    0 -0.77598049613E+02  0.54019615642E+03 -0.10207252677E+04  0.11602617828E+04  0.80585281874E+02 0.  0.
        254    2    1    2    0    0  0.77598049613E+02 -0.54019615642E+03  0.97567340602E+03  0.14417816186E+04  0.91047366568E+03 0.  0.
         23    2    4    4    0    0  0.10788140547E+03 -0.25218029413E+03 -0.11420433710E+03  0.31074643707E+03  0.91035263210E+02 0.  0.
         23    2    4    4    0    0 -0.30283355859E+02 -0.28801586229E+03  0.10898777431E+04  0.11310351816E+04  0.86815139242E+02 0.  0.
          1    1    3    3  502    0 -0.27725671867E+02  0.29170978044E+03 -0.62584196257E+03  0.69104375476E+03  0.00000000000E+00 0. -1.
         -2    1    3    3    0  502 -0.49872377747E+02  0.24848637598E+03 -0.39488330516E+03  0.46921802800E+03  0.00000000000E+00 0.  1.
         13    1    5    5    0    0  0.11551371260E+03 -0.20763360131E+03 -0.11819004266E+03  0.26537523693E+03  0.00000000000E+00 0.  1.
        -13    1    5    5    0    0 -0.76323071314E+01 -0.44546692823E+02  0.39857055644E+01  0.45371200143E+02  0.00000000000E+00 0. -1.
          4    1    6    6  503    0 -0.20149000087E+02 -0.91421289359E+02  0.21871502472E+03  0.23790774764E+03  0.00000000000E+00 0. -1.
         -4    1    6    6    0  503 -0.10134355772E+02 -0.19659457293E+03  0.87116271840E+03  0.89312743391E+03  0.00000000000E+00 0.  1.
<mgrwt>
<rscale>  0 0.26016534E+04</rscale>
<asrwt>0</asrwt>
<pdfrwt beam="1">  1        1 0.20362271E+00 0.26016534E+04</pdfrwt>
<pdfrwt beam="2">  1       -2 0.19669166E+00 0.26016534E+04</pdfrwt>
<totfact> 0.94075322E-01</totfact>
</mgrwt>
</event>
<event>
12    5  0.5029243E-008  0.1265007E+04  0.7818608E-02  0.9057785E-01
          1   -1    0    0  501    0  0.00000000000E+00  0.00000000000E+00  0.25414738980E+04  0.25414738980E+04  0.00000000000E+00 0. -1.
         -2   -1    0    0    0  501 -0.00000000000E+00 -0.00000000000E+00 -0.15741289510E+03  0.15741289510E+03  0.00000000000E+00 0.  1.
        -24    2    1    2    0    0 -0.22479086657E+03 -0.87839731811E+02  0.19808354140E+03  0.32257233660E+03  0.81049804366E+02 0.  0.
        254    2    1    2    0    0  0.22479086657E+03  0.87839731811E+02  0.21859774615E+04  0.23763144565E+04  0.90007009831E+03 0.  0.
         23    2    4    4    0    0 -0.16850392204E+03 -0.20519846171E+03  0.24508535360E+03  0.37242710564E+03  0.90195000071E+02 0.  0.
         23    2    4    4    0    0  0.39329478861E+03  0.29303819352E+03  0.19408921079E+04  0.20038873509E+04  0.89163708163E+02 0.  0.
          3    1    3    3  502    0  0.66711509188E+00 -0.13327329359E+02 -0.42031213994E-02  0.13344016189E+02  0.00000000000E+00 0. -1.
         -4    1    3    3    0  502 -0.22545798166E+03 -0.74512402452E+02  0.19808774452E+03  0.30922832041E+03  0.00000000000E+00 0.  1.
         13    1    5    5    0    0 -0.16541350142E+03 -0.14768241526E+03  0.20719852359E+03  0.30348467903E+03  0.00000000000E+00 0. -1.
        -13    1    5    5    0    0 -0.30904206199E+01 -0.57516046448E+02  0.37886830003E+02  0.68942426606E+02  0.00000000000E+00 0.  1.
          3    1    6    6  503    0  0.36208627662E+03  0.23751688274E+03  0.16302179592E+04  0.16867517114E+04  0.00000000000E+00 0. -1.
         -3    1    6    6    0  503  0.31208511992E+02  0.55521310773E+02  0.31067414873E+03  0.31713563953E+03  0.00000000000E+00 0.  1.
<mgrwt>
<rscale>  0 0.12650071E+04</rscale>
<asrwt>0</asrwt>
<pdfrwt beam="1">  1        1 0.39099596E+00 0.12650071E+04</pdfrwt>
<pdfrwt beam="2">  1       -2 0.24217370E-01 0.12650071E+04</pdfrwt>
<totfact> 0.16754494E+01</totfact>
</mgrwt>
</event>
<event>
12    5  0.5029243E-008  0.2303987E+04  0.7818608E-02  0.8476351E-01
         -2   -1    0    0    0  501 -0.00000000000E+00  0.00000000000E+00  0.47382337478E+03  0.47382337478E+03  0.00000000000E+00 0.  1.
          1   -1    0    0  501    0  0.00000000000E+00 -0.00000000000E+00 -0.28008100047E+04  0.28008100047E+04  0.00000000000E+00 0. -1.
        -24    2    1    2    0    0 -0.87562213359E+03 -0.38385137839E+02 -0.38354164965E+03  0.96005053744E+03  0.80033104316E+02 0.  0.
        254    2    1    2    0    0  0.87562213359E+03  0.38385137839E+02 -0.19434449803E+04  0.23145828421E+04  0.90118133672E+03 0.  0.
         23    2    4    4    0    0  0.66745247334E+03 -0.37621676318E+03 -0.13480549807E+04  0.15538270406E+04  0.10047081135E+03 0.  0.
         23    2    4    4    0    0  0.20816966025E+03  0.41460190102E+03 -0.59538999963E+03  0.76075580152E+03  0.95030490418E+02 0.  0.
          1    1    3    3  502    0 -0.80787305783E+03 -0.41437477596E+02 -0.37523097890E+03  0.89172542279E+03  0.00000000000E+00 0. -1.
         -2    1    3    3    0  502 -0.67749075756E+02  0.30523397564E+01 -0.83106707472E+01  0.68325114651E+02  0.00000000000E+00 0.  1.
         13    1    5    5    0    0  0.47681526342E+03 -0.22126236642E+03 -0.96164883795E+03  0.10959371870E+04  0.00000000000E+00 0. -1.
        -13    1    5    5    0    0  0.19063720993E+03 -0.15495439676E+03 -0.38640614273E+03  0.45788985360E+03  0.00000000000E+00 0.  1.
          3    1    6    6  503    0  0.13575502578E+03  0.34244251277E+03 -0.49908641765E+03  0.62030924051E+03  0.00000000000E+00 0. -1.
         -3    1    6    6    0  503  0.72414634467E+02  0.72159388249E+02 -0.96303581975E+02  0.14044656101E+03  0.00000000000E+00 0.  1.
<mgrwt>
<rscale>  0 0.23039872E+04</rscale>
<asrwt>0</asrwt>
<pdfrwt beam="1">  1        1 0.43089385E+00 0.23039872E+04</pdfrwt>
<pdfrwt beam="2">  1       -2 0.72895904E-01 0.23039872E+04</pdfrwt>
<totfact> 0.11243338E+00</totfact>
</mgrwt>
</event>
<event>
12    5  0.5029243E-008  0.4168459E+04  0.7818608E-02  0.7971399E-01
          1   -1    0    0  501    0  0.00000000000E+00  0.00000000000E+00  0.13294053386E+04  0.13294053386E+04  0.00000000000E+00 0. -1.
         -2   -1    0    0    0  501 -0.00000000000E+00 -0.00000000000E+00 -0.32676364760E+04  0.32676364760E+04  0.00000000000E+00 0.  1.
        -24    2    1    2    0    0  0.19770633518E+03 -0.10728383822E+04 -0.27508047502E+04  0.29603124121E+04  0.80329411500E+02 0.  0.
        254    2    1    2    0    0 -0.19770633518E+03  0.10728383822E+04  0.81257361274E+03  0.16367294025E+04  0.91024022733E+03 0.  0.
         23    2    4    4    0    0  0.23707282317E+03  0.27692361844E+02  0.29004940135E+03  0.38651156713E+03  0.91061220699E+02 0.  0.
         23    2    4    4    0    0 -0.43477915835E+03  0.10451460204E+04  0.52252421140E+03  0.12502178354E+04  0.93005181882E+02 0.  0.
          1    1    3    3  502    0  0.12444382742E+03 -0.46307887966E+03 -0.12344739567E+04  0.13243316295E+04  0.00000000000E+00 0. -1.
         -2    1    3    3    0  502  0.73262507760E+02 -0.60975950258E+03 -0.15163307935E+04  0.16359807827E+04  0.00000000000E+00 0.  1.
         13    1    5    5    0    0  0.21769755554E+03  0.35338743109E+02  0.21268381835E+03  0.30639102311E+03  0.00000000000E+00 0. -1.
        -13    1    5    5    0    0  0.19375267622E+02 -0.76463812647E+01  0.77365582992E+02  0.80120544017E+02  0.00000000000E+00 0.  1.
          2    1    6    6  503    0 -0.28665629901E+03  0.57604044559E+03  0.31310274778E+03  0.71556115000E+03  0.00000000000E+00 0. -1.
         -2    1    6    6    0  503 -0.14812285934E+03  0.46910557480E+03  0.20942146361E+03  0.53465668535E+03  0.00000000000E+00 0.  1.
<mgrwt>
<rscale>  0 0.41684594E+04</rscale>
<asrwt>0</asrwt>
<pdfrwt beam="1">  1        1 0.20452390E+00 0.41684594E+04</pdfrwt>
<pdfrwt beam="2">  1       -2 0.50271331E+00 0.41684594E+04</pdfrwt>
<totfact> 0.92870116E-03</totfact>
</mgrwt>
</event>
<event>
12    5  0.5029243E-008  0.2490383E+04  0.7818608E-02  0.8406420E-01
         -2   -1    0    0    0  501 -0.00000000000E+00  0.00000000000E+00  0.53727190854E+03  0.53727190854E+03  0.00000000000E+00 0.  1.
          1   -1    0    0  501    0  0.00000000000E+00 -0.00000000000E+00 -0.28858784563E+04  0.28858784563E+04  0.00000000000E+00 0. -1.
        -24    2    1    2    0    0  0.16195675137E+03  0.89507612615E+03 -0.16439601478E+04  0.18809067290E+04  0.88396237153E+02 0.  0.
        254    2    1    2    0    0 -0.16195675137E+03 -0.89507612615E+03 -0.70464640003E+03  0.15422436359E+04  0.10269360362E+04 0.  0.
         23    2    4    4    0    0  0.35319575884E+03 -0.44299430899E+03 -0.62146325380E+03  0.84592650607E+03  0.91563507962E+02 0.  0.
         23    2    4    4    0    0 -0.51515251021E+03 -0.45208181716E+03 -0.83183146226E+02  0.69631712983E+03  0.90432468124E+02 0.  0.
          3    1    3    3  502    0  0.77859446706E+02  0.51817524551E+03 -0.10293948072E+04  0.11550849958E+04  0.00000000000E+00 0. -1.
         -4    1    3    3    0  502  0.84097304665E+02  0.37690088064E+03 -0.61456534053E+03  0.72582173312E+03  0.00000000000E+00 0.  1.
         13    1    5    5    0    0  0.30947296411E+03 -0.35339490631E+03 -0.54978757054E+03  0.72313750286E+03  0.00000000000E+00 0. -1.
        -13    1    5    5    0    0  0.43722794728E+02 -0.89599402672E+02 -0.71675683263E+02  0.12278900321E+03  0.00000000000E+00 0.  1.
          1    1    6    6  503    0 -0.51698801159E+03 -0.44677567321E+03 -0.87982132124E+02  0.68893102839E+03  0.00000000000E+00 0. -1.
         -1    1    6    6    0  503  0.18355013735E+01 -0.53061439495E+01  0.47989858977E+01  0.73861014447E+01  0.00000000000E+00 0.  1.
<mgrwt>
<rscale>  0 0.24903826E+04</rscale>
<asrwt>0</asrwt>
<pdfrwt beam="1">  1        1 0.44398130E+00 0.24903826E+04</pdfrwt>
<pdfrwt beam="2">  1       -2 0.82657216E-01 0.24903826E+04</pdfrwt>
<totfact> 0.72590931E-01</totfact>
</mgrwt>
</event>
<event>
12    5  0.5029243E-008  0.1070814E+04  0.7818608E-02  0.9234115E-01
         -4   -1    0    0    0  501 -0.00000000000E+00  0.00000000000E+00  0.19964322317E+03  0.19964322317E+03  0.00000000000E+00 0.  1.
          3   -1    0    0  501    0  0.00000000000E+00 -0.00000000000E+00 -0.14358634245E+04  0.14358634245E+04  0.00000000000E+00 0. -1.
        -24    2    1    2    0    0 -0.29735647136E+02  0.12170715067E+03 -0.24341982549E+03  0.28518467286E+03  0.79876448048E+02 0.  0.
        254    2    1    2    0    0  0.29735647136E+02 -0.12170715067E+03 -0.99280037584E+03  0.13503219748E+04  0.90665319178E+03 0.  0.
         23    2    4    4    0    0  0.18260949297E+03 -0.23226811791E+03 -0.10803252762E+04  0.11235911978E+04  0.89776231621E+02 0.  0.
         23    2    4    4    0    0 -0.15287384583E+03  0.11056096724E+03  0.87524900378E+02  0.22673077704E+03  0.90288963088E+02 0.  0.
          3    1    3    3  502    0 -0.12168115735E+02  0.12460715620E+03 -0.17962986583E+03  0.21895637720E+03  0.00000000000E+00 0. -1.
         -4    1    3    3    0  502 -0.17567531401E+02 -0.29000055333E+01 -0.63789959663E+02  0.66228295655E+02  0.00000000000E+00 0.  1.
         13    1    5    5    0    0  0.16926939089E+03 -0.22727467389E+03 -0.92052639454E+03  0.96315873413E+03  0.00000000000E+00 0. -1.
        -13    1    5    5    0    0  0.13340102084E+02 -0.49934440225E+01 -0.15979888167E+03  0.16043246364E+03  0.00000000000E+00 0.  1.
          4    1    6    6  503    0 -0.13951204402E+03  0.68824652467E+02  0.37106736243E+02  0.15992921274E+03  0.00000000000E+00 0. -1.
         -4    1    6    6    0  503 -0.13361801816E+02  0.41736314770E+02  0.50418164136E+02  0.66801564302E+02  0.00000000000E+00 0.  1.
<mgrwt>
<rscale>  0 0.10708135E+04</rscale>
<asrwt>0</asrwt>
<pdfrwt beam="1">  1        3 0.22090206E+00 0.10708135E+04</pdfrwt>
<pdfrwt beam="2">  1       -4 0.30714343E-01 0.10708135E+04</pdfrwt>
<totfact> 0.25734378E+00</totfact>
</mgrwt>
</event>
<event>
12    5  0.5029243E-008  0.1659632E+04  0.7818608E-02  0.8784729E-01
         -2   -1    0    0    0  501 -0.00000000000E+00  0.00000000000E+00  0.72227972724E+03  0.72227972724E+03  0.00000000000E+00 0.  1.
          1   -1    0    0  501    0  0.00000000000E+00 -0.00000000000E+00 -0.95336240344E+03  0.95336240344E+03  0.00000000000E+00 0. -1.
        -24    2    1    2    0    0 -0.43284860537E+03 -0.14763145305E+03 -0.44396376762E+03  0.64330036238E+03  0.87054972138E+02 0.  0.
        254    2    1    2    0    0  0.43284860537E+03  0.14763145305E+03  0.21288109142E+03  0.10323417683E+04  0.90069873231E+03 0.  0.
         23    2    4    4    0    0  0.58751670894E+03  0.16683418683E+03  0.42776494937E+03  0.75131192335E+03  0.92071847426E+02 0.  0.
         23    2    4    4    0    0 -0.15466810356E+03 -0.19202733783E+02 -0.21488385795E+03  0.28102984495E+03  0.92259059710E+02 0.  0.
          3    1    3    3  502    0 -0.33520034540E+03 -0.15115411381E+03 -0.34454745589E+03  0.50390454159E+03  0.00000000000E+00 0. -1.
         -4    1    3    3    0  502 -0.97648259978E+02  0.35226607582E+01 -0.99416311731E+02  0.13939582079E+03  0.00000000000E+00 0.  1.
         13    1    5    5    0    0  0.21519676030E+03  0.10117926450E+03  0.13765009502E+03  0.27476251175E+03  0.00000000000E+00 0. -1.
        -13    1    5    5    0    0  0.37231994864E+03  0.65654922336E+02  0.29011485435E+03  0.47654941160E+03  0.00000000000E+00 0.  1.
          4    1    6    6  503    0 -0.51138779616E+02  0.14935822643E+02 -0.18459264344E+02  0.56382603867E+02  0.00000000000E+00 0. -1.
         -4    1    6    6    0  503 -0.10352932395E+03 -0.34138556426E+02 -0.19642459360E+03  0.22464724108E+03  0.00000000000E+00 0.  1.
<mgrwt>
<rscale>  0 0.16596317E+04</rscale>
<asrwt>0</asrwt>
<pdfrwt beam="1">  1        1 0.14667114E+00 0.16596317E+04</pdfrwt>
<pdfrwt beam="2">  1       -2 0.11111996E+00 0.16596317E+04</pdfrwt>
<totfact> 0.88374630E+00</totfact>
</mgrwt>
</event>
<event>
12    5  0.5029243E-008  0.1514697E+04  0.7818608E-02  0.8874738E-01
         -2   -1    0    0    0  501 -0.00000000000E+00  0.00000000000E+00  0.86449748893E+03  0.86449748893E+03  0.00000000000E+00 0.  1.
          1   -1    0    0  501    0  0.00000000000E+00 -0.00000000000E+00 -0.66347992318E+03  0.66347992318E+03  0.00000000000E+00 0. -1.
        -24    2    1    2    0    0  0.20027754195E+03 -0.20759425712E+03  0.38103132017E+03  0.48319990954E+03  0.71349956089E+02 0.  0.
        254    2    1    2    0    0 -0.20027754195E+03  0.20759425712E+03 -0.18001375442E+03  0.10447775026E+04  0.98790111281E+03 0.  0.
         23    2    4    4    0    0 -0.58561918296E+03  0.50326727561E+02 -0.17003901137E+03  0.61843318663E+03  0.89798296095E+02 0.  0.
         23    2    4    4    0    0  0.38534164101E+03  0.15726752956E+03 -0.99747430535E+01  0.42634431594E+03  0.91916941204E+02 0.  0.
          1    1    3    3  502    0  0.44555777603E+02 -0.29955028436E+02  0.11812065288E+03  0.12974979647E+03  0.00000000000E+00 0. -1.
         -2    1    3    3    0  502  0.15572176435E+03 -0.17763922869E+03  0.26291066729E+03  0.35345011308E+03  0.00000000000E+00 0.  1.
         13    1    5    5    0    0 -0.14545973807E+03 -0.44321032915E+01 -0.64335521705E+01  0.14566938433E+03  0.00000000000E+00 0.  1.
        -13    1    5    5    0    0 -0.44015944489E+03  0.54758830852E+02 -0.16360545920E+03  0.47276380230E+03  0.00000000000E+00 0. -1.
          3    1    6    6  503    0  0.38579019818E+03  0.14224198722E+03 -0.89001559161E+01  0.41127371994E+03  0.00000000000E+00 0. -1.
         -3    1    6    6    0  503 -0.44855716832E+00  0.15025542336E+02 -0.10745871373E+01  0.15070595992E+02  0.00000000000E+00 0.  1.
<mgrwt>
<rscale>  0 0.15146970E+04</rscale>
<asrwt>0</asrwt>
<pdfrwt beam="1">  1        1 0.10207384E+00 0.15146970E+04</pdfrwt>
<pdfrwt beam="2">  1       -2 0.13299961E+00 0.15146970E+04</pdfrwt>
<totfact> 0.10235804E+01</totfact>
</mgrwt>
</event>
<event>
12    5  0.5029243E-008  0.2130873E+04  0.7818608E-02  0.8547764E-01
          1   -1    0    0  501    0  0.00000000000E+00  0.00000000000E+00  0.93973002290E+03  0.93973002290E+03  0.00000000000E+00 0. -1.
         -2   -1    0    0    0  501 -0.00000000000E+00 -0.00000000000E+00 -0.12079581580E+04  0.12079581580E+04  0.00000000000E+00 0.  1.
        -24    2    1    2    0    0  0.74857739578E+03 -0.34034416787E+03  0.23321835582E+03  0.85854085177E+03  0.80618376307E+02 0.  0.
        254    2    1    2    0    0 -0.74857739578E+03  0.34034416787E+03 -0.50144649091E+03  0.12891473291E+04  0.85688387944E+03 0.  0.
         23    2    4    4    0    0 -0.70889943430E+03  0.52803522439E+03 -0.58026735128E+03  0.10618339431E+04  0.97064502178E+02 0.  0.
         23    2    4    4    0    0 -0.39677961482E+02 -0.18769105653E+03  0.78820860365E+02  0.22731338603E+03  0.93039637319E+02 0.  0.
          3    1    3    3  502    0  0.68343837895E+03 -0.32728409166E+03  0.23052496695E+03  0.79205091684E+03  0.00000000000E+00 0. -1.
         -4    1    3    3    0  502  0.65139016829E+02 -0.13060076210E+02  0.26933888641E+01  0.66489934934E+02  0.00000000000E+00 0.  1.
         13    1    5    5    0    0 -0.57498008596E+02  0.72107196202E+02 -0.39905036884E+02  0.10048821177E+03  0.00000000000E+00 0. -1.
        -13    1    5    5    0    0 -0.65140142570E+03  0.45592802819E+03 -0.54036231439E+03  0.96134573131E+03  0.00000000000E+00 0.  1.
          4    1    6    6  503    0 -0.13578555050E+02 -0.17345759418E-01 -0.11138769659E+02  0.17562734629E+02  0.00000000000E+00 0. -1.
         -4    1    6    6    0  503 -0.26099406432E+02 -0.18767371077E+03  0.89959630024E+02  0.20975065140E+03  0.00000000000E+00 0.  1.
<mgrwt>
<rscale>  0 0.21308726E+04</rscale>
<asrwt>0</asrwt>
<pdfrwt beam="1">  1        1 0.14457385E+00 0.21308726E+04</pdfrwt>
<pdfrwt beam="2">  1       -2 0.18583972E+00 0.21308726E+04</pdfrwt>
<totfact> 0.22454474E+00</totfact>
</mgrwt>
</event>
<event>
12    5  0.5029243E-008  0.1518035E+04  0.7818608E-02  0.8872548E-01
         -2   -1    0    0    0  501 -0.00000000000E+00  0.00000000000E+00  0.11410104431E+04  0.11410104431E+04  0.00000000000E+00 0.  1.
          1   -1    0    0  501    0  0.00000000000E+00 -0.00000000000E+00 -0.50491010536E+03  0.50491010536E+03  0.00000000000E+00 0. -1.
        -24    2    1    2    0    0  0.26772850090E+03 -0.70133734074E+02 -0.23393941265E+03  0.37100189546E+03  0.79482493653E+02 0.  0.
        254    2    1    2    0    0 -0.26772850090E+03  0.70133734074E+02  0.87003975042E+03  0.12749186530E+04  0.88986016526E+03 0.  0.
         23    2    4    4    0    0 -0.41197592887E+03 -0.25757979821E+03  0.25188436181E+03  0.55493030693E+03  0.91817184747E+02 0.  0.
         23    2    4    4    0    0  0.14424742797E+03  0.32771353228E+03  0.61815538861E+03  0.71998834611E+03  0.89797852704E+02 0.  0.
          3    1    3    3  502    0  0.11119482516E+03 -0.62310947570E+02 -0.13494859083E+03  0.18562883800E+03  0.00000000000E+00 0. -1.
         -4    1    3    3    0  502  0.15653367574E+03 -0.78227865040E+01 -0.98990821818E+02  0.18537305746E+03  0.00000000000E+00 0.  1.
         13    1    5    5    0    0 -0.65795392498E+02 -0.70051081023E+02  0.81190983012E+02  0.12581002881E+03  0.00000000000E+00 0. -1.
        -13    1    5    5    0    0 -0.34618053637E+03 -0.18752871718E+03  0.17069337880E+03  0.42912027812E+03  0.00000000000E+00 0.  1.
          3    1    6    6  503    0  0.24151090853E+02  0.49048116828E+02  0.42480923763E+02  0.69235986578E+02  0.00000000000E+00 0. -1.
         -3    1    6    6    0  503  0.12009633712E+03  0.27866541545E+03  0.57567446485E+03  0.65075235953E+03  0.00000000000E+00 0.  1.
<mgrwt>
<rscale>  0 0.15180352E+04</rscale>
<asrwt>0</asrwt>
<pdfrwt beam="1">  1        1 0.77678478E-01 0.15180352E+04</pdfrwt>
<pdfrwt beam="2">  1       -2 0.17554007E+00 0.15180352E+04</pdfrwt>
<totfact> 0.71881856E+00</totfact>
</mgrwt>
</event>
<event>
12    5  0.5029243E-008  0.2088538E+04  0.7818608E-02  0.8566309E-01
          1   -1    0    0  501    0  0.00000000000E+00  0.00000000000E+00  0.12619649083E+04  0.12619649083E+04  0.00000000000E+00 0. -1.
         -4   -1    0    0    0  501 -0.00000000000E+00 -0.00000000000E+00 -0.86412706039E+03  0.86412706039E+03  0.00000000000E+00 0.  1.
        -24    2    1    2    0    0  0.20064050199E+03 -0.38897309799E+02 -0.67663829880E+03  0.71233344876E+03  0.88373882347E+02 0.  0.
        254    2    1    2    0    0 -0.20064050199E+03  0.38897309799E+02  0.10744761467E+04  0.14137585200E+04  0.89579269427E+03 0.  0.
         23    2    4    4    0    0 -0.16653236389E+03 -0.37489996004E+03  0.25662577785E+03  0.49210033100E+03  0.89570852661E+02 0.  0.
         23    2    4    4    0    0 -0.34108138100E+02  0.41379726984E+03  0.81785036888E+03  0.92165818896E+03  0.90460188937E+02 0.  0.
          3    1    3    3  502    0  0.12991257775E+02  0.55191190209E+01 -0.16433177341E+03  0.16493685217E+03  0.00000000000E+00 0. -1.
         -4    1    3    3    0  502  0.18764924422E+03 -0.44416428820E+02 -0.51230652539E+03  0.54739659659E+03  0.00000000000E+00 0.  1.
         13    1    5    5    0    0 -0.12570995243E+03 -0.17674016252E+03  0.11876993481E+03  0.24727792987E+03  0.00000000000E+00 0. -1.
        -13    1    5    5    0    0 -0.40822411462E+02 -0.19815979752E+03  0.13785584304E+03  0.24482240112E+03  0.00000000000E+00 0.  1.
          2    1    6    6  503    0 -0.17414261448E+02  0.40590409881E+03  0.77620651977E+03  0.87610384959E+03  0.00000000000E+00 0. -1.
         -2    1    6    6    0  503 -0.16693876651E+02  0.78931710334E+01  0.41643849114E+02  0.45554339372E+02  0.00000000000E+00 0.  1.
<mgrwt>
<rscale>  0 0.20885383E+04</rscale>
<asrwt>0</asrwt>
<pdfrwt beam="1">  1        1 0.19414845E+00 0.20885383E+04</pdfrwt>
<pdfrwt beam="2">  1       -4 0.13294262E+00 0.20885383E+04</pdfrwt>
<totfact> 0.17642681E+00</totfact>
</mgrwt>
</event>
<event>
12    5  0.5029243E-008  0.1769634E+04  0.7818608E-02  0.8722616E-01
          3   -1    0    0  501    0  0.00000000000E+00  0.00000000000E+00  0.10455199735E+04  0.10455199735E+04  0.00000000000E+00 0. -1.
         -4   -1    0    0    0  501 -0.00000000000E+00 -0.00000000000E+00 -0.74881534438E+03  0.74881534438E+03  0.00000000000E+00 0.  1.
        -24    2    1    2    0    0 -0.37664790969E+03 -0.52420740003E+03  0.19099484737E+03  0.67767060395E+03  0.78111264309E+02 0.  0.
        254    2    1    2    0    0  0.37664790969E+03  0.52420740003E+03  0.10570978172E+03  0.11166647139E+04  0.90504611993E+03 0.  0.
         23    2    4    4    0    0  0.66398174350E+03  0.40267765504E+03  0.11696124822E+03  0.79051297007E+03  0.90607795991E+02 0.  0.
         23    2    4    4    0    0 -0.28733383381E+03  0.12152974499E+03 -0.11251466502E+02  0.32615174383E+03  0.94435975869E+02 0.  0.
          1    1    3    3  502    0 -0.29290203198E+03 -0.45375660120E+03  0.17029272389E+03  0.56629167862E+03  0.00000000000E+00 0. -1.
         -2    1    3    3    0  502 -0.83745877715E+02 -0.70450798833E+02  0.20702123487E+02  0.11137892533E+03  0.00000000000E+00 0.  1.
         13    1    5    5    0    0  0.48630949025E+03  0.25928191113E+03  0.54475471487E+02  0.55379744197E+03  0.00000000000E+00 0.  1.
        -13    1    5    5    0    0  0.17767225325E+03  0.14339574391E+03  0.62485776733E+02  0.23671552810E+03  0.00000000000E+00 0. -1.
          4    1    6    6  503    0 -0.28738951690E+03  0.10108202590E+03 -0.16321570649E+02  0.30508474896E+03  0.00000000000E+00 0. -1.
         -4    1    6    6    0  503  0.55683091043E-01  0.20447719091E+02  0.50701041472E+01  0.21066994866E+02  0.00000000000E+00 0.  1.
<mgrwt>
<rscale>  0 0.17696343E+04</rscale>
<asrwt>0</asrwt>
<pdfrwt beam="1">  1        3 0.16084923E+00 0.17696343E+04</pdfrwt>
<pdfrwt beam="2">  1       -4 0.11520236E+00 0.17696343E+04</pdfrwt>
<totfact> 0.34193832E-01</totfact>
</mgrwt>
</event>
<event>
12    5  0.5029243E-008  0.1538288E+04  0.7818608E-02  0.8859384E-01
         -2   -1    0    0    0  501 -0.00000000000E+00  0.00000000000E+00  0.52663315505E+03  0.52663315505E+03  0.00000000000E+00 0.  1.
          1   -1    0    0  501    0  0.00000000000E+00 -0.00000000000E+00 -0.11233293130E+04  0.11233293130E+04  0.00000000000E+00 0. -1.
        -24    2    1    2    0    0 -0.39199461391E+03 -0.27681934463E+03 -0.23733016609E+03  0.54126908897E+03  0.79736390960E+02 0.  0.
        254    2    1    2    0    0  0.39199461391E+03  0.27681934463E+03 -0.35936599190E+03  0.11086933791E+04  0.93261372811E+03 0.  0.
         23    2    4    4    0    0 -0.10494261647E+03  0.42247331706E+03 -0.37577662923E+03  0.58270828881E+03  0.94043704686E+02 0.  0.
         23    2    4    4    0    0  0.49693723038E+03 -0.14565397243E+03  0.16410637339E+02  0.52598509030E+03  0.90715575165E+02 0.  0.
          3    1    3    3  502    0 -0.32009112050E+03 -0.18542665388E+03 -0.18798367463E+03  0.41494485334E+03  0.00000000000E+00 0. -1.
         -4    1    3    3    0  502 -0.71903493413E+02 -0.91392690743E+02 -0.49346491464E+02  0.12632423562E+03  0.00000000000E+00 0.  1.
         13    1    5    5    0    0 -0.65206115538E+02  0.25012851739E+03 -0.28190568299E+03  0.38247474010E+03  0.00000000000E+00 0.  1.
        -13    1    5    5    0    0 -0.39736500932E+02  0.17234479967E+03 -0.93870946249E+02  0.20023354871E+03  0.00000000000E+00 0. -1.
          2    1    6    6  503    0  0.47355079605E+03 -0.14010793307E+03  0.35750794736E+02  0.49513504084E+03  0.00000000000E+00 0.  1.
         -2    1    6    6    0  503  0.23386434334E+02 -0.55460393575E+01 -0.19340157396E+02  0.30850049457E+02  0.00000000000E+00 0. -1.
<mgrwt>
<rscale>  0 0.15382880E+04</rscale>
<asrwt>0</asrwt>
<pdfrwt beam="1">  1        1 0.17281989E+00 0.15382880E+04</pdfrwt>
<pdfrwt beam="2">  1       -2 0.81020487E-01 0.15382880E+04</pdfrwt>
<totfact> 0.13834237E+01</totfact>
</mgrwt>
</event>
<event>
12    5  0.5029243E-008  0.1398494E+04  0.7818608E-02  0.8954909E-01
         -2   -1    0    0    0  501 -0.00000000000E+00  0.00000000000E+00  0.46616451115E+03  0.46616451115E+03  0.00000000000E+00 0.  1.
          1   -1    0    0  501    0  0.00000000000E+00 -0.00000000000E+00 -0.10488714424E+04  0.10488714424E+04  0.00000000000E+00 0. -1.
        -24    2    1    2    0    0  0.39620618534E+03  0.19473141310E+03 -0.29764163579E+03  0.53837049548E+03  0.79703089598E+02 0.  0.
        254    2    1    2    0    0 -0.39620618534E+03 -0.19473141310E+03 -0.28506529546E+03  0.97666545807E+03  0.82323358153E+03 0.  0.
         23    2    4    4    0    0 -0.18744614161E+03 -0.43509934187E+03  0.74227602817E+02  0.48808404128E+03  0.90932947989E+02 0.  0.
         23    2    4    4    0    0 -0.20876004372E+03  0.24036792877E+03 -0.35929289827E+03  0.48858141678E+03  0.90900588769E+02 0.  0.
          1    1    3    3  502    0  0.14621848406E+03  0.96723917972E+02 -0.15658209866E+03  0.23506023698E+03  0.00000000000E+00 0. -1.
         -4    1    3    3    0  502  0.24998770128E+03  0.98007495129E+02 -0.14105953714E+03  0.30331025850E+03  0.00000000000E+00 0.  1.
         13    1    5    5    0    0 -0.31353813698E+02 -0.18327197742E+02 -0.27942435833E+01  0.36424656590E+02  0.00000000000E+00 0. -1.
        -13    1    5    5    0    0 -0.15609232792E+03 -0.41677214413E+03  0.77021846400E+02  0.45165938469E+03  0.00000000000E+00 0.  1.
          3    1    6    6  503    0 -0.17261738965E+02 -0.16455376371E+01 -0.44435794714E+02  0.47699216745E+02  0.00000000000E+00 0. -1.
         -3    1    6    6    0  503 -0.19149830476E+03  0.24201346641E+03 -0.31485710356E+03  0.44088220004E+03  0.00000000000E+00 0.  1.
<mgrwt>
<rscale>  0 0.13984944E+04</rscale>
<asrwt>0</asrwt>
<pdfrwt beam="1">  1        1 0.16136483E+00 0.13984944E+04</pdfrwt>
<pdfrwt beam="2">  1       -2 0.71717619E-01 0.13984944E+04</pdfrwt>
<totfact> 0.20900239E+01</totfact>
</mgrwt>
</event>
<event>
12    5  0.5029243E-008  0.1847097E+04  0.7818608E-02  0.8681647E-01
         -2   -1    0    0    0  501 -0.00000000000E+00  0.00000000000E+00  0.49366326425E+03  0.49366326425E+03  0.00000000000E+00 0.  1.
          1   -1    0    0  501    0  0.00000000000E+00 -0.00000000000E+00 -0.17277806166E+04  0.17277806166E+04  0.00000000000E+00 0. -1.
        -24    2    1    2    0    0  0.38619876891E+03  0.12705753857E+03  0.21374461478E+03  0.46738601735E+03  0.86428129971E+02 0.  0.
        254    2    1    2    0    0 -0.38619876891E+03 -0.12705753857E+03 -0.14478619671E+04  0.17540578635E+04  0.90284085275E+03 0.  0.
         23    2    4    4    0    0 -0.59163942160E+03  0.23500722920E+02 -0.13303643813E+04  0.14589237650E+04  0.89440907580E+02 0.  0.
         23    2    4    4    0    0  0.20544065269E+03 -0.15055826149E+03 -0.11749758587E+03  0.29513409850E+03  0.91786717625E+02 0.  0.
          1    1    3    3  502    0  0.20113638576E+02  0.80461848238E+01 -0.80576042948E+01  0.23113297773E+02  0.00000000000E+00 0. -1.
         -2    1    3    3    0  502  0.36608513034E+03  0.11901135375E+03  0.22180221908E+03  0.44427271958E+03  0.00000000000E+00 0.  1.
         13    1    5    5    0    0 -0.42665313288E+03  0.35369091422E+02 -0.86744688735E+03  0.96734066946E+03  0.00000000000E+00 0. -1.
        -13    1    5    5    0    0 -0.16498628872E+03 -0.11868368503E+02 -0.46291749391E+03  0.49158309553E+03  0.00000000000E+00 0.  1.
          2    1    6    6  503    0  0.97631466931E+02 -0.12542470636E+03 -0.56143488082E+02  0.16856853667E+03  0.00000000000E+00 0.  1.
         -2    1    6    6    0  503  0.10780918576E+03 -0.25133555136E+02 -0.61354097783E+02  0.12656556184E+03  0.00000000000E+00 0. -1.
<mgrwt>
<rscale>  0 0.18470970E+04</rscale>
<asrwt>0</asrwt>
<pdfrwt beam="1">  1        1 0.26581240E+00 0.18470970E+04</pdfrwt>
<pdfrwt beam="2">  1       -2 0.75948194E-01 0.18470970E+04</pdfrwt>
<totfact> 0.58449939E+00</totfact>
</mgrwt>
</event>
<event>
12    5  0.5029243E-008  0.2006231E+04  0.7818608E-02  0.8603713E-01
         -2   -1    0    0    0  501 -0.00000000000E+00  0.00000000000E+00  0.19991619917E+04  0.19991619917E+04  0.00000000000E+00 0.  1.
          1   -1    0    0  501    0  0.00000000000E+00 -0.00000000000E+00 -0.50333109979E+03  0.50333109979E+03  0.00000000000E+00 0. -1.
        -24    2    1    2    0    0 -0.19659461165E+03  0.31999773228E+03  0.14655915944E+04  0.15150700982E+04  0.80191588643E+02 0.  0.
        254    2    1    2    0    0  0.19659461165E+03 -0.31999773228E+03  0.30239297520E+02  0.98742299330E+03  0.91271121533E+03 0.  0.
         23    2    4    4    0    0  0.46283442684E+03 -0.12139151745E+03  0.27992301976E+03  0.56187817383E+03  0.91643756227E+02 0.  0.
         23    2    4    4    0    0 -0.26623981519E+03 -0.19860621482E+03 -0.24968372224E+03  0.42554481947E+03  0.91751645573E+02 0.  0.
          3    1    3    3  502    0 -0.47931554228E+02  0.98852493792E+02  0.30213450247E+03  0.32148795779E+03  0.00000000000E+00 0. -1.
         -4    1    3    3    0  502 -0.14866305742E+03  0.22114523848E+03  0.11634570920E+04  0.11935821404E+04  0.00000000000E+00 0.  1.
         13    1    5    5    0    0  0.16779584430E+03 -0.45432235280E+02  0.52167249783E+02  0.18149643334E+03  0.00000000000E+00 0.  1.
        -13    1    5    5    0    0  0.29503858254E+03 -0.75959282174E+02  0.22775576998E+03  0.38038174049E+03  0.00000000000E+00 0. -1.
          2    1    6    6  503    0 -0.13671818598E+03 -0.80658103427E+02 -0.17157128614E+03  0.23373980887E+03  0.00000000000E+00 0. -1.
         -2    1    6    6    0  503 -0.12952162921E+03 -0.11794811139E+03 -0.78112436108E+02  0.19180501059E+03  0.00000000000E+00 0.  1.
<mgrwt>
<rscale>  0 0.20062307E+04</rscale>
<asrwt>0</asrwt>
<pdfrwt beam="1">  1        1 0.77435555E-01 0.20062307E+04</pdfrwt>
<pdfrwt beam="2">  1       -2 0.30756338E+00 0.20062307E+04</pdfrwt>
<totfact> 0.10193544E+00</totfact>
</mgrwt>
</event>
<event>
12    5  0.5029243E-008  0.1912653E+04  0.7818608E-02  0.8648584E-01
          1   -1    0    0  501    0  0.00000000000E+00  0.00000000000E+00  0.82127999910E+03  0.82127999910E+03  0.00000000000E+00 0. -1.
         -2   -1    0    0    0  501 -0.00000000000E+00 -0.00000000000E+00 -0.11135793483E+04  0.11135793483E+04  0.00000000000E+00 0.  1.
        -24    2    1    2    0    0  0.40797265454E+03 -0.12529279147E+03 -0.72783134657E+03  0.84773164255E+03  0.82283037617E+02 0.  0.
        254    2    1    2    0    0 -0.40797265454E+03  0.12529279147E+03  0.43553199741E+03  0.10871277048E+04  0.90001030848E+03 0.  0.
         23    2    4    4    0    0 -0.70828182834E+02  0.15034513999E+03  0.64959827191E+03  0.67660589115E+03  0.90539077003E+02 0.  0.
         23    2    4    4    0    0 -0.33714447171E+03 -0.25052348522E+02 -0.21406627451E+03  0.41052181367E+03  0.91704823473E+02 0.  0.
          1    1    3    3  502    0  0.26106316310E+03 -0.92131954341E+02 -0.39439875927E+03  0.48186372913E+03  0.00000000000E+00 0. -1.
         -2    1    3    3    0  502  0.14690949145E+03 -0.33160837131E+02 -0.33343258731E+03  0.36586791343E+03  0.00000000000E+00 0.  1.
         13    1    5    5    0    0 -0.22791440104E+02  0.13568788462E+03  0.43659639821E+03  0.45776311199E+03  0.00000000000E+00 0.  1.
        -13    1    5    5    0    0 -0.48036742731E+02  0.14657255375E+02  0.21300187371E+03  0.21884277916E+03  0.00000000000E+00 0. -1.
          3    1    6    6  503    0 -0.63214794600E+02  0.94796519349E+01 -0.48418425631E+01  0.64104738488E+02  0.00000000000E+00 0. -1.
         -3    1    6    6    0  503 -0.27392967711E+03 -0.34532000457E+02 -0.20922443194E+03  0.34641707518E+03  0.00000000000E+00 0.  1.
<mgrwt>
<rscale>  0 0.19126531E+04</rscale>
<asrwt>0</asrwt>
<pdfrwt beam="1">  1        1 0.12635077E+00 0.19126531E+04</pdfrwt>
<pdfrwt beam="2">  1       -2 0.17131990E+00 0.19126531E+04</pdfrwt>
<totfact> 0.36177001E+00</totfact>
</mgrwt>
</event>
<event>
12    5  0.5029243E-008  0.2401026E+04  0.7818608E-02  0.8439120E-01
          1   -1    0    0  501    0  0.00000000000E+00  0.00000000000E+00  0.57495905263E+03  0.57495905263E+03  0.00000000000E+00 0. -1.
         -2   -1    0    0    0  501 -0.00000000000E+00 -0.00000000000E+00 -0.25066676355E+04  0.25066676355E+04  0.00000000000E+00 0.  1.
        -24    2    1    2    0    0 -0.86197083251E+03 -0.16773032018E+03 -0.15202390951E+04  0.17574972300E+04  0.80885293595E+02 0.  0.
        254    2    1    2    0    0  0.86197083251E+03  0.16773032018E+03 -0.41146948779E+03  0.13241294582E+04  0.90160107928E+03 0.  0.
         23    2    4    4    0    0  0.65451211819E+03  0.51673428330E+03 -0.31958996948E+03  0.89776216971E+03  0.91862573260E+02 0.  0.
         23    2    4    4    0    0  0.20745871433E+03 -0.34900396313E+03 -0.91879518304E+02  0.42636728845E+03  0.92218947857E+02 0.  0.
          3    1    3    3  502    0 -0.51104933193E+03 -0.97917257810E+02 -0.97880059070E+03  0.11085169396E+04  0.00000000000E+00 0. -1.
         -4    1    3    3    0  502 -0.35092150059E+03 -0.69813062365E+02 -0.54143850439E+03  0.64898029036E+03  0.00000000000E+00 0.  1.
         13    1    5    5    0    0  0.10118369931E+03  0.12478545870E+03 -0.69263677650E+02  0.17494858888E+03  0.00000000000E+00 0. -1.
        -13    1    5    5    0    0  0.55332841887E+03  0.39194882460E+03 -0.25032629183E+03  0.72281358082E+03  0.00000000000E+00 0.  1.
          1    1    6    6  503    0  0.18703325796E+03 -0.27669937625E+03 -0.10499476435E+03  0.35009696506E+03  0.00000000000E+00 0. -1.
         -1    1    6    6    0  503  0.20425456365E+02 -0.72304586877E+02  0.13115246043E+02  0.76270323389E+02  0.00000000000E+00 0.  1.
<mgrwt>
<rscale>  0 0.24010258E+04</rscale>
<asrwt>0</asrwt>
<pdfrwt beam="1">  1        1 0.88455239E-01 0.24010258E+04</pdfrwt>
<pdfrwt beam="2">  1       -2 0.38564117E+00 0.24010258E+04</pdfrwt>
<totfact> 0.26340542E-01</totfact>
</mgrwt>
</event>
<event>
12    5  0.5029243E-008  0.2078187E+04  0.7818608E-02  0.8570913E-01
         -2   -1    0    0    0  501 -0.00000000000E+00  0.00000000000E+00  0.45494605945E+03  0.45494605945E+03  0.00000000000E+00 0.  1.
          1   -1    0    0  501    0  0.00000000000E+00 -0.00000000000E+00 -0.23732827379E+04  0.23732827379E+04  0.00000000000E+00 0. -1.
        -24    2    1    2    0    0  0.11837792644E+03 -0.73339441261E+03 -0.23915912185E+03  0.78439232489E+03  0.78699020742E+02 0.  0.
        254    2    1    2    0    0 -0.11837792644E+03  0.73339441261E+03 -0.16791775566E+04  0.20438364725E+04  0.89763553947E+03 0.  0.
         23    2    4    4    0    0 -0.15262812055E+03  0.50046592288E+03 -0.24163282017E+03  0.58428200763E+03  0.96112233941E+02 0.  0.
         23    2    4    4    0    0  0.34250194108E+02  0.23292848973E+03 -0.14375447365E+04  0.14595544649E+04  0.91299558931E+02 0.  0.
          3    1    3    3  502    0  0.11315882519E+03 -0.68635665526E+03 -0.24316027555E+03  0.73689707392E+03  0.00000000000E+00 0. -1.
         -4    1    3    3    0  502  0.52191012539E+01 -0.47037757345E+02  0.40011536982E+01  0.47495250971E+02  0.00000000000E+00 0.  1.
         13    1    5    5    0    0 -0.39056205400E+02  0.14565616382E+03 -0.11891681178E+03  0.19204768513E+03  0.00000000000E+00 0.  1.
        -13    1    5    5    0    0 -0.11357191515E+03  0.35480975906E+03 -0.12271600839E+03  0.39223432250E+03  0.00000000000E+00 0. -1.
          2    1    6    6  503    0  0.30462857122E+02  0.16012535265E+03 -0.71512393571E+03  0.73346462604E+03  0.00000000000E+00 0. -1.
         -2    1    6    6    0  503  0.37873369867E+01  0.72803137078E+02 -0.72242080077E+03  0.72608983884E+03  0.00000000000E+00 0.  1.
<mgrwt>
<rscale>  0 0.20781873E+04</rscale>
<asrwt>0</asrwt>
<pdfrwt beam="1">  1        1 0.36512043E+00 0.20781873E+04</pdfrwt>
<pdfrwt beam="2">  1       -2 0.69991700E-01 0.20781873E+04</pdfrwt>
<totfact> 0.24951338E+00</totfact>
</mgrwt>
</event>
<event>
12    5  0.5029243E-008  0.3320585E+04  0.7818608E-02  0.8157677E-01
          1   -1    0    0  501    0  0.00000000000E+00  0.00000000000E+00  0.18663293677E+04  0.18663293677E+04  0.00000000000E+00 0. -1.
         -2   -1    0    0    0  501 -0.00000000000E+00 -0.00000000000E+00 -0.14770013900E+04  0.14770013900E+04  0.00000000000E+00 0.  1.
        -24    2    1    2    0    0  0.12181131168E+03  0.13533223205E+04 -0.54726376201E+03  0.14670903144E+04  0.80852127593E+02 0.  0.
        254    2    1    2    0    0 -0.12181131168E+03 -0.13533223205E+04  0.93659173976E+03  0.18762404433E+04  0.89261123414E+03 0.  0.
         23    2    4    4    0    0 -0.35336664222E+03 -0.77227888628E+03  0.15041031614E+03  0.86748195421E+03  0.92838653849E+02 0.  0.
         23    2    4    4    0    0  0.23155533053E+03 -0.58104343421E+03  0.78618142362E+03  0.10087584891E+04  0.91011619806E+02 0.  0.
          1    1    3    3  502    0  0.36062212173E+02  0.62940572892E+03 -0.29126506105E+03  0.69446914296E+03  0.00000000000E+00 0. -1.
         -2    1    3    3    0  502  0.85749099510E+02  0.72391659158E+03 -0.25599870096E+03  0.77262117142E+03  0.00000000000E+00 0.  1.
         13    1    5    5    0    0 -0.10195328976E+03 -0.33208460374E+03  0.64648855037E+02  0.35334704158E+03  0.00000000000E+00 0.  1.
        -13    1    5    5    0    0 -0.25141335246E+03 -0.44019428254E+03  0.85761461099E+02  0.51413491263E+03  0.00000000000E+00 0. -1.
          4    1    6    6  503    0  0.22078590764E+01 -0.57752664343E+02  0.10347782817E+03  0.11852386174E+03  0.00000000000E+00 0. -1.
         -4    1    6    6    0  503  0.22934747146E+03 -0.52329076987E+03  0.68270359545E+03  0.89023462736E+03  0.00000000000E+00 0.  1.
<mgrwt>
<rscale>  0 0.33205849E+04</rscale>
<asrwt>0</asrwt>
<pdfrwt beam="1">  1        1 0.28712760E+00 0.33205849E+04</pdfrwt>
<pdfrwt beam="2">  1       -2 0.22723098E+00 0.33205849E+04</pdfrwt>
<totfact> 0.23790534E-01</totfact>
</mgrwt>
</event>
<event>
12    5  0.5029243E-008  0.1985702E+04  0.7818608E-02  0.8613335E-01
         -2   -1    0    0    0  501 -0.00000000000E+00  0.00000000000E+00  0.58385151890E+03  0.58385151890E+03  0.00000000000E+00 0.  1.
          1   -1    0    0  501    0  0.00000000000E+00 -0.00000000000E+00 -0.16883632351E+04  0.16883632351E+04  0.00000000000E+00 0. -1.
        -24    2    1    2    0    0  0.71658315217E+03 -0.34608626489E+03 -0.26002834841E+03  0.84102930508E+03  0.80302137627E+02 0.  0.
        254    2    1    2    0    0 -0.71658315217E+03  0.34608626489E+03 -0.84448336783E+03  0.14311854489E+04  0.83777832033E+03 0.  0.
         23    2    4    4    0    0 -0.52302249926E+03  0.30433780260E+03 -0.57802483978E+02  0.61492953087E+03  0.92861014202E+02 0.  0.
         23    2    4    4    0    0 -0.19356065291E+03  0.41748462291E+02 -0.78668088385E+03  0.81625591808E+03  0.90544189876E+02 0.  0.
          3    1    3    3  502    0  0.17098433989E+03 -0.45693527561E+02 -0.59313713035E+02  0.18665920685E+03  0.00000000000E+00 0. -1.
         -4    1    3    3    0  502  0.54559881228E+03 -0.30039273733E+03 -0.20071463537E+03  0.65437009823E+03  0.00000000000E+00 0.  1.
         13    1    5    5    0    0 -0.93473127981E+02  0.19475488863E+02  0.54812656557E+01  0.95637673509E+02  0.00000000000E+00 0. -1.
        -13    1    5    5    0    0 -0.42954937128E+03  0.28486231374E+03 -0.63283749634E+02  0.51929185736E+03  0.00000000000E+00 0.  1.
          4    1    6    6  503    0 -0.39383151762E+02 -0.27779167289E+02 -0.15452817771E+03  0.16186930680E+03  0.00000000000E+00 0. -1.
         -4    1    6    6    0  503 -0.15417750115E+03  0.69527629580E+02 -0.63215270614E+03  0.65438661127E+03  0.00000000000E+00 0.  1.
<mgrwt>
<rscale>  0 0.19857023E+04</rscale>
<asrwt>0</asrwt>
<pdfrwt beam="1">  1        1 0.25974819E+00 0.19857023E+04</pdfrwt>
<pdfrwt beam="2">  1       -2 0.89823311E-01 0.19857023E+04</pdfrwt>
<totfact> 0.42018232E+00</totfact>
</mgrwt>
</event>
<event>
12    5  0.5029243E-008  0.2479364E+04  0.7818608E-02  0.8410374E-01
         -2   -1    0    0    0  501 -0.00000000000E+00  0.00000000000E+00  0.79734128020E+03  0.79734128020E+03  0.00000000000E+00 0.  1.
          1   -1    0    0  501    0  0.00000000000E+00 -0.00000000000E+00 -0.19274197909E+04  0.19274197909E+04  0.00000000000E+00 0. -1.
        -24    2    1    2    0    0  0.10706515003E+04 -0.10173031439E+02 -0.62888791686E+03  0.12442276592E+04  0.78767571472E+02 0.  0.
        254    2    1    2    0    0 -0.10706515003E+04  0.10173031439E+02 -0.50119059380E+03  0.14805334119E+04  0.89128505358E+03 0.  0.
         23    2    4    4    0    0 -0.64737135141E+03  0.27154814375E+03 -0.64191158632E+03  0.95553545328E+03  0.90385047476E+02 0.  0.
         23    2    4    4    0    0 -0.42328014886E+03 -0.26137511231E+03  0.14072099252E+03  0.52499795859E+03  0.91309501308E+02 0.  0.
          1    1    3    3  502    0  0.83735031877E+03  0.47419991418E+01 -0.45607189502E+03  0.95350910658E+03  0.00000000000E+00 0. -1.
         -2    1    3    3    0  502  0.23330118150E+03 -0.14915030581E+02 -0.17281602184E+03  0.29071855261E+03  0.00000000000E+00 0.  1.
         13    1    5    5    0    0 -0.23536957949E+03  0.11866099020E+03 -0.18811948779E+03  0.32383361659E+03  0.00000000000E+00 0. -1.
        -13    1    5    5    0    0 -0.41200177192E+03  0.15288715356E+03 -0.45379209853E+03  0.63170183669E+03  0.00000000000E+00 0.  1.
          1    1    6    6  503    0 -0.27521062476E+03 -0.21239504477E+03  0.74338432398E+02  0.35549788404E+03  0.00000000000E+00 0. -1.
         -1    1    6    6    0  503 -0.14806952410E+03 -0.48980067541E+02  0.66382560126E+02  0.16950007455E+03  0.00000000000E+00 0.  1.
<mgrwt>
<rscale>  0 0.24793639E+04</rscale>
<asrwt>0</asrwt>
<pdfrwt beam="1">  1        1 0.29652612E+00 0.24793639E+04</pdfrwt>
<pdfrwt beam="2">  1       -2 0.12266789E+00 0.24793639E+04</pdfrwt>
<totfact> 0.13120573E+00</totfact>
</mgrwt>
</event>
<event>
12    5  0.5029243E-008  0.2012958E+04  0.7818608E-02  0.8600586E-01
          1   -1    0    0  501    0  0.00000000000E+00  0.00000000000E+00  0.99295968339E+03  0.99295968339E+03  0.00000000000E+00 0. -1.
         -2   -1    0    0    0  501 -0.00000000000E+00 -0.00000000000E+00 -0.10201822586E+04  0.10201822586E+04  0.00000000000E+00 0.  1.
        -24    2    1    2    0    0 -0.55837798681E+03  0.24870061869E+03 -0.47756654332E+03  0.77981104244E+03  0.79984277951E+02 0.  0.
        254    2    1    2    0    0  0.55837798681E+03 -0.24870061869E+03  0.45034396812E+03  0.12333308995E+04  0.97193489714E+03 0.  0.
         23    2    4    4    0    0  0.20839939632E+03 -0.17707163253E+03 -0.28821583458E+03  0.40774388398E+03  0.91662621538E+02 0.  0.
         23    2    4    4    0    0  0.34997859050E+03 -0.71628986154E+02  0.73855980269E+03  0.82558701557E+03  0.92236720785E+02 0.  0.
          3    1    3    3  502    0 -0.79783203392E+02  0.12151415867E+02 -0.84565146257E+02  0.11689431300E+03  0.00000000000E+00 0. -1.
         -4    1    3    3    0  502 -0.47859478342E+03  0.23654920282E+03 -0.39300139706E+03  0.66291672944E+03  0.00000000000E+00 0.  1.
         13    1    5    5    0    0  0.49336577954E+02 -0.22718744367E+02 -0.15832462503E+02  0.56576551138E+02  0.00000000000E+00 0.  1.
        -13    1    5    5    0    0  0.15906281836E+03 -0.15435288816E+03 -0.27238337208E+03  0.35116733284E+03  0.00000000000E+00 0. -1.
          4    1    6    6  503    0  0.28792644226E+03 -0.77431239089E+02  0.53227608603E+03  0.61009430804E+03  0.00000000000E+00 0.  1.
         -4    1    6    6    0  503  0.62052148238E+02  0.58022529349E+01  0.20628371666E+03  0.21549270754E+03  0.00000000000E+00 0. -1.
<mgrwt>
<rscale>  0 0.20129579E+04</rscale>
<asrwt>0</asrwt>
<pdfrwt beam="1">  1        1 0.15276303E+00 0.20129579E+04</pdfrwt>
<pdfrwt beam="2">  1       -2 0.15695112E+00 0.20129579E+04</pdfrwt>
<totfact> 0.33034616E+00</totfact>
</mgrwt>
</event>
<event>
12    5  0.6689135E-008  0.1679918E+04  0.7818608E-02  0.8772901E-01
          1   -1    0    0  501    0  0.00000000000E+00  0.00000000000E+00  0.10217262798E+04  0.10217262798E+04  0.00000000000E+00 0. -1.
         -2   -1    0    0    0  501 -0.00000000000E+00 -0.00000000000E+00 -0.69052866041E+03  0.69052866041E+03  0.00000000000E+00 0.  1.
        -24    2    1    2    0    0  0.30429570997E+03  0.25750899634E+03  0.57162697943E+03  0.70132858119E+03  0.78724919068E+02 0.  0.
        254    2    1    2    0    0 -0.30429570997E+03 -0.25750899634E+03 -0.24042936008E+03  0.10109263590E+04  0.89736228124E+03 0.  0.
         23    2    4    4    0    0  0.17468591662E+03  0.17998492969E+03 -0.23408498754E+03  0.35594920877E+03  0.94838354347E+02 0.  0.
         23    2    4    4    0    0 -0.47898162659E+03 -0.43749392603E+03 -0.63443725450E+01  0.65497715020E+03  0.90169187138E+02 0.  0.
          3    1    3    3  502    0  0.28825699782E+03  0.21832505998E+03  0.48559238538E+03  0.60544024754E+03  0.00000000000E+00 0. -1.
         -4    1    3    3    0  502  0.16038712147E+02  0.39183936365E+02  0.86034594054E+02  0.95888333651E+02  0.00000000000E+00 0.  1.
         13    1    5    5    0    0 -0.76423657707E+01  0.22952107064E+02 -0.40244707915E+02  0.46955739674E+02  0.00000000000E+00 0.  1.
        -13    1    5    5    0    0  0.18232828239E+03  0.15703282262E+03 -0.19384027962E+03  0.30899346910E+03  0.00000000000E+00 0. -1.
          4    1    6    6  503    0 -0.44099642152E+03 -0.39491507165E+03 -0.31068803380E+02  0.59279088062E+03  0.00000000000E+00 0. -1.
         -4    1    6    6    0  503 -0.37985205069E+02 -0.42578854381E+02  0.24724430836E+02  0.62186269583E+02  0.00000000000E+00 0.  1.
<mgrwt>
<rscale>  0 0.16799182E+04</rscale>
<asrwt>0</asrwt>
<pdfrwt beam="1">  1        1 0.15718866E+00 0.16799182E+04</pdfrwt>
<pdfrwt beam="2">  1       -2 0.10623518E+00 0.16799182E+04</pdfrwt>
<totfact> 0.86914769E+00</totfact>
</mgrwt>
</event>
<event>
12    5  0.5029243E-008  0.1377140E+04  0.7818608E-02  0.8970534E-01
          1   -1    0    0  501    0  0.00000000000E+00  0.00000000000E+00  0.10022327841E+04  0.10022327841E+04  0.00000000000E+00 0. -1.
         -2   -1    0    0    0  501 -0.00000000000E+00 -0.00000000000E+00 -0.47307269303E+03  0.47307269303E+03  0.00000000000E+00 0.  1.
        -24    2    1    2    0    0  0.10457244180E+03  0.25199836235E+03  0.43240537266E+03  0.51757971025E+03  0.80472230930E+02 0.  0.
        254    2    1    2    0    0 -0.10457244180E+03 -0.25199836235E+03  0.96754718400E+02  0.95772576686E+03  0.91292858361E+03 0.  0.
         23    2    4    4    0    0  0.24127020548E+03  0.20870808579E+03 -0.89031480499E+02  0.34583205301E+03  0.99512950150E+02 0.  0.
         23    2    4    4    0    0 -0.34584264728E+03 -0.46070644814E+03  0.18578619890E+03  0.61189371385E+03  0.89665139889E+02 0.  0.
          1    1    3    3  502    0  0.11720138795E+03  0.23934953070E+03  0.40803983521E+03  0.48736112925E+03  0.00000000000E+00 0. -1.
         -4    1    3    3    0  502 -0.12628946146E+02  0.12648831651E+02  0.24365537443E+02  0.30218581003E+02  0.00000000000E+00 0.  1.
         13    1    5    5    0    0  0.25189316585E+02  0.75145893950E+02 -0.10529715191E+02  0.79951747633E+02  0.00000000000E+00 0. -1.
        -13    1    5    5    0    0  0.21608088889E+03  0.13356219184E+03 -0.78501765308E+02  0.26588030538E+03  0.00000000000E+00 0.  1.
          2    1    6    6  503    0 -0.29348545736E+03 -0.43090739908E+03  0.15319734018E+03  0.54340070418E+03  0.00000000000E+00 0.  1.
         -2    1    6    6    0  503 -0.52357189914E+02 -0.29799049061E+02  0.32588858723E+02  0.68493009669E+02  0.00000000000E+00 0. -1.
<mgrwt>
<rscale>  0 0.13771405E+04</rscale>
<asrwt>0</asrwt>
<pdfrwt beam="1">  1        1 0.15418966E+00 0.13771405E+04</pdfrwt>
<pdfrwt beam="2">  1       -2 0.72780415E-01 0.13771405E+04</pdfrwt>
<totfact> 0.22024522E+01</totfact>
</mgrwt>
</event>
<event>
12    5  0.5029243E-008  0.2031460E+04  0.7818608E-02  0.8592052E-01
         -2   -1    0    0    0  501 -0.00000000000E+00  0.00000000000E+00  0.12747421074E+04  0.12747421074E+04  0.00000000000E+00 0.  1.
          1   -1    0    0  501    0  0.00000000000E+00 -0.00000000000E+00 -0.80934620802E+03  0.80934620802E+03  0.00000000000E+00 0. -1.
        -24    2    1    2    0    0 -0.46227280798E+03 -0.39088396305E+03  0.74555096782E+03  0.96372066740E+03  0.80155209333E+02 0.  0.
        254    2    1    2    0    0  0.46227280798E+03  0.39088396305E+03 -0.28015506840E+03  0.11203676481E+04  0.90013909086E+03 0.  0.
         23    2    4    4    0    0  0.44064513812E+03 -0.18854795175E+03 -0.53648319409E+02  0.49106076470E+03  0.92434109464E+02 0.  0.
         23    2    4    4    0    0  0.21627669858E+02  0.57943191480E+03 -0.22650674899E+03  0.62930688336E+03  0.92264544163E+02 0.  0.
          1    1    3    3  502    0 -0.29337337251E+01 -0.41343286943E+01 -0.14718714163E+01  0.52788135778E+01  0.00000000000E+00 0. -1.
         -2    1    3    3    0  502 -0.45933907425E+03 -0.38674963436E+03  0.74702283924E+03  0.95844185382E+03  0.00000000000E+00 0.  1.
         13    1    5    5    0    0  0.42766017655E+03 -0.19150471581E+03 -0.65621173404E+02  0.47315264047E+03  0.00000000000E+00 0.  1.
        -13    1    5    5    0    0  0.12984961568E+02  0.29567640557E+01  0.11972853995E+02  0.17908124228E+02  0.00000000000E+00 0. -1.
          4    1    6    6  503    0 -0.17190732730E+02  0.47416401780E+03 -0.17330687488E+03  0.50513593215E+03  0.00000000000E+00 0.  1.
         -4    1    6    6    0  503  0.38818402588E+02  0.10526789700E+03 -0.53199874111E+02  0.12417095121E+03  0.00000000000E+00 0. -1.
<mgrwt>
<rscale>  0 0.20314603E+04</rscale>
<asrwt>0</asrwt>
<pdfrwt beam="1">  1        1 0.12451480E+00 0.20314603E+04</pdfrwt>
<pdfrwt beam="2">  1       -2 0.19611417E+00 0.20314603E+04</pdfrwt>
<totfact> 0.24807306E+00</totfact>
</mgrwt>
</event>
<event>
12    5  0.5029243E-008  0.2722268E+04  0.7818608E-02  0.8327816E-01
         -2   -1    0    0    0  501 -0.00000000000E+00  0.00000000000E+00  0.19168799101E+04  0.19168799101E+04  0.00000000000E+00 0.  1.
          3   -1    0    0  501    0  0.00000000000E+00 -0.00000000000E+00 -0.96651107165E+03  0.96651107165E+03  0.00000000000E+00 0. -1.
        -24    2    1    2    0    0 -0.34420805526E+03 -0.98915169141E+02 -0.80215878974E+03  0.88207289837E+03  0.79564301605E+02 0.  0.
        254    2    1    2    0    0  0.34420805526E+03  0.98915169141E+02  0.17525276282E+04  0.20013180834E+04  0.89758430651E+03 0.  0.
         23    2    4    4    0    0 -0.28023901886E+03 -0.87474745410E+02  0.62727406293E+03  0.69768790472E+03  0.84320362793E+02 0.  0.
         23    2    4    4    0    0  0.62444707413E+03  0.18638991455E+03  0.11252535653E+04  0.13036301787E+04  0.92632110847E+02 0.  0.
          3    1    3    3  502    0 -0.10173365496E+03 -0.65969149305E+02 -0.23709892516E+03  0.26630352143E+03  0.00000000000E+00 0. -1.
         -4    1    3    3    0  502 -0.24247440031E+03 -0.32946019837E+02 -0.56505986458E+03  0.61576937694E+03  0.00000000000E+00 0.  1.
         13    1    5    5    0    0 -0.76296639101E+02 -0.61045469536E+02  0.16551384196E+03  0.19220447022E+03  0.00000000000E+00 0. -1.
        -13    1    5    5    0    0 -0.20394237976E+03 -0.26429275874E+02  0.46176022097E+03  0.50548343450E+03  0.00000000000E+00 0.  1.
          4    1    6    6  503    0  0.15335493321E+03  0.79097739992E+02  0.34832813707E+03  0.38872442563E+03  0.00000000000E+00 0. -1.
         -4    1    6    6    0  503  0.47109214091E+03  0.10729217456E+03  0.77692542821E+03  0.91490575304E+03  0.00000000000E+00 0.  1.
<mgrwt>
<rscale>  0 0.27222679E+04</rscale>
<asrwt>0</asrwt>
<pdfrwt beam="1">  1        3 0.14869401E+00 0.27222679E+04</pdfrwt>
<pdfrwt beam="2">  1       -2 0.29490460E+00 0.27222679E+04</pdfrwt>
<totfact> 0.41102399E-02</totfact>
</mgrwt>
</event>
<event>
12    5  0.5029243E-008  0.4191756E+04  0.7818608E-02  0.7966942E-01
         -2   -1    0    0    0  501 -0.00000000000E+00  0.00000000000E+00  0.99544287911E+03  0.99544287911E+03  0.00000000000E+00 0.  1.
          1   -1    0    0  501    0  0.00000000000E+00 -0.00000000000E+00 -0.44128149265E+04  0.44128149265E+04  0.00000000000E+00 0. -1.
        -24    2    1    2    0    0 -0.75466888799E+03 -0.77175329174E+03  0.53914198445E+03  0.12091162761E+04  0.78484494171E+02 0.  0.
        254    2    1    2    0    0  0.75466888799E+03  0.77175329174E+03 -0.39565140318E+04  0.41991415295E+04  0.90202994810E+03 0.  0.
         23    2    4    4    0    0  0.11311536171E+03 -0.12910972614E+03 -0.18802239273E+03  0.27068348863E+03  0.91938699201E+02 0.  0.
         23    2    4    4    0    0  0.64155352628E+03  0.90086301787E+03 -0.37684916391E+04  0.39284580409E+04  0.90045772825E+02 0.  0.
          1    1    3    3  502    0 -0.57940122675E+02 -0.92784235634E+02  0.52015759212E+02  0.12112642736E+03  0.00000000000E+00 0. -1.
         -2    1    3    3    0  502 -0.69672876532E+03 -0.67896905610E+03  0.48712622524E+03  0.10879898487E+04  0.00000000000E+00 0.  1.
         13    1    5    5    0    0 -0.42899536613E+01 -0.49229541529E+02 -0.71909802939E+02  0.87252342205E+02  0.00000000000E+00 0.  1.
        -13    1    5    5    0    0  0.11740531537E+03 -0.79880184608E+02 -0.11611258980E+03  0.18343114643E+03  0.00000000000E+00 0. -1.
          1    1    6    6  503    0  0.45202130774E+03  0.66819832395E+03 -0.28664003521E+04  0.29777614480E+04  0.00000000000E+00 0. -1.
         -1    1    6    6    0  503  0.18953221854E+03  0.23266469392E+03 -0.90209128695E+03  0.95069659285E+03  0.00000000000E+00 0.  1.
<mgrwt>
<rscale>  0 0.41917563E+04</rscale>
<asrwt>0</asrwt>
<pdfrwt beam="1">  1        1 0.67889461E+00 0.41917563E+04</pdfrwt>
<pdfrwt beam="2">  1       -2 0.15314506E+00 0.41917563E+04</pdfrwt>
<totfact> 0.75595679E-03</totfact>
</mgrwt>
</event>
<event>
12    5  0.5029243E-008  0.1734350E+04  0.7818608E-02  0.8742012E-01
          1   -1    0    0  501    0  0.00000000000E+00  0.00000000000E+00  0.50792838757E+03  0.50792838757E+03  0.00000000000E+00 0. -1.
         -2   -1    0    0    0  501 -0.00000000000E+00 -0.00000000000E+00 -0.14805086978E+04  0.14805086978E+04  0.00000000000E+00 0.  1.
        -24    2    1    2    0    0 -0.54578330118E+03  0.94060773161E+02 -0.69071929955E+03  0.88886474698E+03  0.79123616994E+02 0.  0.
        254    2    1    2    0    0  0.54578330118E+03 -0.94060773161E+02 -0.28186101070E+03  0.10995723384E+04  0.90713111353E+03 0.  0.
         23    2    4    4    0    0 -0.11858178213E+03 -0.78907863791E+02 -0.38550698780E+03  0.42091548969E+03  0.90918214886E+02 0.  0.
         23    2    4    4    0    0  0.66436508330E+03 -0.15152909370E+02  0.10364597711E+03  0.67865684871E+03  0.90675548819E+02 0.  0.
          3    1    3    3  502    0 -0.44620669672E+03  0.62537732412E+02 -0.51343892452E+03  0.68310388185E+03  0.00000000000E+00 0. -1.
         -4    1    3    3    0  502 -0.99576604453E+02  0.31523040749E+02 -0.17728037502E+03  0.20576086513E+03  0.00000000000E+00 0.  1.
         13    1    5    5    0    0 -0.25806747391E+02 -0.14097245151E+02 -0.14028960053E+02  0.32581164067E+02  0.00000000000E+00 0.  1.
        -13    1    5    5    0    0 -0.92775034735E+02 -0.64810618640E+02 -0.37147802775E+03  0.38833432563E+03  0.00000000000E+00 0. -1.
          4    1    6    6  503    0  0.60481000405E+03 -0.28032077866E+02  0.11603598442E+03  0.61647813268E+03  0.00000000000E+00 0. -1.
         -4    1    6    6    0  503  0.59555079252E+02  0.12879168496E+02 -0.12390007316E+02  0.62178716030E+02  0.00000000000E+00 0.  1.
<mgrwt>
<rscale>  0 0.17343499E+04</rscale>
<asrwt>0</asrwt>
<pdfrwt beam="1">  1        1 0.78142829E-01 0.17343499E+04</pdfrwt>
<pdfrwt beam="2">  1       -2 0.22777057E+00 0.17343499E+04</pdfrwt>
<totfact> 0.31773236E+00</totfact>
</mgrwt>
</event>
<event>
12    5  0.5029243E-008  0.1322383E+04  0.7818608E-02  0.9012001E-01
         -2   -1    0    0    0  501 -0.00000000000E+00  0.00000000000E+00  0.83110390716E+03  0.83110390716E+03  0.00000000000E+00 0.  1.
          1   -1    0    0  501    0  0.00000000000E+00 -0.00000000000E+00 -0.52601653073E+03  0.52601653073E+03  0.00000000000E+00 0. -1.
        -24    2    1    2    0    0 -0.59037888308E+01  0.12780820858E+03 -0.24842822261E+03  0.29122081415E+03  0.81995048030E+02 0.  0.
        254    2    1    2    0    0  0.59037888308E+01 -0.12780820858E+03  0.55351559904E+03  0.10658996237E+04  0.90188286191E+03 0.  0.
         23    2    4    4    0    0 -0.43802997759E+03 -0.78630721311E+02  0.28900215985E+03  0.53837805260E+03  0.90970476055E+02 0.  0.
         23    2    4    4    0    0  0.44393376642E+03 -0.49177487274E+02  0.26451343919E+03  0.52752157115E+03  0.93893739334E+02 0.  0.
          3    1    3    3  502    0  0.32849267655E+02  0.97100955206E+02 -0.16582914716E+03  0.19495377897E+03  0.00000000000E+00 0. -1.
         -4    1    3    3    0  502 -0.38753056486E+02  0.30707253379E+02 -0.82599075446E+02  0.96267035176E+02  0.00000000000E+00 0.  1.
         13    1    5    5    0    0 -0.43510424192E+03 -0.83858335006E+02  0.27101592350E+03  0.51942040052E+03  0.00000000000E+00 0.  1.
        -13    1    5    5    0    0 -0.29257356782E+01  0.52276136950E+01  0.17986236355E+02  0.18957652081E+02  0.00000000000E+00 0. -1.
          4    1    6    6  503    0  0.16843074789E+03  0.21709627245E+02  0.12371385301E+03  0.21010792983E+03  0.00000000000E+00 0. -1.
         -4    1    6    6    0  503  0.27550301854E+03 -0.70887114519E+02  0.14079958618E+03  0.31741364132E+03  0.00000000000E+00 0.  1.
<mgrwt>
<rscale>  0 0.13223833E+04</rscale>
<asrwt>0</asrwt>
<pdfrwt beam="1">  1        1 0.80925621E-01 0.13223833E+04</pdfrwt>
<pdfrwt beam="2">  1       -2 0.12786214E+00 0.13223833E+04</pdfrwt>
<totfact> 0.16041147E+01</totfact>
</mgrwt>
</event>
<event>
12    5  0.5029243E-008  0.2042343E+04  0.7818608E-02  0.8587076E-01
         -2   -1    0    0    0  501 -0.00000000000E+00  0.00000000000E+00  0.74099435390E+03  0.74099435390E+03  0.00000000000E+00 0.  1.
          1   -1    0    0  501    0  0.00000000000E+00 -0.00000000000E+00 -0.14072865390E+04  0.14072865390E+04  0.00000000000E+00 0. -1.
        -24    2    1    2    0    0 -0.22579770173E+03 -0.78566469666E+03 -0.33859716313E+03  0.88868846636E+03  0.82858516116E+02 0.  0.
        254    2    1    2    0    0  0.22579770173E+03  0.78566469666E+03 -0.32769502195E+03  0.12595924265E+04  0.90051953663E+03 0.  0.
         23    2    4    4    0    0 -0.27623578257E+03  0.58868221803E+03 -0.26763431270E+03  0.70923186667E+03  0.92351253246E+02 0.  0.
         23    2    4    4    0    0  0.50203348429E+03  0.19698247863E+03 -0.60060709253E+02  0.55036055985E+03  0.91922471687E+02 0.  0.
          3    1    3    3  502    0 -0.10179750812E+01 -0.75418521875E+02 -0.45836653911E+02  0.88260911829E+02  0.00000000000E+00 0. -1.
         -4    1    3    3    0  502 -0.22477972665E+03 -0.71024617478E+03 -0.29276050922E+03  0.80042755454E+03  0.00000000000E+00 0.  1.
         13    1    5    5    0    0 -0.11874957032E+03  0.29431126315E+03 -0.17660292815E+03  0.36319302623E+03  0.00000000000E+00 0. -1.
        -13    1    5    5    0    0 -0.15748621224E+03  0.29437095488E+03 -0.91031384542E+02  0.34603884044E+03  0.00000000000E+00 0.  1.
          3    1    6    6  503    0  0.18492564568E+03  0.52827435883E+02  0.18703372356E+02  0.19323055802E+03  0.00000000000E+00 0. -1.
         -3    1    6    6    0  503  0.31710783861E+03  0.14415504275E+03 -0.78764081609E+02  0.35713000183E+03  0.00000000000E+00 0.  1.
<mgrwt>
<rscale>  0 0.20423431E+04</rscale>
<asrwt>0</asrwt>
<pdfrwt beam="1">  1        1 0.21650562E+00 0.20423431E+04</pdfrwt>
<pdfrwt beam="2">  1       -2 0.11399913E+00 0.20423431E+04</pdfrwt>
<totfact> 0.37100797E+00</totfact>
</mgrwt>
</event>
<event>
12    5  0.5029243E-008  0.2253979E+04  0.7818608E-02  0.8496291E-01
          1   -1    0    0  501    0  0.00000000000E+00  0.00000000000E+00  0.20009288322E+04  0.20009288322E+04  0.00000000000E+00 0. -1.
         -2   -1    0    0    0  501 -0.00000000000E+00 -0.00000000000E+00 -0.63475777871E+03  0.63475777871E+03  0.00000000000E+00 0.  1.
        -24    2    1    2    0    0 -0.59240720316E+03 -0.21687968099E+03 -0.24940574493E+03  0.68257599715E+03  0.75654979363E+02 0.  0.
        254    2    1    2    0    0  0.59240720316E+03  0.21687968099E+03  0.16155767984E+04  0.19531106138E+04  0.89809219328E+03 0.  0.
         23    2    4    4    0    0  0.19129904880E+03 -0.17312127763E+03  0.12488901723E+04  0.12785149519E+04  0.91145580649E+02 0.  0.
         23    2    4    4    0    0  0.40110815436E+03  0.39000095862E+03  0.36668662610E+03  0.67459566186E+03  0.87359750604E+02 0.  0.
          3    1    3    3  502    0 -0.10821028250E+03 -0.24063451825E+02 -0.71315659524E+02  0.13181213239E+03  0.00000000000E+00 0. -1.
         -4    1    3    3    0  502 -0.48419692066E+03 -0.19281622916E+03 -0.17809008541E+03  0.55076386476E+03  0.00000000000E+00 0.  1.
         13    1    5    5    0    0  0.11371111539E+03 -0.98220246146E+02  0.92547764615E+03  0.93759602604E+03  0.00000000000E+00 0.  1.
        -13    1    5    5    0    0  0.77587933407E+02 -0.74901031483E+02  0.32341252619E+03  0.34091892589E+03  0.00000000000E+00 0. -1.
          4    1    6    6  503    0  0.13589024061E+02  0.12376361973E+02 -0.38761416931E+01  0.18784578384E+02  0.00000000000E+00 0. -1.
         -4    1    6    6    0  503  0.38751913030E+03  0.37762459664E+03  0.37056276779E+03  0.65581108348E+03  0.00000000000E+00 0.  1.
<mgrwt>
<rscale>  0 0.22539788E+04</rscale>
<asrwt>0</asrwt>
<pdfrwt beam="1">  1        1 0.30783520E+00 0.22539788E+04</pdfrwt>
<pdfrwt beam="2">  1       -2 0.97655044E-01 0.22539788E+04</pdfrwt>
<totfact> 0.20723216E+00</totfact>
</mgrwt>
</event>
<event>
12    5  0.5029243E-008  0.2871295E+04  0.7818608E-02  0.8281470E-01
          1   -1    0    0  501    0  0.00000000000E+00  0.00000000000E+00  0.21326338387E+04  0.21326338387E+04  0.00000000000E+00 0. -1.
         -2   -1    0    0    0  501 -0.00000000000E+00 -0.00000000000E+00 -0.96644961021E+03  0.96644961021E+03  0.00000000000E+00 0.  1.
        -24    2    1    2    0    0 -0.20083415937E+03 -0.34271233927E+03 -0.80170611542E+03  0.89964615315E+03  0.94044661290E+02 0.  0.
        254    2    1    2    0    0  0.20083415937E+03  0.34271233927E+03  0.19678903439E+04  0.21994372958E+04  0.89841299258E+03 0.  0.
         23    2    4    4    0    0  0.46469903772E+03  0.23189487762E+03  0.17516812771E+04  0.18293226431E+04  0.91178976738E+02 0.  0.
         23    2    4    4    0    0 -0.26386487835E+03  0.11081746165E+03  0.21620906677E+03  0.37011465269E+03  0.91286974712E+02 0.  0.
          3    1    3    3  502    0 -0.25687863535E+02 -0.30018379762E+02 -0.32940888551E+02  0.51439980512E+02  0.00000000000E+00 0. -1.
         -4    1    3    3    0  502 -0.17514629583E+03 -0.31269395951E+03 -0.76876522687E+03  0.84820617264E+03  0.00000000000E+00 0.  1.
         13    1    5    5    0    0  0.45161547347E+03  0.23640792361E+03  0.17305335544E+04  0.18040486759E+04  0.00000000000E+00 0.  1.
        -13    1    5    5    0    0  0.13083564248E+02 -0.45130459916E+01  0.21147722791E+02  0.25273967176E+02  0.00000000000E+00 0. -1.
          4    1    6    6  503    0 -0.15665011073E+02  0.18854930108E+02  0.54954313765E+02  0.60173728177E+02  0.00000000000E+00 0. -1.
         -4    1    6    6    0  503 -0.24819986728E+03  0.91962531541E+02  0.16125475300E+03  0.30994092452E+03  0.00000000000E+00 0.  1.
<mgrwt>
<rscale>  0 0.28712946E+04</rscale>
<asrwt>0</asrwt>
<pdfrwt beam="1">  1        1 0.32809751E+00 0.28712946E+04</pdfrwt>
<pdfrwt beam="2">  1       -2 0.14868456E+00 0.28712946E+04</pdfrwt>
<totfact> 0.56181208E-01</totfact>
</mgrwt>
</event>
<event>
12    5  0.5029243E-008  0.2777301E+04  0.7818608E-02  0.8310350E-01
         -2   -1    0    0    0  501 -0.00000000000E+00  0.00000000000E+00  0.18540356386E+04  0.18540356386E+04  0.00000000000E+00 0.  1.
          1   -1    0    0  501    0  0.00000000000E+00 -0.00000000000E+00 -0.10400822589E+04  0.10400822589E+04  0.00000000000E+00 0. -1.
        -24    2    1    2    0    0  0.23727260242E+03  0.26627607163E+03 -0.87430048667E+03  0.94763541467E+03  0.80064373822E+02 0.  0.
        254    2    1    2    0    0 -0.23727260242E+03 -0.26627607163E+03  0.16882538663E+04  0.19464824828E+04  0.90077283745E+03 0.  0.
         23    2    4    4    0    0  0.19659780038E+03 -0.66402662079E+02  0.42879779681E+02  0.23074310470E+03  0.91343835120E+02 0.  0.
         23    2    4    4    0    0 -0.43387040280E+03 -0.19987340955E+03  0.16453740866E+04  0.17157393781E+04  0.91174681028E+02 0.  0.
          1    1    3    3  502    0  0.22290711952E+03  0.24791018809E+03 -0.85382422453E+03  0.91660397757E+03  0.00000000000E+00 0. -1.
         -2    1    3    3    0  502  0.14365482908E+02  0.18365883543E+02 -0.20476262136E+02  0.31031437101E+02  0.00000000000E+00 0.  1.
         13    1    5    5    0    0  0.18220107100E+02 -0.43102062257E+02  0.71935317087E+01  0.47344555886E+02  0.00000000000E+00 0. -1.
        -13    1    5    5    0    0  0.17837769328E+03 -0.23300599822E+02  0.35686247972E+02  0.18339854881E+03  0.00000000000E+00 0.  1.
          2    1    6    6  503    0 -0.10104831344E+03 -0.89798267633E+02  0.42114570213E+03  0.44231006426E+03  0.00000000000E+00 0. -1.
         -2    1    6    6    0  503 -0.33282208936E+03 -0.11007514192E+03  0.12242283845E+04  0.12734293139E+04  0.00000000000E+00 0.  1.
<mgrwt>
<rscale>  0 0.27773005E+04</rscale>
<asrwt>0</asrwt>
<pdfrwt beam="1">  1        1 0.16001266E+00 0.27773005E+04</pdfrwt>
<pdfrwt beam="2">  1       -2 0.28523625E+00 0.27773005E+04</pdfrwt>
<totfact> 0.41937244E-01</totfact>
</mgrwt>
</event>
<event>
12    5  0.5029243E-008  0.1500380E+04  0.7818608E-02  0.8884200E-01
          1   -1    0    0  501    0  0.00000000000E+00  0.00000000000E+00  0.46792789514E+03  0.46792789514E+03  0.00000000000E+00 0. -1.
         -2   -1    0    0    0  501 -0.00000000000E+00 -0.00000000000E+00 -0.12027172856E+04  0.12027172856E+04  0.00000000000E+00 0.  1.
        -24    2    1    2    0    0 -0.37516511754E+03 -0.58079767369E+02  0.85579230758E+02  0.39713014590E+03  0.79160743092E+02 0.  0.
        254    2    1    2    0    0  0.37516511754E+03  0.58079767369E+02 -0.82036862126E+03  0.12735150349E+04  0.89705838414E+03 0.  0.
         23    2    4    4    0    0 -0.21305759991E+03  0.13189677888E+03 -0.55838851302E+03  0.61894754012E+03  0.92238954871E+02 0.  0.
         23    2    4    4    0    0  0.58822271745E+03 -0.73817011514E+02 -0.26198010825E+03  0.65456749477E+03  0.91488313906E+02 0.  0.
          1    1    3    3  502    0 -0.36250236005E+03 -0.45894456144E+02  0.66874830431E+02  0.37146534844E+03  0.00000000000E+00 0. -1.
         -2    1    3    3    0  502 -0.12662757488E+02 -0.12185311224E+02  0.18704400327E+02  0.25664797455E+02  0.00000000000E+00 0.  1.
         13    1    5    5    0    0 -0.10422706762E+03  0.12859928985E+02 -0.19843775064E+03  0.22451325190E+03  0.00000000000E+00 0. -1.
        -13    1    5    5    0    0 -0.10883053229E+03  0.11903684990E+03 -0.35995076238E+03  0.39443428823E+03  0.00000000000E+00 0.  1.
          4    1    6    6  503    0  0.32328907948E+03 -0.86343717497E+02 -0.14498986823E+03  0.36468222928E+03  0.00000000000E+00 0. -1.
         -4    1    6    6    0  503  0.26493363797E+03  0.12526705983E+02 -0.11699024001E+03  0.28988526549E+03  0.00000000000E+00 0.  1.
<mgrwt>
<rscale>  0 0.15003799E+04</rscale>
<asrwt>0</asrwt>
<pdfrwt beam="1">  1        1 0.71988908E-01 0.15003799E+04</pdfrwt>
<pdfrwt beam="2">  1       -2 0.18503342E+00 0.15003799E+04</pdfrwt>
<totfact> 0.68702195E+00</totfact>
</mgrwt>
</event>
<event>
12    5  0.5029243E-008  0.1510082E+04  0.7818608E-02  0.8877776E-01
          1   -1    0    0  501    0  0.00000000000E+00  0.00000000000E+00  0.46375629898E+03  0.46375629898E+03  0.00000000000E+00 0. -1.
         -2   -1    0    0    0  501 -0.00000000000E+00 -0.00000000000E+00 -0.12292810946E+04  0.12292810946E+04  0.00000000000E+00 0.  1.
        -24    2    1    2    0    0 -0.54230739360E+01  0.45964597940E+03 -0.64894726469E+02  0.47101896408E+03  0.79647365898E+02 0.  0.
        254    2    1    2    0    0  0.54230739360E+01 -0.45964597940E+03 -0.70063006917E+03  0.12220184295E+04  0.88946203524E+03 0.  0.
         23    2    4    4    0    0 -0.29653978315E+03 -0.22192189676E+03 -0.73086423223E+03  0.82425392045E+03  0.89704114639E+02 0.  0.
         23    2    4    4    0    0  0.30196285708E+03 -0.23772408264E+03  0.30234163059E+02  0.39776450906E+03  0.98021393196E+02 0.  0.
          1    1    3    3  502    0 -0.47321278414E+01  0.41651708641E+03 -0.82138988106E+02  0.42456529495E+03  0.00000000000E+00 0. -1.
         -2    1    3    3    0  502 -0.69094609459E+00  0.43128892988E+02  0.17244261637E+02  0.46453669137E+02  0.00000000000E+00 0.  1.
         13    1    5    5    0    0 -0.15654117448E+03 -0.84177913729E+02 -0.42614307976E+03  0.46172392714E+03  0.00000000000E+00 0. -1.
        -13    1    5    5    0    0 -0.13999860867E+03 -0.13774398303E+03 -0.30472115247E+03  0.36252999331E+03  0.00000000000E+00 0.  1.
          2    1    6    6  503    0  0.20415867897E+03 -0.21302329815E+03  0.12356113875E+02  0.29531739756E+03  0.00000000000E+00 0. -1.
         -2    1    6    6    0  503  0.97804178115E+02 -0.24700784492E+02  0.17878049184E+02  0.10244711150E+03  0.00000000000E+00 0.  1.
<mgrwt>
<rscale>  0 0.15100819E+04</rscale>
<asrwt>0</asrwt>
<pdfrwt beam="1">  1        1 0.71347124E-01 0.15100819E+04</pdfrwt>
<pdfrwt beam="2">  1       -2 0.18912016E+00 0.15100819E+04</pdfrwt>
<totfact> 0.65203110E+00</totfact>
</mgrwt>
</event>
<event>
12    5  0.5029243E-008  0.1398478E+04  0.7818608E-02  0.8954921E-01
         -2   -1    0    0    0  501 -0.00000000000E+00  0.00000000000E+00  0.33352673404E+03  0.33352673404E+03  0.00000000000E+00 0.  1.
          1   -1    0    0  501    0  0.00000000000E+00 -0.00000000000E+00 -0.14659550191E+04  0.14659550191E+04  0.00000000000E+00 0. -1.
        -24    2    1    2    0    0 -0.16361869740E+03 -0.32374685754E+03 -0.10240385434E+03  0.38511186810E+03  0.79003137051E+02 0.  0.
        254    2    1    2    0    0  0.16361869740E+03  0.32374685754E+03 -0.10300244307E+04  0.14143698850E+04  0.89883743685E+03 0.  0.
         23    2    4    4    0    0 -0.26009087032E+03  0.35916910993E+02 -0.20539022742E+02  0.27886057390E+03  0.91673785241E+02 0.  0.
         23    2    4    4    0    0  0.42370956772E+03  0.28782994655E+03 -0.10094854080E+04  0.11355093111E+04  0.89133219613E+02 0.  0.
          1    1    3    3  502    0 -0.76778364580E+02 -0.76040697577E+02 -0.19200289756E+02  0.10975315978E+03  0.00000000000E+00 0. -1.
         -2    1    3    3    0  502 -0.86840332819E+02 -0.24770615996E+03 -0.83203564585E+02  0.27535870832E+03  0.00000000000E+00 0.  1.
         13    1    5    5    0    0 -0.80064547940E+02  0.54075300895E+02 -0.15501097293E+02  0.97850672051E+02  0.00000000000E+00 0.  1.
        -13    1    5    5    0    0 -0.18002632238E+03 -0.18158389902E+02 -0.50379254488E+01  0.18100990185E+03  0.00000000000E+00 0. -1.
          3    1    6    6  503    0  0.24320363504E+03  0.18994126946E+03 -0.51954779054E+03  0.60428106093E+03  0.00000000000E+00 0. -1.
         -3    1    6    6    0  503  0.18050593268E+03  0.97888677087E+02 -0.48993761742E+03  0.53122825019E+03  0.00000000000E+00 0.  1.
<mgrwt>
<rscale>  0 0.13984780E+04</rscale>
<asrwt>0</asrwt>
<pdfrwt beam="1">  1        1 0.22553154E+00 0.13984780E+04</pdfrwt>
<pdfrwt beam="2">  1       -2 0.51311805E-01 0.13984780E+04</pdfrwt>
<totfact> 0.21211671E+01</totfact>
</mgrwt>
</event>
<event>
12    5  0.5073249E-008  0.1459020E+04  0.7818608E-02  0.8912171E-01
         -2   -1    0    0    0  501 -0.00000000000E+00  0.00000000000E+00  0.54942816945E+03  0.54942816945E+03  0.00000000000E+00 0.  1.
          1   -1    0    0  501    0  0.00000000000E+00 -0.00000000000E+00 -0.96861597325E+03  0.96861597325E+03  0.00000000000E+00 0. -1.
        -24    2    1    2    0    0 -0.31663082301E+03  0.24391287487E+03 -0.32791491489E+03  0.52291527917E+03  0.78508784061E+02 0.  0.
        254    2    1    2    0    0  0.31663082301E+03 -0.24391287487E+03 -0.91272888918E+02  0.99512886353E+03  0.90675363036E+03 0.  0.
         23    2    4    4    0    0  0.50346721067E+03 -0.39798502309E+03  0.12242724680E+03  0.66001187333E+03  0.93573133744E+02 0.  0.
         23    2    4    4    0    0 -0.18683638766E+03  0.15407214821E+03 -0.21370013572E+03  0.33511699020E+03  0.89384486935E+02 0.  0.
          3    1    3    3  502    0 -0.29120902790E+03  0.20908650535E+03 -0.31673123288E+03  0.47837071245E+03  0.00000000000E+00 0. -1.
         -4    1    3    3    0  502 -0.25421795111E+02  0.34826369526E+02 -0.11183682007E+02  0.44544566720E+02  0.00000000000E+00 0.  1.
         13    1    5    5    0    0  0.45004918076E+03 -0.33392699235E+03  0.78902147994E+02  0.56593025213E+03  0.00000000000E+00 0. -1.
        -13    1    5    5    0    0  0.53418029916E+02 -0.64058030737E+02  0.43525098805E+02  0.94081621202E+02  0.00000000000E+00 0.  1.
          3    1    6    6  503    0 -0.14117730075E+03  0.90083256673E+02 -0.94388656469E+02  0.19223746214E+03  0.00000000000E+00 0. -1.
         -3    1    6    6    0  503 -0.45659086914E+02  0.63988891538E+02 -0.11931147925E+03  0.14287952806E+03  0.00000000000E+00 0.  1.
<mgrwt>
<rscale>  0 0.14590201E+04</rscale>
<asrwt>0</asrwt>
<pdfrwt beam="1">  1        1 0.14901784E+00 0.14590201E+04</pdfrwt>
<pdfrwt beam="2">  1       -2 0.84527410E-01 0.14590201E+04</pdfrwt>
<totfact> 0.16630575E+01</totfact>
</mgrwt>
</event>
<event>
12    5  0.5029243E-008  0.1924089E+04  0.7818608E-02  0.8642958E-01
          1   -1    0    0  501    0  0.00000000000E+00  0.00000000000E+00  0.94170159379E+03  0.94170159379E+03  0.00000000000E+00 0. -1.
         -2   -1    0    0    0  501 -0.00000000000E+00 -0.00000000000E+00 -0.98282696312E+03  0.98282696312E+03  0.00000000000E+00 0.  1.
        -24    2    1    2    0    0  0.17193822159E+03 -0.16800225681E+02  0.68892965485E+03  0.71466164529E+03  0.79197211367E+02 0.  0.
        254    2    1    2    0    0 -0.17193822159E+03  0.16800225681E+02 -0.73005502418E+03  0.12098669116E+04  0.94918523265E+03 0.  0.
         23    2    4    4    0    0  0.40979683114E+02  0.34719641084E+03  0.14729883020E+02  0.36223523396E+03  0.93662762813E+02 0.  0.
         23    2    4    4    0    0 -0.21291790471E+03 -0.33039618516E+03 -0.74478490720E+03  0.84763167766E+03  0.96328758235E+02 0.  0.
          3    1    3    3  502    0  0.99677956562E+02 -0.46843161671E+02  0.35539437971E+03  0.37206873283E+03  0.00000000000E+00 0. -1.
         -4    1    3    3    0  502  0.72260265032E+02  0.30042935990E+02  0.33353527514E+03  0.34259291246E+03  0.00000000000E+00 0.  1.
         13    1    5    5    0    0  0.47594827988E+02  0.34073682250E+03 -0.93402437121E+00  0.34404610484E+03  0.00000000000E+00 0. -1.
        -13    1    5    5    0    0 -0.66151448740E+01  0.64595883482E+01  0.15663907391E+02  0.18189129118E+02  0.00000000000E+00 0.  1.
          3    1    6    6  503    0 -0.19094312386E+03 -0.33002394979E+03 -0.71824208446E+03  0.81317081593E+03  0.00000000000E+00 0. -1.
         -3    1    6    6    0  503 -0.21974780844E+02 -0.37223537207E+00 -0.26542822742E+02  0.34460861734E+02  0.00000000000E+00 0.  1.
<mgrwt>
<rscale>  0 0.19240891E+04</rscale>
<asrwt>0</asrwt>
<pdfrwt beam="1">  1        1 0.14487717E+00 0.19240891E+04</pdfrwt>
<pdfrwt beam="2">  1       -2 0.15120415E+00 0.19240891E+04</pdfrwt>
<totfact> 0.40394421E+00</totfact>
</mgrwt>
</event>
<event>
12    5  0.5029243E-008  0.1378648E+04  0.7818608E-02  0.8969420E-01
         -2   -1    0    0    0  501 -0.00000000000E+00  0.00000000000E+00  0.39983608002E+03  0.39983608002E+03  0.00000000000E+00 0.  1.
          1   -1    0    0  501    0  0.00000000000E+00 -0.00000000000E+00 -0.11884068022E+04  0.11884068022E+04  0.00000000000E+00 0. -1.
        -24    2    1    2    0    0  0.31162033397E+03  0.11851930610E+02  0.44351033019E+02  0.32492683634E+03  0.79766747717E+02 0.  0.
        254    2    1    2    0    0 -0.31162033397E+03 -0.11851930610E+02 -0.83292175519E+03  0.12633160459E+04  0.89719623309E+03 0.  0.
         23    2    4    4    0    0 -0.32423975649E+03  0.39259513047E+03 -0.57627383721E+03  0.77528054734E+03  0.98519213678E+02 0.  0.
         23    2    4    4    0    0  0.12619422516E+02 -0.40444706108E+03 -0.25664791798E+03  0.48803549854E+03  0.92594918783E+02 0.  0.
          1    1    3    3  502    0  0.15314282135E+02 -0.33836826286E+01 -0.15723885225E+02  0.22208491890E+02  0.00000000000E+00 0. -1.
         -2    1    3    3    0  502  0.29630605184E+03  0.15235613239E+02  0.60074918243E+02  0.30271834445E+03  0.00000000000E+00 0.  1.
         13    1    5    5    0    0 -0.18926650961E+03  0.15206656597E+03 -0.27338915813E+03  0.36563326426E+03  0.00000000000E+00 0. -1.
        -13    1    5    5    0    0 -0.13497324688E+03  0.24052856450E+03 -0.30288467908E+03  0.40964728308E+03  0.00000000000E+00 0.  1.
          1    1    6    6  503    0  0.18583773181E+02 -0.14345533368E+03 -0.43617113272E+02  0.15108686891E+03  0.00000000000E+00 0. -1.
         -1    1    6    6    0  503 -0.59643506654E+01 -0.26099172740E+03 -0.21303080471E+03  0.33694862962E+03  0.00000000000E+00 0.  1.
<mgrwt>
<rscale>  0 0.13786485E+04</rscale>
<asrwt>0</asrwt>
<pdfrwt beam="1">  1        1 0.18283181E+00 0.13786485E+04</pdfrwt>
<pdfrwt beam="2">  1       -2 0.61513244E-01 0.13786485E+04</pdfrwt>
<totfact> 0.22929465E+01</totfact>
</mgrwt>
</event>
<event>
12    5  0.5029243E-008  0.1375014E+04  0.7818608E-02  0.8972106E-01
          1   -1    0    0  501    0  0.00000000000E+00  0.00000000000E+00  0.14133395234E+04  0.14133395234E+04  0.00000000000E+00 0. -1.
         -2   -1    0    0    0  501 -0.00000000000E+00 -0.00000000000E+00 -0.33443175882E+03  0.33443175882E+03  0.00000000000E+00 0.  1.
        -24    2    1    2    0    0 -0.24721383611E+03  0.29128553590E+03  0.29450347904E+03  0.48840218746E+03  0.76435942830E+02 0.  0.
        254    2    1    2    0    0  0.24721383611E+03 -0.29128553590E+03  0.78440428555E+03  0.12593690948E+04  0.90816214932E+03 0.  0.
         23    2    4    4    0    0 -0.14087290963E+03 -0.48304196621E+03  0.26057653433E+03  0.57353413267E+03  0.88693592256E+02 0.  0.
         23    2    4    4    0    0  0.38808674574E+03  0.19175643031E+03  0.52382775123E+03  0.68583496209E+03  0.92694290496E+02 0.  0.
          1    1    3    3  502    0 -0.20019527485E+03  0.20546221246E+03  0.18404599259E+03  0.34083103763E+03  0.00000000000E+00 0. -1.
         -2    1    3    3    0  502 -0.47018561265E+02  0.85823323442E+02  0.11045748645E+03  0.14757114984E+03  0.00000000000E+00 0.  1.
         13    1    5    5    0    0 -0.50068750233E+02 -0.28268263176E+03  0.11237522342E+03  0.30829294654E+03  0.00000000000E+00 0. -1.
        -13    1    5    5    0    0 -0.90804159394E+02 -0.20035933446E+03  0.14820131090E+03  0.26524118613E+03  0.00000000000E+00 0.  1.
          2    1    6    6  503    0  0.78506770772E+01  0.23040947237E+02  0.47927928353E+02  0.53755043451E+02  0.00000000000E+00 0. -1.
         -2    1    6    6    0  503  0.38023606866E+03  0.16871548307E+03  0.47589982287E+03  0.63207991864E+03  0.00000000000E+00 0.  1.
<mgrwt>
<rscale>  0 0.13750136E+04</rscale>
<asrwt>0</asrwt>
<pdfrwt beam="1">  1        1 0.21743685E+00 0.13750136E+04</pdfrwt>
<pdfrwt beam="2">  1       -2 0.51451041E-01 0.13750136E+04</pdfrwt>
<totfact> 0.22998338E+01</totfact>
</mgrwt>
</event>
<event>
12    5  0.5029243E-008  0.1969588E+04  0.7818608E-02  0.8620973E-01
         -4   -1    0    0    0  501 -0.00000000000E+00  0.00000000000E+00  0.12115554143E+04  0.12115554143E+04  0.00000000000E+00 0.  1.
          1   -1    0    0  501    0  0.00000000000E+00 -0.00000000000E+00 -0.80047483480E+03  0.80047483480E+03  0.00000000000E+00 0. -1.
        -24    2    1    2    0    0  0.62105577789E+02 -0.21251511826E+03  0.92190327619E+03  0.95158292142E+03  0.81145717103E+02 0.  0.
        254    2    1    2    0    0 -0.62105577789E+02  0.21251511826E+03 -0.51082269673E+03  0.10604473276E+04  0.90254580435E+03 0.  0.
         23    2    4    4    0    0 -0.14363206898E+03 -0.28360030714E+02  0.22124233698E+03  0.28015845637E+03  0.90034029252E+02 0.  0.
         23    2    4    4    0    0  0.81526491191E+02  0.24087514897E+03 -0.73206503371E+03  0.78028887128E+03  0.90907111419E+02 0.  0.
          1    1    3    3  502    0  0.31019433291E+01 -0.24190162789E+01 -0.26808795866E+00  0.39427862392E+01  0.00000000000E+00 0. -1.
         -2    1    3    3    0  502  0.59003634460E+02 -0.21009610198E+03  0.92217136415E+03  0.94764013518E+03  0.00000000000E+00 0.  1.
         13    1    5    5    0    0 -0.39544639793E+02  0.22931857516E+02  0.11123910813E+03  0.12026548883E+03  0.00000000000E+00 0.  1.
        -13    1    5    5    0    0 -0.10408742919E+03 -0.51291888230E+02  0.11000322885E+03  0.15989296755E+03  0.00000000000E+00 0. -1.
          1    1    6    6  503    0  0.16611915544E+02  0.14604269875E+03 -0.31371640927E+03  0.34644250755E+03  0.00000000000E+00 0. -1.
         -1    1    6    6    0  503  0.64914575647E+02  0.94832450218E+02 -0.41834862444E+03  0.43384636372E+03  0.00000000000E+00 0.  1.
<mgrwt>
<rscale>  0 0.19695884E+04</rscale>
<asrwt>0</asrwt>
<pdfrwt beam="1">  1        1 0.12314997E+00 0.19695884E+04</pdfrwt>
<pdfrwt beam="2">  1       -4 0.18639314E+00 0.19695884E+04</pdfrwt>
<totfact> 0.16077142E+00</totfact>
</mgrwt>
</event>
<event>
12    5  0.5029243E-008  0.1867213E+04  0.7818608E-02  0.8671351E-01
         -2   -1    0    0    0  501 -0.00000000000E+00  0.00000000000E+00  0.98680004281E+03  0.98680004281E+03  0.00000000000E+00 0.  1.
          1   -1    0    0  501    0  0.00000000000E+00 -0.00000000000E+00 -0.88328017391E+03  0.88328017391E+03  0.00000000000E+00 0. -1.
        -24    2    1    2    0    0  0.20368255308E+03 -0.67661249798E+03  0.81694228656E+02  0.71574692114E+03  0.79552833175E+02 0.  0.
        254    2    1    2    0    0 -0.20368255308E+03  0.67661249798E+03  0.21825640239E+02  0.11543332956E+04  0.91253380423E+03 0.  0.
         23    2    4    4    0    0 -0.50465495851E+03  0.18608248239E+03 -0.11031411177E+03  0.55690024411E+03  0.93087922014E+02 0.  0.
         23    2    4    4    0    0  0.30097240543E+03  0.49053001559E+03  0.13213975201E+03  0.59743305147E+03  0.90891429218E+02 0.  0.
          3    1    3    3  502    0  0.37642652758E+02 -0.55347810620E+02 -0.36692333028E+01  0.67035906200E+02  0.00000000000E+00 0. -1.
         -4    1    3    3    0  502  0.16603990032E+03 -0.62126468736E+03  0.85363461959E+02  0.64871101494E+03  0.00000000000E+00 0.  1.
         13    1    5    5    0    0 -0.47403110575E+03  0.14717936375E+03 -0.10003791605E+03  0.50633471042E+03  0.00000000000E+00 0. -1.
        -13    1    5    5    0    0 -0.30623852767E+02  0.38903118644E+02 -0.10276195718E+02  0.50565533686E+02  0.00000000000E+00 0.  1.
          3    1    6    6  503    0  0.21305448254E+03  0.26145808143E+03  0.76788047295E+02  0.34590308626E+03  0.00000000000E+00 0. -1.
         -3    1    6    6    0  503  0.87917922886E+02  0.22907193416E+03  0.55351704714E+02  0.25152996522E+03  0.00000000000E+00 0.  1.
<mgrwt>
<rscale>  0 0.18672128E+04</rscale>
<asrwt>0</asrwt>
<pdfrwt beam="1">  1        1 0.13588926E+00 0.18672128E+04</pdfrwt>
<pdfrwt beam="2">  1       -2 0.15181539E+00 0.18672128E+04</pdfrwt>
<totfact> 0.44803929E+00</totfact>
</mgrwt>
</event>
<event>
12    5  0.5029243E-008  0.1688686E+04  0.7818608E-02  0.8767844E-01
         -2   -1    0    0    0  501 -0.00000000000E+00  0.00000000000E+00  0.58335261570E+03  0.58335261570E+03  0.00000000000E+00 0.  1.
          1   -1    0    0  501    0  0.00000000000E+00 -0.00000000000E+00 -0.12220998720E+04  0.12220998720E+04  0.00000000000E+00 0. -1.
        -24    2    1    2    0    0 -0.32725839850E+03  0.29066521027E+03  0.21001013310E+03  0.49173993469E+03  0.78227766932E+02 0.  0.
        254    2    1    2    0    0  0.32725839850E+03 -0.29066521027E+03 -0.84875738940E+03  0.13137125530E+04  0.90214590951E+03 0.  0.
         23    2    4    4    0    0  0.24077529948E+03 -0.36165763613E+03 -0.10067094218E+04  0.11001899950E+04  0.90471953751E+02 0.  0.
         23    2    4    4    0    0  0.86483099019E+02  0.70992425863E+02  0.15795203244E+03  0.21352255804E+03  0.90132054761E+02 0.  0.
          3    1    3    3  502    0 -0.11809951352E+03  0.13228766998E+03  0.49246217471E+02  0.18404540923E+03  0.00000000000E+00 0. -1.
         -4    1    3    3    0  502 -0.20915888498E+03  0.15837754029E+03  0.16076391563E+03  0.30769452547E+03  0.00000000000E+00 0.  1.
         13    1    5    5    0    0  0.59140898642E+02 -0.15710750514E+03 -0.32897595110E+03  0.36933127469E+03  0.00000000000E+00 0.  1.
        -13    1    5    5    0    0  0.18163440084E+03 -0.20455013099E+03 -0.67773347073E+03  0.73085872028E+03  0.00000000000E+00 0. -1.
          3    1    6    6  503    0  0.96852112283E+02  0.35552122480E+02  0.13549764150E+03  0.17030530208E+03  0.00000000000E+00 0. -1.
         -3    1    6    6    0  503 -0.10369013265E+02  0.35440303383E+02  0.22454390941E+02  0.43217255957E+02  0.00000000000E+00 0.  1.
<mgrwt>
<rscale>  0 0.16886861E+04</rscale>
<asrwt>0</asrwt>
<pdfrwt beam="1">  1        1 0.18801536E+00 0.16886861E+04</pdfrwt>
<pdfrwt beam="2">  1       -2 0.89746557E-01 0.16886861E+04</pdfrwt>
<totfact> 0.91502204E+00</totfact>
</mgrwt>
</event>
<event>
12    5  0.5029243E-008  0.2234692E+04  0.7818608E-02  0.8504126E-01
         -2   -1    0    0    0  501 -0.00000000000E+00  0.00000000000E+00  0.16347189995E+04  0.16347189995E+04  0.00000000000E+00 0.  1.
          1   -1    0    0  501    0  0.00000000000E+00 -0.00000000000E+00 -0.76371658999E+03  0.76371658999E+03  0.00000000000E+00 0. -1.
        -24    2    1    2    0    0 -0.19959649661E+03  0.39837921013E+03 -0.51660201688E+03  0.68675187760E+03  0.78776525792E+02 0.  0.
        254    2    1    2    0    0  0.19959649661E+03 -0.39837921013E+03  0.13876044263E+04  0.17116837118E+04  0.89770280654E+03 0.  0.
         23    2    4    4    0    0  0.35002229395E+03  0.51828716666E+02  0.17118153920E+03  0.40277430071E+03  0.87876025270E+02 0.  0.
         23    2    4    4    0    0 -0.15042579734E+03 -0.45020792680E+03  0.12164228871E+04  0.13089094111E+04  0.90797072239E+02 0.  0.
          1    1    3    3  502    0 -0.16534485239E+03  0.27714968916E+03 -0.40963085296E+03  0.52148663081E+03  0.00000000000E+00 0. -1.
         -2    1    3    3    0  502 -0.34251644220E+02  0.12122952097E+03 -0.10697116392E+03  0.16526524679E+03  0.00000000000E+00 0.  1.
         13    1    5    5    0    0  0.87910731841E+02 -0.22679341246E+02  0.57831642660E+02  0.10764361655E+03  0.00000000000E+00 0. -1.
        -13    1    5    5    0    0  0.26211156211E+03  0.74508057912E+02  0.11334989654E+03  0.29513068416E+03  0.00000000000E+00 0.  1.
          3    1    6    6  503    0 -0.26262372801E+02 -0.16844308100E+03  0.34795169133E+03  0.38747020951E+03  0.00000000000E+00 0. -1.
         -3    1    6    6    0  503 -0.12416342454E+03 -0.28176484580E+03  0.86847119582E+03  0.92143920163E+03  0.00000000000E+00 0.  1.
<mgrwt>
<rscale>  0 0.22346919E+04</rscale>
<asrwt>0</asrwt>
<pdfrwt beam="1">  1        1 0.11749486E+00 0.22346919E+04</pdfrwt>
<pdfrwt beam="2">  1       -2 0.25149523E+00 0.22346919E+04</pdfrwt>
<totfact> 0.11929350E+00</totfact>
</mgrwt>
</event>
<event>
12    5  0.5029243E-008  0.1335398E+04  0.7818608E-02  0.9001956E-01
          1   -1    0    0  501    0  0.00000000000E+00  0.00000000000E+00  0.11515892401E+04  0.11515892401E+04  0.00000000000E+00 0. -1.
         -2   -1    0    0    0  501 -0.00000000000E+00 -0.00000000000E+00 -0.38713627575E+03  0.38713627575E+03  0.00000000000E+00 0.  1.
        -24    2    1    2    0    0  0.19275382296E+03  0.27585623307E+03  0.35039772364E+03  0.49237354082E+03  0.80015257147E+02 0.  0.
        254    2    1    2    0    0 -0.19275382296E+03 -0.27585623307E+03  0.41405524072E+03  0.10463519750E+04  0.90008889323E+03 0.  0.
         23    2    4    4    0    0 -0.19543770033E+03 -0.45022014279E+03 -0.87834024554E+02  0.50692971486E+03  0.91481409313E+02 0.  0.
         23    2    4    4    0    0  0.26838773720E+01  0.17436390972E+03  0.50188926527E+03  0.53942226018E+03  0.93131970728E+02 0.  0.
          1    1    3    3  502    0  0.17570641622E+03  0.27782570491E+03  0.33173824095E+03  0.46702261992E+03  0.00000000000E+00 0. -1.
         -2    1    3    3    0  502  0.17047406745E+02 -0.19694718426E+01  0.18659482688E+02  0.25350920895E+02  0.00000000000E+00 0.  1.
         13    1    5    5    0    0 -0.52402571067E+02 -0.12682805439E+03 -0.66985003588E+02  0.15270355445E+03  0.00000000000E+00 0.  1.
        -13    1    5    5    0    0 -0.14303512927E+03 -0.32339208840E+03 -0.20849020966E+02  0.35422616041E+03  0.00000000000E+00 0. -1.
          4    1    6    6  503    0 -0.19787227759E+02  0.17409823809E+03  0.44589171370E+03  0.47908365787E+03  0.00000000000E+00 0. -1.
         -4    1    6    6    0  503  0.22471105131E+02  0.26567163349E+00  0.55997551573E+02  0.60338602316E+02  0.00000000000E+00 0.  1.
<mgrwt>
<rscale>  0 0.13353980E+04</rscale>
<asrwt>0</asrwt>
<pdfrwt beam="1">  1        1 0.17716757E+00 0.13353980E+04</pdfrwt>
<pdfrwt beam="2">  1       -2 0.59559428E-01 0.13353980E+04</pdfrwt>
<totfact> 0.26224883E+01</totfact>
</mgrwt>
</event>
<event>
12    5  0.5029243E-008  0.2064098E+04  0.7818608E-02  0.8577225E-01
         -2   -1    0    0    0  501 -0.00000000000E+00  0.00000000000E+00  0.59658446535E+03  0.59658446535E+03  0.00000000000E+00 0.  1.
          1   -1    0    0  501    0  0.00000000000E+00 -0.00000000000E+00 -0.17853726169E+04  0.17853726169E+04  0.00000000000E+00 0. -1.
        -24    2    1    2    0    0  0.40519013509E+03 -0.21108422662E+02 -0.13325245466E+04  0.13951627595E+04  0.78948381839E+02 0.  0.
        254    2    1    2    0    0 -0.40519013509E+03  0.21108422662E+02  0.14373639501E+03  0.98679432283E+03  0.88796299092E+03 0.  0.
         23    2    4    4    0    0 -0.15292367838E+03  0.32886296503E+03 -0.22528757238E+03  0.43643598667E+03  0.90473084455E+02 0.  0.
         23    2    4    4    0    0 -0.25226645671E+03 -0.30775454237E+03  0.36902396739E+03  0.55035833616E+03  0.91457018033E+02 0.  0.
          3    1    3    3  502    0  0.24573939960E+03 -0.43202893993E+02 -0.72786733050E+03  0.76944473056E+03  0.00000000000E+00 0. -1.
         -2    1    3    3    0  502  0.15945073549E+03  0.22094471331E+02 -0.60465721609E+03  0.62571802889E+03  0.00000000000E+00 0.  1.
         13    1    5    5    0    0 -0.10570072354E+02 -0.42463435265E+01 -0.90924911410E+01  0.14575021717E+02  0.00000000000E+00 0. -1.
        -13    1    5    5    0    0 -0.14235360603E+03  0.33310930856E+03 -0.21619508124E+03  0.42186096495E+03  0.00000000000E+00 0.  1.
          4    1    6    6  503    0 -0.21560832593E+03 -0.20552904992E+03  0.24657397688E+03  0.38668833270E+03  0.00000000000E+00 0.  1.
         -4    1    6    6    0  503 -0.36658130781E+02 -0.10222549245E+03  0.12244999051E+03  0.16367000346E+03  0.00000000000E+00 0. -1.
<mgrwt>
<rscale>  0 0.20640984E+04</rscale>
<asrwt>0</asrwt>
<pdfrwt beam="1">  1        1 0.27467271E+00 0.20640984E+04</pdfrwt>
<pdfrwt beam="2">  1       -2 0.91782225E-01 0.20640984E+04</pdfrwt>
<totfact> 0.34101515E+00</totfact>
</mgrwt>
</event>
<event>
12    5  0.5029243E-008  0.1201048E+04  0.7818608E-02  0.9111940E-01
         -2   -1    0    0    0  501 -0.00000000000E+00  0.00000000000E+00  0.33197718588E+03  0.33197718588E+03  0.00000000000E+00 0.  1.
          1   -1    0    0  501    0  0.00000000000E+00 -0.00000000000E+00 -0.10863066863E+04  0.10863066863E+04  0.00000000000E+00 0. -1.
        -24    2    1    2    0    0 -0.12048596988E+03  0.17886254842E+03 -0.32893484219E+03  0.40152773905E+03  0.80732364354E+02 0.  0.
        254    2    1    2    0    0  0.12048596988E+03 -0.17886254842E+03 -0.42539465828E+03  0.10167561332E+04  0.89795531007E+03 0.  0.
         23    2    4    4    0    0 -0.24979520169E+03 -0.85765290995E+02 -0.53924793294E+03  0.60768038330E+03  0.93454733104E+02 0.  0.
         23    2    4    4    0    0  0.37028117157E+03 -0.93097257427E+02  0.11385327466E+03  0.40907574987E+03  0.92763978068E+02 0.  0.
          3    1    3    3  502    0 -0.13108018243E+03  0.15954118471E+03 -0.31001469224E+03  0.37248424564E+03  0.00000000000E+00 0. -1.
         -4    1    3    3    0  502  0.10594212553E+02  0.19321363715E+02 -0.18920149949E+02  0.29043493410E+02  0.00000000000E+00 0.  1.
         13    1    5    5    0    0 -0.21504655204E+03 -0.49331981938E+02 -0.48938310127E+03  0.53681885566E+03  0.00000000000E+00 0.  1.
        -13    1    5    5    0    0 -0.34748649649E+02 -0.36433309057E+02 -0.49864831664E+02  0.70861527631E+02  0.00000000000E+00 0. -1.
          3    1    6    6  503    0  0.88077401545E+02  0.14233426172E+02  0.99543410918E+01  0.89773648639E+02  0.00000000000E+00 0. -1.
         -3    1    6    6    0  503  0.28220377002E+03 -0.10733068360E+03  0.10389893357E+03  0.31930210123E+03  0.00000000000E+00 0.  1.
<mgrwt>
<rscale>  0 0.12010479E+04</rscale>
<asrwt>0</asrwt>
<pdfrwt beam="1">  1        1 0.16712411E+00 0.12010479E+04</pdfrwt>
<pdfrwt beam="2">  1       -2 0.51073413E-01 0.12010479E+04</pdfrwt>
<totfact> 0.40820373E+01</totfact>
</mgrwt>
</event>
<event>
12    5  0.5029243E-008  0.2970069E+04  0.7818608E-02  0.8252330E-01
         -2   -1    0    0    0  501 -0.00000000000E+00  0.00000000000E+00  0.80701686287E+03  0.80701686287E+03  0.00000000000E+00 0.  1.
          1   -1    0    0  501    0  0.00000000000E+00 -0.00000000000E+00 -0.27326909528E+04  0.27326909528E+04  0.00000000000E+00 0. -1.
        -24    2    1    2    0    0  0.93494322373E+03 -0.93215898023E+03 -0.11994714738E+04  0.17856779959E+04  0.82914971948E+02 0.  0.
        254    2    1    2    0    0 -0.93494322373E+03  0.93215898023E+03 -0.72620261608E+03  0.17540298197E+04  0.89789262880E+03 0.  0.
         23    2    4    4    0    0  0.99803167702E+02  0.21990953880E+02  0.77021479134E+02  0.15623935646E+03  0.89633441987E+02 0.  0.
         23    2    4    4    0    0 -0.10347463914E+04  0.91016802635E+03 -0.80322409522E+03  0.15977904633E+04  0.93056362518E+02 0.  0.
          1    1    3    3  502    0  0.59119912413E+03 -0.64331389670E+03 -0.77980369193E+03  0.11710947750E+04  0.00000000000E+00 0. -1.
         -2    1    3    3    0  502  0.34374409961E+03 -0.28884508353E+03 -0.41966778189E+03  0.61458322093E+03  0.00000000000E+00 0.  1.
         13    1    5    5    0    0  0.53684488118E+02  0.56090360491E+02  0.53278041734E+02  0.94163169740E+02  0.00000000000E+00 0.  1.
        -13    1    5    5    0    0  0.46118679584E+02 -0.34099406611E+02  0.23743437400E+02  0.62076186717E+02  0.00000000000E+00 0. -1.
          1    1    6    6  503    0 -0.16714803806E+02  0.26242282533E+02 -0.31706642081E+02  0.44422440398E+02  0.00000000000E+00 0. -1.
         -1    1    6    6    0  503 -0.10180315876E+04  0.88392574381E+03 -0.77151745314E+03  0.15533680229E+04  0.00000000000E+00 0.  1.
<mgrwt>
<rscale>  0 0.29700691E+04</rscale>
<asrwt>0</asrwt>
<pdfrwt beam="1">  1        1 0.42041400E+00 0.29700691E+04</pdfrwt>
<pdfrwt beam="2">  1       -2 0.12415644E+00 0.29700691E+04</pdfrwt>
<totfact> 0.34052462E-01</totfact>
</mgrwt>
</event>
<event>
12    5  0.5029243E-008  0.2163500E+04  0.7818608E-02  0.8533775E-01
         -2   -1    0    0    0  501 -0.00000000000E+00  0.00000000000E+00  0.11589754147E+04  0.11589754147E+04  0.00000000000E+00 0.  1.
          1   -1    0    0  501    0  0.00000000000E+00 -0.00000000000E+00 -0.10096706203E+04  0.10096706203E+04  0.00000000000E+00 0. -1.
        -24    2    1    2    0    0 -0.49353951966E+03 -0.74008585559E+03  0.48258040296E+02  0.89446229173E+03  0.80159975997E+02 0.  0.
        254    2    1    2    0    0  0.49353951966E+03  0.74008585559E+03  0.10104675410E+03  0.12741837433E+04  0.90665618289E+03 0.  0.
         23    2    4    4    0    0  0.51336530118E+03  0.60258705153E+03  0.43025824810E+03  0.90557957676E+03  0.91088543015E+02 0.  0.
         23    2    4    4    0    0 -0.19825781518E+02  0.13749880406E+03 -0.32921149400E+03  0.36860416651E+03  0.90497740589E+02 0.  0.
          1    1    3    3  502    0 -0.22492099957E+03 -0.35006364162E+03 -0.16838167240E+02  0.41643430827E+03  0.00000000000E+00 0. -1.
         -2    1    3    3    0  502 -0.26861852009E+03 -0.39002221397E+03  0.65096207535E+02  0.47802798345E+03  0.00000000000E+00 0.  1.
         13    1    5    5    0    0  0.33107382490E+03  0.36257600066E+03  0.31249387041E+03  0.58199970175E+03  0.00000000000E+00 0. -1.
        -13    1    5    5    0    0  0.18229147628E+03  0.24001105087E+03  0.11776437768E+03  0.32357987501E+03  0.00000000000E+00 0.  1.
          3    1    6    6  503    0 -0.74089772710E+01 -0.12800912944E+02 -0.24606842790E+02  0.28709807183E+02  0.00000000000E+00 0. -1.
         -3    1    6    6    0  503 -0.12416804247E+02  0.15029971701E+03 -0.30460465121E+03  0.33989435932E+03  0.00000000000E+00 0.  1.
<mgrwt>
<rscale>  0 0.21635003E+04</rscale>
<asrwt>0</asrwt>
<pdfrwt beam="1">  1        1 0.15533394E+00 0.21635003E+04</pdfrwt>
<pdfrwt beam="2">  1       -2 0.17830391E+00 0.21635003E+04</pdfrwt>
<totfact> 0.22213271E+00</totfact>
</mgrwt>
</event>
<event>
12    5  0.5029243E-008  0.1461199E+04  0.7818608E-02  0.8910673E-01
          1   -1    0    0  501    0  0.00000000000E+00  0.00000000000E+00  0.26450040278E+04  0.26450040278E+04  0.00000000000E+00 0. -1.
         -2   -1    0    0    0  501 -0.00000000000E+00 -0.00000000000E+00 -0.20180531516E+03  0.20180531516E+03  0.00000000000E+00 0.  1.
        -24    2    1    2    0    0 -0.25569581099E+03 -0.31863234826E+03  0.10974101274E+04  0.11735681041E+04  0.77757226294E+02 0.  0.
        254    2    1    2    0    0  0.25569581099E+03  0.31863234826E+03  0.13457885852E+04  0.16732412388E+04  0.90646699111E+03 0.  0.
         23    2    4    4    0    0 -0.13159535546E+02 -0.29311285009E+03  0.30272960369E+03  0.43111115602E+03  0.90129349417E+02 0.  0.
         23    2    4    4    0    0  0.26885534653E+03  0.61174519835E+03  0.10430589815E+04  0.12421300828E+04  0.91649978235E+02 0.  0.
          3    1    3    3  502    0 -0.10114399758E+03 -0.93341003725E+02  0.45806341511E+03  0.47829357458E+03  0.00000000000E+00 0. -1.
         -4    1    3    3    0  502 -0.15455181341E+03 -0.22529134453E+03  0.63934671228E+03  0.69527452956E+03  0.00000000000E+00 0.  1.
         13    1    5    5    0    0  0.20660899623E+02 -0.11738740238E+03  0.72483804127E+02  0.13950117157E+03  0.00000000000E+00 0. -1.
        -13    1    5    5    0    0 -0.33820435168E+02 -0.17572544772E+03  0.23024579956E+03  0.29160998444E+03  0.00000000000E+00 0.  1.
          2    1    6    6  503    0  0.13451541454E+02  0.94877285487E+02  0.18552157654E+03  0.20880828200E+03  0.00000000000E+00 0. -1.
         -2    1    6    6    0  503  0.25540380508E+03  0.51686791287E+03  0.85753740497E+03  0.10333218008E+04  0.00000000000E+00 0.  1.
<mgrwt>
<rscale>  0 0.14611993E+04</rscale>
<asrwt>0</asrwt>
<pdfrwt beam="1">  1        1 0.40692367E+00 0.14611993E+04</pdfrwt>
<pdfrwt beam="2">  1       -2 0.31046973E-01 0.14611993E+04</pdfrwt>
<totfact> 0.88258784E+00</totfact>
</mgrwt>
</event>
<event>
12    5  0.5029243E-008  0.1744061E+04  0.7818608E-02  0.8736626E-01
          1   -1    0    0  501    0  0.00000000000E+00  0.00000000000E+00  0.12645976459E+04  0.12645976459E+04  0.00000000000E+00 0. -1.
         -2   -1    0    0    0  501 -0.00000000000E+00 -0.00000000000E+00 -0.60132752912E+03  0.60132752912E+03  0.00000000000E+00 0.  1.
        -24    2    1    2    0    0 -0.25225610175E+03  0.56671499129E+03  0.34369847318E+03  0.71393644696E+03  0.82326105354E+02 0.  0.
        254    2    1    2    0    0  0.25225610175E+03 -0.56671499129E+03  0.31957164361E+03  0.11519887281E+04  0.91659858823E+03 0.  0.
         23    2    4    4    0    0  0.52475354018E+03 -0.59780052964E+03  0.14297913088E+03  0.81317392610E+03  0.89872415386E+02 0.  0.
         23    2    4    4    0    0 -0.27249743843E+03  0.31085538357E+02  0.17659251273E+03  0.33881480196E+03  0.91593612364E+02 0.  0.
          3    1    3    3  502    0 -0.21376125541E+03  0.50247581491E+03  0.27115806458E+03  0.60967410546E+03  0.00000000000E+00 0. -1.
         -4    1    3    3    0  502 -0.38494846339E+02  0.64239176371E+02  0.72540408595E+02  0.10426234150E+03  0.00000000000E+00 0.  1.
         13    1    5    5    0    0  0.37414318428E+03 -0.36535803005E+03  0.10830515697E+03  0.53404084066E+03  0.00000000000E+00 0.  1.
        -13    1    5    5    0    0  0.15061035590E+03 -0.23244249959E+03  0.34673973909E+02  0.27913308544E+03  0.00000000000E+00 0. -1.
          2    1    6    6  503    0 -0.86168400328E+02 -0.32139363777E+02  0.64893088809E+02  0.11255685183E+03  0.00000000000E+00 0.  1.
         -2    1    6    6    0  503 -0.18632903810E+03  0.63224902134E+02  0.11169942392E+03  0.22625795012E+03  0.00000000000E+00 0. -1.
<mgrwt>
<rscale>  0 0.17440612E+04</rscale>
<asrwt>0</asrwt>
<pdfrwt beam="1">  1        1 0.19455348E+00 0.17440612E+04</pdfrwt>
<pdfrwt beam="2">  1       -2 0.92511928E-01 0.17440612E+04</pdfrwt>
<totfact> 0.79092621E+00</totfact>
</mgrwt>
</event>
<event>
12    5  0.5029243E-008  0.2100745E+04  0.7818608E-02  0.8560915E-01
          1   -1    0    0  501    0  0.00000000000E+00  0.00000000000E+00  0.11752250489E+04  0.11752250489E+04  0.00000000000E+00 0. -1.
         -2   -1    0    0    0  501 -0.00000000000E+00 -0.00000000000E+00 -0.93878408231E+03  0.93878408231E+03  0.00000000000E+00 0.  1.
        -24    2    1    2    0    0 -0.55990820480E+03  0.25619560439E+03 -0.50035386693E+03  0.79743184558E+03  0.80063541572E+02 0.  0.
        254    2    1    2    0    0  0.55990820480E+03 -0.25619560439E+03  0.73679483352E+03  0.13165772856E+04  0.90076397398E+03 0.  0.
         23    2    4    4    0    0  0.32274948866E+03 -0.12395934732E+03 -0.14606858058E+03  0.38822901428E+03  0.99260188779E+02 0.  0.
         23    2    4    4    0    0  0.23715871613E+03 -0.13223625707E+03  0.88286341410E+03  0.92834827134E+03  0.93016238513E+02 0.  0.
          1    1    3    3  502    0 -0.18112298746E+03  0.96245044372E+02 -0.21368194944E+03  0.29619017653E+03  0.00000000000E+00 0. -1.
         -2    1    3    3    0  502 -0.37878521733E+03  0.15995056002E+03 -0.28667191748E+03  0.50124166905E+03  0.00000000000E+00 0.  1.
         13    1    5    5    0    0  0.68035125580E+02 -0.71974371851E+02 -0.29626080507E+02  0.10337694696E+03  0.00000000000E+00 0.  1.
        -13    1    5    5    0    0  0.25471436308E+03 -0.51984975470E+02 -0.11644250007E+03  0.28485206732E+03  0.00000000000E+00 0. -1.
          1    1    6    6  503    0  0.18332824432E+03 -0.13770550682E+03  0.64914568188E+03  0.68844910348E+03  0.00000000000E+00 0. -1.
         -1    1    6    6    0  503  0.53830471815E+02  0.54692497562E+01  0.23371773222E+03  0.23989916786E+03  0.00000000000E+00 0.  1.
<mgrwt>
<rscale>  0 0.21007452E+04</rscale>
<asrwt>0</asrwt>
<pdfrwt beam="1">  1        1 0.18080385E+00 0.21007452E+04</pdfrwt>
<pdfrwt beam="2">  1       -2 0.14442832E+00 0.21007452E+04</pdfrwt>
<totfact> 0.29761006E+00</totfact>
</mgrwt>
</event>
<event>
12    5  0.5029243E-008  0.1753623E+04  0.7818608E-02  0.8731358E-01
         -2   -1    0    0    0  501 -0.00000000000E+00  0.00000000000E+00  0.45366044519E+03  0.45366044519E+03  0.00000000000E+00 0.  1.
          1   -1    0    0  501    0  0.00000000000E+00 -0.00000000000E+00 -0.16946569222E+04  0.16946569222E+04  0.00000000000E+00 0. -1.
        -24    2    1    2    0    0  0.30766477635E+03 -0.89513787770E+02 -0.11499783745E+04  0.11966022704E+04  0.82075568843E+02 0.  0.
        254    2    1    2    0    0 -0.30766477635E+03  0.89513787770E+02 -0.91018102575E+02  0.95171509701E+03  0.89151948833E+03 0.  0.
         23    2    4    4    0    0 -0.33670422268E+03  0.10580906659E+03  0.34720307309E+03  0.50345213830E+03  0.91371710333E+02 0.  0.
         23    2    4    4    0    0  0.29039446334E+02 -0.16295278817E+02 -0.43822117566E+03  0.44826295871E+03  0.88278286116E+02 0.  0.
          1    1    3    3  502    0  0.23619934583E+03 -0.93789418894E+02 -0.97420937495E+03  0.10068120442E+04  0.00000000000E+00 0. -1.
         -2    1    3    3    0  502  0.71465430519E+02  0.42756311240E+01 -0.17576899952E+03  0.18979022623E+03  0.00000000000E+00 0.  1.
         13    1    5    5    0    0 -0.48727541138E+02 -0.11508658972E+02  0.75056761435E+02  0.90223832404E+02  0.00000000000E+00 0. -1.
        -13    1    5    5    0    0 -0.28797668154E+03  0.11731772556E+03  0.27214631165E+03  0.41322830589E+03  0.00000000000E+00 0.  1.
          4    1    6    6  503    0  0.40023310360E+02  0.23569211971E+01 -0.80928999737E+02  0.90315687719E+02  0.00000000000E+00 0. -1.
         -4    1    6    6    0  503 -0.10983864026E+02 -0.18652200014E+02 -0.35729217593E+03  0.35794727099E+03  0.00000000000E+00 0.  1.
<mgrwt>
<rscale>  0 0.17536235E+04</rscale>
<asrwt>0</asrwt>
<pdfrwt beam="1">  1        1 0.26071645E+00 0.17536235E+04</pdfrwt>
<pdfrwt beam="2">  1       -2 0.69793914E-01 0.17536235E+04</pdfrwt>
<totfact> 0.74771806E+00</totfact>
</mgrwt>
</event>
<event>
12    5  0.5029243E-008  0.3582138E+04  0.7818608E-02  0.8094595E-01
         -2   -1    0    0    0  501 -0.00000000000E+00  0.00000000000E+00  0.36283991055E+04  0.36283991055E+04  0.00000000000E+00 0.  1.
          1   -1    0    0  501    0  0.00000000000E+00 -0.00000000000E+00 -0.88411686962E+03  0.88411686962E+03  0.00000000000E+00 0. -1.
        -24    2    1    2    0    0  0.73689654832E+03  0.51548919483E+03 -0.49728677777E+03  0.10307433493E+04  0.79950483844E+02 0.  0.
        254    2    1    2    0    0 -0.73689654832E+03 -0.51548919483E+03  0.32415690136E+04  0.34817726258E+04  0.89790050377E+03 0.  0.
         23    2    4    4    0    0 -0.18162699686E+03 -0.43401318666E+03  0.25089218443E+04  0.25544139695E+04  0.94795014818E+02 0.  0.
         23    2    4    4    0    0 -0.55526955145E+03 -0.81476008169E+02  0.73264716934E+03  0.92735865625E+03  0.90882274966E+02 0.  0.
          3    1    3    3  502    0  0.28308076325E+03  0.22756963929E+03 -0.16554567519E+03  0.39915915351E+03  0.00000000000E+00 0. -1.
         -4    1    3    3    0  502  0.45381578506E+03  0.28791955553E+03 -0.33174110258E+03  0.63158419579E+03  0.00000000000E+00 0.  1.
         13    1    5    5    0    0 -0.31551463051E+02 -0.97070337602E+02  0.77507070724E+03  0.78176258959E+03  0.00000000000E+00 0. -1.
        -13    1    5    5    0    0 -0.15007553381E+03 -0.33694284906E+03  0.17338511371E+04  0.17726513800E+04  0.00000000000E+00 0.  1.
          4    1    6    6  503    0 -0.20326187675E+03 -0.74207169910E+02  0.27238312810E+03  0.34787161867E+03  0.00000000000E+00 0. -1.
         -4    1    6    6    0  503 -0.35200767471E+03 -0.72688382587E+01  0.46026404124E+03  0.57948703758E+03  0.00000000000E+00 0.  1.
<mgrwt>
<rscale>  0 0.35821384E+04</rscale>
<asrwt>0</asrwt>
<pdfrwt beam="1">  1        1 0.13601798E+00 0.35821384E+04</pdfrwt>
<pdfrwt beam="2">  1       -2 0.55821524E+00 0.35821384E+04</pdfrwt>
<totfact> 0.10311431E-02</totfact>
</mgrwt>
</event>
<event>
12    5  0.5029243E-008  0.1391233E+04  0.7818608E-02  0.8960189E-01
         -2   -1    0    0    0  501 -0.00000000000E+00  0.00000000000E+00  0.61414374909E+03  0.61414374909E+03  0.00000000000E+00 0.  1.
          1   -1    0    0  501    0  0.00000000000E+00 -0.00000000000E+00 -0.78789758475E+03  0.78789758475E+03  0.00000000000E+00 0. -1.
        -24    2    1    2    0    0 -0.12762731893E+03  0.36435682341E+03  0.98371870048E+01  0.39440188205E+03  0.80071511840E+02 0.  0.
        254    2    1    2    0    0  0.12762731893E+03 -0.36435682341E+03 -0.18359102267E+03  0.10076394518E+04  0.91246203971E+03 0.  0.
         23    2    4    4    0    0 -0.21045961246E+03 -0.48632343185E+03  0.92212925949E+02  0.54567767601E+03  0.91962892199E+02 0.  0.
         23    2    4    4    0    0  0.33808693139E+03  0.12196660844E+03 -0.27580394862E+03  0.46196177578E+03  0.90345102016E+02 0.  0.
          1    1    3    3  502    0 -0.12184654687E+03  0.29081813647E+03 -0.17341453014E+02  0.31578868802E+03  0.00000000000E+00 0. -1.
         -2    1    3    3    0  502 -0.57807720607E+01  0.73538686937E+02  0.27178640018E+02  0.78613194028E+02  0.00000000000E+00 0.  1.
         13    1    5    5    0    0 -0.12771432585E+03 -0.18531358150E+03  0.25997562412E+02  0.22655671644E+03  0.00000000000E+00 0.  1.
        -13    1    5    5    0    0 -0.82745286604E+02 -0.30100985036E+03  0.66215363538E+02  0.31912095957E+03  0.00000000000E+00 0. -1.
          2    1    6    6  503    0 -0.55204263270E+01  0.45915297209E+01 -0.82170677457E+01  0.10912261651E+02  0.00000000000E+00 0.  1.
         -2    1    6    6    0  503  0.34360735772E+03  0.11737507872E+03 -0.26758688087E+03  0.45104951413E+03  0.00000000000E+00 0. -1.
<mgrwt>
<rscale>  0 0.13912331E+04</rscale>
<asrwt>0</asrwt>
<pdfrwt beam="1">  1        1 0.12121501E+00 0.13912331E+04</pdfrwt>
<pdfrwt beam="2">  1       -2 0.94483654E-01 0.13912331E+04</pdfrwt>
<totfact> 0.18281810E+01</totfact>
</mgrwt>
</event>
<event>
12    5  0.5029243E-008  0.1081891E+04  0.7818608E-02  0.9223024E-01
         -2   -1    0    0    0  501 -0.00000000000E+00  0.00000000000E+00  0.28070265397E+03  0.28070265397E+03  0.00000000000E+00 0.  1.
          1   -1    0    0  501    0  0.00000000000E+00 -0.00000000000E+00 -0.10424632338E+04  0.10424632338E+04  0.00000000000E+00 0. -1.
        -24    2    1    2    0    0 -0.13451170989E+03 -0.65250304002E+00 -0.35406434142E+02  0.16037840119E+03  0.79836020257E+02 0.  0.
        254    2    1    2    0    0  0.13451170989E+03  0.65250304002E+00 -0.72635414573E+03  0.11627874866E+04  0.89799252123E+03 0.  0.
         23    2    4    4    0    0 -0.35620388943E+03  0.33089437587E+02 -0.48029317971E+03  0.60526159731E+03  0.87658091395E+02 0.  0.
         23    2    4    4    0    0  0.49071559932E+03 -0.32436934546E+02 -0.24606096602E+03  0.55752588932E+03  0.91843149557E+02 0.  0.
          3    1    3    3  502    0 -0.57656226167E+02  0.18494989685E+02 -0.51577653261E+02  0.79539671706E+02  0.00000000000E+00 0. -1.
         -4    1    3    3    0  502 -0.76855483724E+02 -0.19147492725E+02  0.16171219119E+02  0.80838729480E+02  0.00000000000E+00 0.  1.
         13    1    5    5    0    0 -0.30860917066E+03  0.19073435933E+02 -0.35656192554E+03  0.47195319992E+03  0.00000000000E+00 0. -1.
        -13    1    5    5    0    0 -0.47594718767E+02  0.14016001653E+02 -0.12373125417E+03  0.13330839739E+03  0.00000000000E+00 0.  1.
          1    1    6    6  503    0  0.46585938395E+03 -0.51461325794E+02 -0.23517492273E+03  0.52438581020E+03  0.00000000000E+00 0. -1.
         -1    1    6    6    0  503  0.24856215371E+02  0.19024391247E+02 -0.10886043297E+02  0.33140079112E+02  0.00000000000E+00 0.  1.
<mgrwt>
<rscale>  0 0.10818913E+04</rscale>
<asrwt>0</asrwt>
<pdfrwt beam="1">  1        1 0.16037896E+00 0.10818913E+04</pdfrwt>
<pdfrwt beam="2">  1       -2 0.43185025E-01 0.10818913E+04</pdfrwt>
<totfact> 0.62349476E+01</totfact>
</mgrwt>
</event>
<event>
12    5  0.5029243E-008  0.2029626E+04  0.7818608E-02  0.8592894E-01
         -2   -1    0    0    0  501 -0.00000000000E+00  0.00000000000E+00  0.23623520997E+04  0.23623520997E+04  0.00000000000E+00 0.  1.
          1   -1    0    0  501    0  0.00000000000E+00 -0.00000000000E+00 -0.43594064562E+03  0.43594064562E+03  0.00000000000E+00 0. -1.
        -24    2    1    2    0    0  0.59243099320E+03 -0.26072485625E+02  0.15639199522E+04  0.16744169584E+04  0.78563842812E+02 0.  0.
        254    2    1    2    0    0 -0.59243099320E+03  0.26072485625E+02  0.36249150190E+03  0.11238757870E+04  0.88320011286E+03 0.  0.
         23    2    4    4    0    0 -0.62707437871E+03 -0.31604869790E+03  0.25808231221E+03  0.75341094671E+03  0.88952340471E+02 0.  0.
         23    2    4    4    0    0  0.34643385510E+02  0.34212118352E+03  0.10440918969E+03  0.37046484025E+03  0.89976944782E+02 0.  0.
          3    1    3    3  502    0  0.75736933101E+02 -0.29524758437E+02  0.22750465986E+03  0.24159090351E+03  0.00000000000E+00 0. -1.
         -4    1    3    3    0  502  0.51669406009E+03  0.34522728117E+01  0.13364152923E+04  0.14328260549E+04  0.00000000000E+00 0.  1.
         13    1    5    5    0    0 -0.41816100821E+03 -0.18188942704E+03  0.13074681366E+03  0.47438077716E+03  0.00000000000E+00 0.  1.
        -13    1    5    5    0    0 -0.20891337049E+03 -0.13415927086E+03  0.12733549855E+03  0.27903016955E+03  0.00000000000E+00 0. -1.
          1    1    6    6  503    0 -0.30617758925E+02  0.93004702767E+02  0.27538840429E+02  0.10171386155E+03  0.00000000000E+00 0. -1.
         -1    1    6    6    0  503  0.65261144435E+02  0.24911648076E+03  0.76870349264E+02  0.26875097870E+03  0.00000000000E+00 0.  1.
<mgrwt>
<rscale>  0 0.20296259E+04</rscale>
<asrwt>0</asrwt>
<pdfrwt beam="1">  1        1 0.67067793E-01 0.20296259E+04</pdfrwt>
<pdfrwt beam="2">  1       -2 0.36343878E+00 0.20296259E+04</pdfrwt>
<totfact> 0.55482792E-01</totfact>
</mgrwt>
</event>
<event>
12    5  0.5029243E-008  0.1591865E+04  0.7818608E-02  0.8825561E-01
         -2   -1    0    0    0  501 -0.00000000000E+00  0.00000000000E+00  0.38932842743E+03  0.38932842743E+03  0.00000000000E+00 0.  1.
          1   -1    0    0  501    0  0.00000000000E+00 -0.00000000000E+00 -0.16271827755E+04  0.16271827755E+04  0.00000000000E+00 0. -1.
        -24    2    1    2    0    0 -0.35013817217E+03 -0.15556358765E+02  0.89216782221E+02  0.37014338121E+03  0.78789266510E+02 0.  0.
        254    2    1    2    0    0  0.35013817217E+03  0.15556358765E+02 -0.13270711303E+04  0.16463678218E+04  0.90915921580E+03 0.  0.
         23    2    4    4    0    0  0.29412109678E+03 -0.27199713386E+03 -0.12697167669E+04  0.13344523001E+04  0.89958951035E+02 0.  0.
         23    2    4    4    0    0  0.56017075394E+02  0.28755349262E+03 -0.57354363470E+02  0.31191552163E+03  0.90425913168E+02 0.  0.
          1    1    3    3  502    0 -0.50775406117E+02 -0.15712736083E+02 -0.11332239385E+02  0.54345667639E+02  0.00000000000E+00 0. -1.
         -2    1    3    3    0  502 -0.29936276605E+03  0.15637731777E+00  0.10054902161E+03  0.31579771358E+03  0.00000000000E+00 0.  1.
         13    1    5    5    0    0  0.44137142571E+02 -0.21520061920E+02 -0.25798417878E+03  0.26261575909E+03  0.00000000000E+00 0. -1.
        -13    1    5    5    0    0  0.24998395421E+03 -0.25047707194E+03 -0.10117325881E+04  0.10718365410E+04  0.00000000000E+00 0.  1.
          3    1    6    6  503    0  0.30909564997E+02  0.26816595495E+02 -0.25071455239E+02  0.47990716499E+02  0.00000000000E+00 0. -1.
         -3    1    6    6    0  503  0.25107510396E+02  0.26073689713E+03 -0.32282908231E+02  0.26392480514E+03  0.00000000000E+00 0.  1.
<mgrwt>
<rscale>  0 0.15918650E+04</rscale>
<asrwt>0</asrwt>
<pdfrwt beam="1">  1        1 0.25033581E+00 0.15918650E+04</pdfrwt>
<pdfrwt beam="2">  1       -2 0.59896681E-01 0.15918650E+04</pdfrwt>
<totfact> 0.11708944E+01</totfact>
</mgrwt>
</event>
<event>
12    5  0.5029243E-008  0.1324951E+04  0.7818608E-02  0.9010010E-01
          1   -1    0    0  501    0  0.00000000000E+00  0.00000000000E+00  0.28157232580E+04  0.28157232580E+04  0.00000000000E+00 0. -1.
         -2   -1    0    0    0  501 -0.00000000000E+00 -0.00000000000E+00 -0.15586530759E+03  0.15586530759E+03  0.00000000000E+00 0.  1.
        -24    2    1    2    0    0  0.99515067553E+02  0.29780034982E+02 -0.27944596057E+02  0.13459984394E+03  0.80908086033E+02 0.  0.
        254    2    1    2    0    0 -0.99515067553E+02 -0.29780034982E+02  0.26878025465E+04  0.28369887217E+04  0.90190486132E+03 0.  0.
         23    2    4    4    0    0 -0.43600326103E+03  0.16278364493E+03  0.18526443579E+04  0.19124068250E+04  0.91713624783E+02 0.  0.
         23    2    4    4    0    0  0.33648819348E+03 -0.19256367991E+03  0.83515818863E+03  0.92458189667E+03  0.84008383116E+02 0.  0.
          1    1    3    3  502    0  0.35549042655E+02 -0.18410634018E+02  0.16158859760E+02  0.43171687798E+02  0.00000000000E+00 0. -1.
         -2    1    3    3    0  502  0.63966024898E+02  0.48190669000E+02 -0.44103455817E+02  0.91428156139E+02  0.00000000000E+00 0.  1.
         13    1    5    5    0    0 -0.25676840627E+03  0.78168636551E+02  0.89099579467E+03  0.93054492439E+03  0.00000000000E+00 0. -1.
        -13    1    5    5    0    0 -0.17923485476E+03  0.84615008377E+02  0.96164856320E+03  0.98186190063E+03  0.00000000000E+00 0.  1.
          2    1    6    6  503    0  0.15723416245E+03 -0.13816691744E+03  0.43349349996E+03  0.48138268916E+03  0.00000000000E+00 0.  1.
         -2    1    6    6    0  503  0.17925403103E+03 -0.54396762465E+02  0.40166468867E+03  0.44319920751E+03  0.00000000000E+00 0. -1.
<mgrwt>
<rscale>  0 0.13249507E+04</rscale>
<asrwt>0</asrwt>
<pdfrwt beam="1">  1        1 0.43318815E+00 0.13249507E+04</pdfrwt>
<pdfrwt beam="2">  1       -2 0.23979280E-01 0.13249507E+04</pdfrwt>
<totfact> 0.10898474E+01</totfact>
</mgrwt>
</event>
<event>
12    5  0.5029243E-008  0.1400627E+04  0.7818608E-02  0.8953365E-01
          1   -1    0    0  501    0  0.00000000000E+00  0.00000000000E+00  0.23939424889E+04  0.23939424889E+04  0.00000000000E+00 0. -1.
         -2   -1    0    0    0  501 -0.00000000000E+00 -0.00000000000E+00 -0.20486666812E+03  0.20486666812E+03  0.00000000000E+00 0.  1.
        -24    2    1    2    0    0 -0.10973975024E+03  0.39109719740E+03  0.60604124976E+03  0.73426198485E+03  0.82793933356E+02 0.  0.
        254    2    1    2    0    0  0.10973975024E+03 -0.39109719740E+03  0.15830345710E+04  0.18645471722E+04  0.89751761744E+03 0.  0.
         23    2    4    4    0    0 -0.23488450951E+03  0.62845555000E+02  0.10416639853E+04  0.10733228608E+04  0.88531398547E+02 0.  0.
         23    2    4    4    0    0  0.34462425975E+03 -0.45394275240E+03  0.54137058569E+03  0.79122431140E+03  0.90132663532E+02 0.  0.
          1    1    3    3  502    0 -0.71660645929E+02  0.19437133461E+03  0.37514284986E+03  0.42854127187E+03  0.00000000000E+00 0. -1.
         -2    1    3    3    0  502 -0.38079104313E+02  0.19672586279E+03  0.23089839990E+03  0.30572071299E+03  0.00000000000E+00 0.  1.
         13    1    5    5    0    0 -0.19439132573E+02 -0.18778637362E+02  0.79844488308E+02  0.84295073459E+02  0.00000000000E+00 0. -1.
        -13    1    5    5    0    0 -0.21544537694E+03  0.81624192362E+02  0.96181949703E+03  0.98902778732E+03  0.00000000000E+00 0.  1.
          2    1    6    6  503    0  0.76536171130E+01 -0.13657800167E+02 -0.90726003085E+00  0.15682362102E+02  0.00000000000E+00 0. -1.
         -2    1    6    6    0  503  0.33697064264E+03 -0.44028495223E+03  0.54227784572E+03  0.77554194930E+03  0.00000000000E+00 0.  1.
<mgrwt>
<rscale>  0 0.14006270E+04</rscale>
<asrwt>0</asrwt>
<pdfrwt beam="1">  1        1 0.36829882E+00 0.14006270E+04</pdfrwt>
<pdfrwt beam="2">  1       -2 0.31517951E-01 0.14006270E+04</pdfrwt>
<totfact> 0.12872356E+01</totfact>
</mgrwt>
</event>
<event>
12    5  0.5029243E-008  0.2396276E+04  0.7818608E-02  0.8440899E-01
          1   -1    0    0  501    0  0.00000000000E+00  0.00000000000E+00  0.99738948516E+03  0.99738948516E+03  0.00000000000E+00 0. -1.
         -2   -1    0    0    0  501 -0.00000000000E+00 -0.00000000000E+00 -0.14392914011E+04  0.14392914011E+04  0.00000000000E+00 0.  1.
        -24    2    1    2    0    0  0.81560459002E+03 -0.34955508010E+02  0.44432820883E+03  0.93297419094E+03  0.81120582995E+02 0.  0.
        254    2    1    2    0    0 -0.81560459002E+03  0.34955508010E+02 -0.88623012478E+03  0.15037066953E+04  0.89960950235E+03 0.  0.
         23    2    4    4    0    0 -0.18099203355E+03 -0.28527396933E+03 -0.66840742757E+03  0.75448314778E+03  0.91307049364E+02 0.  0.
         23    2    4    4    0    0 -0.63461255647E+03  0.32022947734E+03 -0.21782269721E+03  0.74922354755E+03  0.92785676701E+02 0.  0.
          1    1    3    3  502    0  0.60086220576E+03 -0.35090670671E+02  0.36578250720E+03  0.70431781750E+03  0.00000000000E+00 0. -1.
         -2    1    3    3    0  502  0.21474238426E+03  0.13516266088E+00  0.78545701637E+02  0.22865637344E+03  0.00000000000E+00 0.  1.
         13    1    5    5    0    0  0.35705501268E+01 -0.40118803254E+02 -0.11268260957E+03  0.11966468862E+03  0.00000000000E+00 0.  1.
        -13    1    5    5    0    0 -0.18456258368E+03 -0.24515516608E+03 -0.55572481801E+03  0.63481845917E+03  0.00000000000E+00 0. -1.
          4    1    6    6  503    0 -0.39075067144E+03  0.23013145331E+03 -0.17328277994E+03  0.48546214565E+03  0.00000000000E+00 0.  1.
         -4    1    6    6    0  503 -0.24386188503E+03  0.90098024037E+02 -0.44539917265E+02  0.26376140190E+03  0.00000000000E+00 0. -1.
<mgrwt>
<rscale>  0 0.23962755E+04</rscale>
<asrwt>0</asrwt>
<pdfrwt beam="1">  1        1 0.15344454E+00 0.23962755E+04</pdfrwt>
<pdfrwt beam="2">  1       -2 0.22142945E+00 0.23962755E+04</pdfrwt>
<totfact> 0.11566410E+00</totfact>
</mgrwt>
</event>
<event>
12    5  0.5029243E-008  0.1432752E+04  0.7818608E-02  0.8930447E-01
          1   -1    0    0  501    0  0.00000000000E+00  0.00000000000E+00  0.58805465169E+03  0.58805465169E+03  0.00000000000E+00 0. -1.
         -2   -1    0    0    0  501 -0.00000000000E+00 -0.00000000000E+00 -0.87269834107E+03  0.87269834107E+03  0.00000000000E+00 0.  1.
        -24    2    1    2    0    0  0.27099659993E+02 -0.14151257168E+02  0.34521486078E+03  0.35554371569E+03  0.79393853736E+02 0.  0.
        254    2    1    2    0    0 -0.27099659993E+02  0.14151257168E+02 -0.62985855016E+03  0.11052092771E+04  0.90765142167E+03 0.  0.
         23    2    4    4    0    0 -0.22808241235E+03 -0.37827857695E+03 -0.38074852202E+03  0.59021777839E+03  0.90946799290E+02 0.  0.
         23    2    4    4    0    0  0.20098275236E+03  0.39242983412E+03 -0.24911002813E+03  0.51499149868E+03  0.93622626246E+02 0.  0.
          1    1    3    3  502    0  0.34187116127E+02  0.11473999971E+02  0.30628855509E+03  0.30840410270E+03  0.00000000000E+00 0. -1.
         -2    1    3    3    0  502 -0.70874561336E+01 -0.25625257139E+02  0.38926305695E+02  0.47139612991E+02  0.00000000000E+00 0.  1.
         13    1    5    5    0    0 -0.15958925870E+03 -0.17706191487E+03 -0.20614701271E+03  0.31514479853E+03  0.00000000000E+00 0. -1.
        -13    1    5    5    0    0 -0.68493153649E+02 -0.20121666208E+03 -0.17460150931E+03  0.27507297986E+03  0.00000000000E+00 0.  1.
          4    1    6    6  503    0  0.36398789779E+02  0.40188176844E+02 -0.65471614716E+02  0.85008786540E+02  0.00000000000E+00 0. -1.
         -4    1    6    6    0  503  0.16458396258E+03  0.35224165728E+03 -0.18363841342E+03  0.42998271214E+03  0.00000000000E+00 0.  1.
<mgrwt>
<rscale>  0 0.14327516E+04</rscale>
<asrwt>0</asrwt>
<pdfrwt beam="1">  1        1 0.90469947E-01 0.14327516E+04</pdfrwt>
<pdfrwt beam="2">  1       -2 0.13426128E+00 0.14327516E+04</pdfrwt>
<totfact> 0.11998531E+01</totfact>
</mgrwt>
</event>
<event>
12    5  0.5029243E-008  0.1683967E+04  0.7818608E-02  0.8770562E-01
          1   -1    0    0  501    0  0.00000000000E+00  0.00000000000E+00  0.11502611836E+04  0.11502611836E+04  0.00000000000E+00 0. -1.
         -2   -1    0    0    0  501 -0.00000000000E+00 -0.00000000000E+00 -0.61632617085E+03  0.61632617085E+03  0.00000000000E+00 0.  1.
        -24    2    1    2    0    0 -0.59763636569E+03  0.38645862373E+02  0.24904370154E+03  0.65479975848E+03  0.89873411881E+02 0.  0.
        254    2    1    2    0    0  0.59763636569E+03 -0.38645862373E+02  0.28489131118E+03  0.11117875959E+04  0.89232610127E+03 0.  0.
         23    2    4    4    0    0  0.67024838015E+03 -0.33281186468E+03  0.15968006664E+03  0.77128462816E+03  0.96879438417E+02 0.  0.
         23    2    4    4    0    0 -0.72612014463E+02  0.29416600230E+03  0.12521124454E+03  0.34050296777E+03  0.91968873799E+02 0.  0.
          3    1    3    3  502    0 -0.26313999709E+03  0.49133652818E+02  0.14444916385E+03  0.30417484256E+03  0.00000000000E+00 0. -1.
         -4    1    3    3    0  502 -0.33449636860E+03 -0.10487790445E+02  0.10459453768E+03  0.35062491592E+03  0.00000000000E+00 0.  1.
         13    1    5    5    0    0  0.36724624915E+02 -0.31883191510E+02  0.32474048812E+02  0.58479054561E+02  0.00000000000E+00 0.  1.
        -13    1    5    5    0    0  0.63352375523E+03 -0.30092867317E+03  0.12720601783E+03  0.71280557360E+03  0.00000000000E+00 0. -1.
          1    1    6    6  503    0 -0.89598699692E+02  0.21767254361E+03  0.11332223496E+03  0.26124929122E+03  0.00000000000E+00 0. -1.
         -1    1    6    6    0  503  0.16986685229E+02  0.76493458698E+02  0.11889009581E+02  0.79253676554E+02  0.00000000000E+00 0.  1.
<mgrwt>
<rscale>  0 0.16839668E+04</rscale>
<asrwt>0</asrwt>
<pdfrwt beam="1">  1        1 0.17696326E+00 0.16839668E+04</pdfrwt>
<pdfrwt beam="2">  1       -2 0.94819411E-01 0.16839668E+04</pdfrwt>
<totfact> 0.90965120E+00</totfact>
</mgrwt>
</event>
<event>
12    5  0.5029243E-008  0.2670589E+04  0.7818608E-02  0.8344611E-01
          1   -1    0    0  501    0  0.00000000000E+00  0.00000000000E+00  0.15571305746E+04  0.15571305746E+04  0.00000000000E+00 0. -1.
         -2   -1    0    0    0  501 -0.00000000000E+00 -0.00000000000E+00 -0.11450623409E+04  0.11450623409E+04  0.00000000000E+00 0.  1.
        -24    2    1    2    0    0  0.10924924244E+04  0.43402841527E+03  0.39191097914E+02  0.11788385671E+04  0.78765871712E+02 0.  0.
        254    2    1    2    0    0 -0.10924924244E+04 -0.43402841527E+03  0.37287713582E+03  0.15233543484E+04  0.89423193285E+03 0.  0.
         23    2    4    4    0    0 -0.98441906621E+03 -0.67359409814E+03  0.26920988028E+03  0.12263516713E+04  0.93029861728E+02 0.  0.
         23    2    4    4    0    0 -0.10807335815E+03  0.23956568286E+03  0.10366725554E+03  0.29700267704E+03  0.91608532078E+02 0.  0.
          1    1    3    3  502    0  0.39560062859E+02  0.17820675838E+02 -0.13396617030E+02  0.45409739138E+02  0.00000000000E+00 0. -1.
         -2    1    3    3    0  502  0.10529323615E+04  0.41620773943E+03  0.52587714944E+02  0.11334288279E+04  0.00000000000E+00 0.  1.
         13    1    5    5    0    0 -0.33641667244E+03 -0.25647285401E+03  0.13542227459E+03  0.44417754873E+03  0.00000000000E+00 0. -1.
        -13    1    5    5    0    0 -0.64800239376E+03 -0.41712124413E+03  0.13378760569E+03  0.78217412260E+03  0.00000000000E+00 0.  1.
          4    1    6    6  503    0 -0.76126881872E+02  0.23323851529E+03  0.86219892327E+02  0.26005648807E+03  0.00000000000E+00 0. -1.
         -4    1    6    6    0  503 -0.31946476275E+02  0.63271675785E+01  0.17447363211E+02  0.36946188965E+02  0.00000000000E+00 0.  1.
<mgrwt>
<rscale>  0 0.26705891E+04</rscale>
<asrwt>0</asrwt>
<pdfrwt beam="1">  1        1 0.23955855E+00 0.26705891E+04</pdfrwt>
<pdfrwt beam="2">  1       -2 0.17616344E+00 0.26705891E+04</pdfrwt>
<totfact> 0.88544069E-01</totfact>
</mgrwt>
</event>
<event>
12    5  0.5029243E-008  0.2754938E+04  0.7818608E-02  0.8317396E-01
         -2   -1    0    0    0  501 -0.00000000000E+00  0.00000000000E+00  0.91252400057E+03  0.91252400057E+03  0.00000000000E+00 0.  1.
          1   -1    0    0  501    0  0.00000000000E+00 -0.00000000000E+00 -0.20793104519E+04  0.20793104519E+04  0.00000000000E+00 0. -1.
        -24    2    1    2    0    0  0.24561741779E+03 -0.11191142566E+04 -0.10109996538E+04  0.15305390379E+04  0.87663056665E+02 0.  0.
        254    2    1    2    0    0 -0.24561741779E+03  0.11191142566E+04 -0.15578679757E+03  0.14612954146E+04  0.89351559981E+03 0.  0.
         23    2    4    4    0    0  0.19444358125E+03  0.39919544718E+02 -0.19250066664E+03  0.29133446213E+03  0.91746312344E+02 0.  0.
         23    2    4    4    0    0 -0.44006099905E+03  0.10791947119E+04  0.36713869070E+02  0.11699609524E+04  0.95633744159E+02 0.  0.
          1    1    3    3  502    0  0.23535496465E+03 -0.96005998558E+03 -0.89432123199E+03  0.13330107281E+04  0.00000000000E+00 0. -1.
         -2    1    3    3    0  502  0.10262453144E+02 -0.15905427099E+03 -0.11667842179E+03  0.19752830981E+03  0.00000000000E+00 0.  1.
         13    1    5    5    0    0  0.12023166991E+02 -0.19436752113E+02 -0.56549297410E+01  0.23544046117E+02  0.00000000000E+00 0. -1.
        -13    1    5    5    0    0  0.18242041426E+03  0.59356296831E+02 -0.18684573690E+03  0.26779041601E+03  0.00000000000E+00 0.  1.
          3    1    6    6  503    0 -0.14911438631E+03  0.35007668090E+03 -0.32469863737E+02  0.38189406223E+03  0.00000000000E+00 0. -1.
         -3    1    6    6    0  503 -0.29094661274E+03  0.72911803096E+03  0.69183732807E+02  0.78806689019E+03  0.00000000000E+00 0.  1.
<mgrwt>
<rscale>  0 0.27549379E+04</rscale>
<asrwt>0</asrwt>
<pdfrwt beam="1">  1        1 0.31989391E+00 0.27549379E+04</pdfrwt>
<pdfrwt beam="2">  1       -2 0.14038831E+00 0.27549379E+04</pdfrwt>
<totfact> 0.71707051E-01</totfact>
</mgrwt>
</event>
<event>
12    5  0.5029243E-008  0.1637858E+04  0.7818608E-02  0.8797622E-01
         -2   -1    0    0    0  501 -0.00000000000E+00  0.00000000000E+00  0.15653102104E+03  0.15653102104E+03  0.00000000000E+00 0.  1.
          1   -1    0    0  501    0  0.00000000000E+00 -0.00000000000E+00 -0.42844184024E+04  0.42844184024E+04  0.00000000000E+00 0. -1.
        -24    2    1    2    0    0 -0.34785310837E+03  0.39928511613E+03 -0.19941253773E+04  0.20648144410E+04  0.80574603866E+02 0.  0.
        254    2    1    2    0    0  0.34785310837E+03 -0.39928511613E+03 -0.21337620041E+04  0.23761349824E+04  0.90146923152E+03 0.  0.
         23    2    4    4    0    0  0.50908520745E+03 -0.94531737938E+02 -0.18432918316E+04  0.19165635735E+04  0.85948572689E+02 0.  0.
         23    2    4    4    0    0 -0.16123209908E+03 -0.30475337819E+03 -0.29047017252E+03  0.45957140884E+03  0.89233107117E+02 0.  0.
          3    1    3    3  502    0 -0.31119877380E+03  0.33336648390E+03 -0.17906117752E+04  0.18477739091E+04  0.00000000000E+00 0. -1.
         -4    1    3    3    0  502 -0.36654334577E+02  0.65918632229E+02 -0.20351360201E+03  0.21704053198E+03  0.00000000000E+00 0.  1.
         13    1    5    5    0    0  0.30486083225E+02 -0.12700068905E+02 -0.61577222309E+02  0.69874511289E+02  0.00000000000E+00 0.  1.
        -13    1    5    5    0    0  0.47859912422E+03 -0.81831669034E+02 -0.17817146093E+04  0.18466890622E+04  0.00000000000E+00 0. -1.
          1    1    6    6  503    0 -0.33292218528E+02 -0.14779432960E+03 -0.99656383803E+02  0.18133651179E+03  0.00000000000E+00 0. -1.
         -1    1    6    6    0  503 -0.12793988055E+03 -0.15695904859E+03 -0.19081378871E+03  0.27823489704E+03  0.00000000000E+00 0.  1.
<mgrwt>
<rscale>  0 0.16378576E+04</rscale>
<asrwt>0</asrwt>
<pdfrwt beam="1">  1        1 0.65914126E+00 0.16378576E+04</pdfrwt>
<pdfrwt beam="2">  1       -2 0.24081697E-01 0.16378576E+04</pdfrwt>
<totfact> 0.69287672E-01</totfact>
</mgrwt>
</event>
<event>
12    5  0.5029243E-008  0.1127298E+04  0.7818608E-02  0.9178986E-01
         -2   -1    0    0    0  501 -0.00000000000E+00  0.00000000000E+00  0.14823606237E+04  0.14823606237E+04  0.00000000000E+00 0.  1.
          1   -1    0    0  501    0  0.00000000000E+00 -0.00000000000E+00 -0.21432041922E+03  0.21432041922E+03  0.00000000000E+00 0. -1.
        -24    2    1    2    0    0  0.23774197084E+02 -0.19388331759E+03  0.31092824368E+03  0.37585245601E+03  0.80204380690E+02 0.  0.
        254    2    1    2    0    0 -0.23774197084E+02  0.19388331759E+03  0.95711196082E+03  0.13208285869E+04  0.88902693841E+03 0.  0.
         23    2    4    4    0    0  0.33915269217E+03 -0.38026874367E+02  0.76273285884E+03  0.83960364694E+03  0.81867443009E+02 0.  0.
         23    2    4    4    0    0 -0.36292688926E+03  0.23191019196E+03  0.19437910198E+03  0.48122493999E+03  0.91082070136E+02 0.  0.
          1    1    3    3  502    0  0.12565629842E+02 -0.19678412998E+02  0.53896637651E+01  0.23962125677E+02  0.00000000000E+00 0. -1.
         -2    1    3    3    0  502  0.11208567242E+02 -0.17420490460E+03  0.30553857992E+03  0.35189033033E+03  0.00000000000E+00 0.  1.
         13    1    5    5    0    0  0.16711507514E+03  0.21264082555E+02  0.34368018089E+03  0.38274753596E+03  0.00000000000E+00 0. -1.
        -13    1    5    5    0    0  0.17203761703E+03 -0.59290956922E+02  0.41905267795E+03  0.45685611098E+03  0.00000000000E+00 0.  1.
          3    1    6    6  503    0 -0.12130664366E+02 -0.40785320943E+01 -0.50560000647E+01  0.13760471600E+02  0.00000000000E+00 0. -1.
         -3    1    6    6    0  503 -0.35079622489E+03  0.23598872405E+03  0.19943510205E+03  0.46746446839E+03  0.00000000000E+00 0.  1.
<mgrwt>
<rscale>  0 0.11272979E+04</rscale>
<asrwt>0</asrwt>
<pdfrwt beam="1">  1        1 0.32972373E-01 0.11272979E+04</pdfrwt>
<pdfrwt beam="2">  1       -2 0.22805547E+00 0.11272979E+04</pdfrwt>
<totfact> 0.10380541E+01</totfact>
</mgrwt>
</event>
<event>
12    5  0.5029243E-008  0.1675342E+04  0.7818608E-02  0.8775554E-01
         -2   -1    0    0    0  501 -0.00000000000E+00  0.00000000000E+00  0.34561457878E+03  0.34561457878E+03  0.00000000000E+00 0.  1.
          1   -1    0    0  501    0  0.00000000000E+00 -0.00000000000E+00 -0.20302741253E+04  0.20302741253E+04  0.00000000000E+00 0. -1.
        -24    2    1    2    0    0 -0.69717166048E+02  0.59275855768E+03 -0.57160263885E+03  0.83028422768E+03  0.80119479790E+02 0.  0.
        254    2    1    2    0    0  0.69717166048E+02 -0.59275855768E+03 -0.11130569077E+04  0.15456044764E+04  0.89094013649E+03 0.  0.
         23    2    4    4    0    0  0.40997404288E+03 -0.52060004879E+02 -0.38619671802E+03  0.57294265433E+03  0.91249220262E+02 0.  0.
         23    2    4    4    0    0 -0.34025687683E+03 -0.54069855280E+03 -0.72686018964E+03  0.97266182207E+03  0.98059255480E+02 0.  0.
          1    1    3    3  502    0 -0.57901964797E+02  0.51327226822E+03 -0.45305071874E+03  0.68706332504E+03  0.00000000000E+00 0. -1.
         -2    1    3    3    0  502 -0.11815201252E+02  0.79486289458E+02 -0.11855192011E+03  0.14322090264E+03  0.00000000000E+00 0.  1.
         13    1    5    5    0    0  0.74298498345E+02 -0.45470666507E+02 -0.70042348562E+02  0.11177557408E+03  0.00000000000E+00 0.  1.
        -13    1    5    5    0    0  0.33567554453E+03 -0.65893383723E+01 -0.31615436946E+03  0.46116708025E+03  0.00000000000E+00 0. -1.
          2    1    6    6  503    0 -0.17080130187E+03 -0.30727572264E+03 -0.46614117094E+03  0.58384847837E+03  0.00000000000E+00 0. -1.
         -2    1    6    6    0  503 -0.16945557496E+03 -0.23342283016E+03 -0.26071901870E+03  0.38881334370E+03  0.00000000000E+00 0.  1.
<mgrwt>
<rscale>  0 0.16753416E+04</rscale>
<asrwt>0</asrwt>
<pdfrwt beam="1">  1        1 0.31234987E+00 0.16753416E+04</pdfrwt>
<pdfrwt beam="2">  1       -2 0.53171473E-01 0.16753416E+04</pdfrwt>
<totfact> 0.79385968E+00</totfact>
</mgrwt>
</event>
<event>
12    5  0.5029243E-008  0.2515907E+04  0.7818608E-02  0.8397341E-01
         -2   -1    0    0    0  501 -0.00000000000E+00  0.00000000000E+00  0.67594759168E+03  0.67594759168E+03  0.00000000000E+00 0.  1.
          1   -1    0    0  501    0  0.00000000000E+00 -0.00000000000E+00 -0.23410786945E+04  0.23410786945E+04  0.00000000000E+00 0. -1.
        -24    2    1    2    0    0  0.16252785446E+01  0.12290407271E+03 -0.20676921018E+04  0.20730399502E+04  0.83880595778E+02 0.  0.
        254    2    1    2    0    0 -0.16252785446E+01 -0.12290407271E+03  0.40256099905E+03  0.94398633599E+03  0.84495372178E+03 0.  0.
         23    2    4    4    0    0  0.28987998412E+03 -0.28032645791E+03 -0.19512344155E+01  0.41331827622E+03  0.90635875574E+02 0.  0.
         23    2    4    4    0    0 -0.29150526267E+03  0.15742238520E+03  0.40451223347E+03  0.53066805977E+03  0.90671479031E+02 0.  0.
          1    1    3    3  502    0  0.35304180178E+02  0.10296077385E+03 -0.14192905747E+04  0.14234581278E+04  0.00000000000E+00 0. -1.
         -2    1    3    3    0  502 -0.33678901633E+02  0.19943298862E+02 -0.64840152714E+03  0.64958182239E+03  0.00000000000E+00 0.  1.
         13    1    5    5    0    0  0.32179526593E+02 -0.70549132059E+02  0.20703032772E+02  0.80257819133E+02  0.00000000000E+00 0.  1.
        -13    1    5    5    0    0  0.25770045753E+03 -0.20977732585E+03 -0.22654267187E+02  0.33306045709E+03  0.00000000000E+00 0. -1.
          4    1    6    6  503    0 -0.24535080611E+03  0.14818860094E+03  0.38435628712E+03  0.47946494653E+03  0.00000000000E+00 0. -1.
         -4    1    6    6    0  503 -0.46154456559E+02  0.92337842622E+01  0.20155946352E+02  0.51203113240E+02  0.00000000000E+00 0.  1.
<mgrwt>
<rscale>  0 0.25159066E+04</rscale>
<asrwt>0</asrwt>
<pdfrwt beam="1">  1        1 0.36016595E+00 0.25159066E+04</pdfrwt>
<pdfrwt beam="2">  1       -2 0.10399194E+00 0.25159066E+04</pdfrwt>
<totfact> 0.10231402E+00</totfact>
</mgrwt>
</event>
<event>
12    5  0.5029243E-008  0.1339073E+04  0.7818608E-02  0.8999141E-01
         -2   -1    0    0    0  501 -0.00000000000E+00  0.00000000000E+00  0.23794188785E+03  0.23794188785E+03  0.00000000000E+00 0.  1.
          1   -1    0    0  501    0  0.00000000000E+00 -0.00000000000E+00 -0.18839845720E+04  0.18839845720E+04  0.00000000000E+00 0. -1.
        -24    2    1    2    0    0  0.14436366581E+03  0.25544949044E+01  0.67855740030E+02  0.17867105203E+03  0.80445944142E+02 0.  0.
        254    2    1    2    0    0 -0.14436366581E+03 -0.25544949044E+01 -0.17138984242E+04  0.19432554078E+04  0.90440388000E+03 0.  0.
         23    2    4    4    0    0 -0.46618579732E+03  0.17630369095E+03 -0.72194434915E+03  0.88156830157E+03  0.86872538754E+02 0.  0.
         23    2    4    4    0    0  0.32182213151E+03 -0.17885818585E+03 -0.99195407503E+03  0.10616871063E+04  0.87446495876E+02 0.  0.
          1    1    3    3  502    0  0.31301141206E+02  0.35655912261E+02  0.17943670786E+02  0.50725544267E+02  0.00000000000E+00 0. -1.
         -2    1    3    3    0  502  0.11306252460E+03 -0.33101417357E+02  0.49912069244E+02  0.12794550777E+03  0.00000000000E+00 0.  1.
         13    1    5    5    0    0 -0.83510199907E+02  0.68167715016E+02 -0.16980911592E+03  0.20113658719E+03  0.00000000000E+00 0.  1.
        -13    1    5    5    0    0 -0.38267559741E+03  0.10813597593E+03 -0.55213523323E+03  0.68043171437E+03  0.00000000000E+00 0. -1.
          4    1    6    6  503    0  0.31033547123E+03 -0.14554678678E+03 -0.88403765848E+03  0.94816377987E+03  0.00000000000E+00 0. -1.
         -4    1    6    6    0  503  0.11486660280E+02 -0.33311399068E+02 -0.10791641655E+03  0.11352332638E+03  0.00000000000E+00 0.  1.
<mgrwt>
<rscale>  0 0.13390726E+04</rscale>
<asrwt>0</asrwt>
<pdfrwt beam="1">  1        1 0.28984379E+00 0.13390726E+04</pdfrwt>
<pdfrwt beam="2">  1       -2 0.36606443E-01 0.13390726E+04</pdfrwt>
<totfact> 0.21603525E+01</totfact>
</mgrwt>
</event>
<event>
12    5  0.5029243E-008  0.1740739E+04  0.7818608E-02  0.8738465E-01
          1   -1    0    0  501    0  0.00000000000E+00  0.00000000000E+00  0.95812416442E+03  0.95812416442E+03  0.00000000000E+00 0. -1.
         -2   -1    0    0    0  501 -0.00000000000E+00 -0.00000000000E+00 -0.79065198377E+03  0.79065198377E+03  0.00000000000E+00 0.  1.
        -24    2    1    2    0    0 -0.40990786314E+03 -0.26667281724E+03  0.46636106584E+03  0.68036711378E+03  0.79170184194E+02 0.  0.
        254    2    1    2    0    0  0.40990786314E+03  0.26667281724E+03 -0.29888888520E+03  0.10684090344E+04  0.90167868523E+03 0.  0.
         23    2    4    4    0    0  0.49210985465E+03  0.29491151728E+03  0.15265937614E+03  0.59896038671E+03  0.79396143858E+02 0.  0.
         23    2    4    4    0    0 -0.82201991512E+02 -0.28238700038E+02 -0.45154826133E+03  0.46944864770E+03  0.94507189821E+02 0.  0.
          3    1    3    3  502    0 -0.40972374939E+03 -0.25285143919E+03  0.45101307602E+03  0.65971220684E+03  0.00000000000E+00 0. -1.
         -4    1    3    3    0  502 -0.18411374677E+00 -0.13821378053E+02  0.15347989822E+02  0.20654906941E+02  0.00000000000E+00 0.  1.
         13    1    5    5    0    0  0.39581277395E+03  0.21884929537E+03  0.14898303944E+03  0.47619188584E+03  0.00000000000E+00 0.  1.
        -13    1    5    5    0    0  0.96297080699E+02  0.76062221912E+02  0.36763367007E+01  0.12276850087E+03  0.00000000000E+00 0. -1.
          3    1    6    6  503    0  0.12938362159E+02  0.17888703769E+02 -0.96379118291E+02  0.98875383086E+02  0.00000000000E+00 0. -1.
         -3    1    6    6    0  503 -0.95140353671E+02 -0.46127403808E+02 -0.35516914304E+03  0.37057326462E+03  0.00000000000E+00 0.  1.
<mgrwt>
<rscale>  0 0.17407387E+04</rscale>
<asrwt>0</asrwt>
<pdfrwt beam="1">  1        1 0.14740372E+00 0.17407387E+04</pdfrwt>
<pdfrwt beam="2">  1       -2 0.12163877E+00 0.17407387E+04</pdfrwt>
<totfact> 0.69674325E+00</totfact>
</mgrwt>
</event>
<event>
12    5  0.5029243E-008  0.1750449E+04  0.7818608E-02  0.8733103E-01
         -2   -1    0    0    0  501 -0.00000000000E+00  0.00000000000E+00  0.81102718728E+03  0.81102718728E+03  0.00000000000E+00 0.  1.
          1   -1    0    0  501    0  0.00000000000E+00 -0.00000000000E+00 -0.94450312949E+03  0.94450312949E+03  0.00000000000E+00 0. -1.
        -24    2    1    2    0    0  0.42345945537E+03  0.31987732351E+03  0.30935270155E+03  0.61963886789E+03  0.81325397087E+02 0.  0.
        254    2    1    2    0    0 -0.42345945537E+03 -0.31987732351E+03 -0.44282864376E+03  0.11358914489E+04  0.90139489873E+03 0.  0.
         23    2    4    4    0    0 -0.41469007728E+03 -0.11229379823E+03 -0.67995478231E+03  0.80965209310E+03  0.92845293645E+02 0.  0.
         23    2    4    4    0    0 -0.87693780882E+01 -0.20758352528E+03  0.23712613855E+03  0.32623935578E+03  0.83877826115E+02 0.  0.
          1    1    3    3  502    0  0.15742309562E+03  0.85925077122E+02  0.72292911271E+02  0.19336859862E+03  0.00000000000E+00 0. -1.
         -2    1    3    3    0  502  0.26603635975E+03  0.23395224638E+03  0.23705979028E+03  0.42627026927E+03  0.00000000000E+00 0.  1.
         13    1    5    5    0    0 -0.32346317678E+03 -0.12012874251E+03 -0.49661116146E+03  0.60471645190E+03  0.00000000000E+00 0.  1.
        -13    1    5    5    0    0 -0.91226900502E+02  0.78349442799E+01 -0.18334362085E+03  0.20493564120E+03  0.00000000000E+00 0. -1.
          4    1    6    6  503    0 -0.84587390091E+01 -0.21206046816E+03  0.24040596417E+03  0.32068086945E+03  0.00000000000E+00 0. -1.
         -4    1    6    6    0  503 -0.31063907914E+00  0.44769428836E+01 -0.32798256138E+01  0.55584863297E+01  0.00000000000E+00 0.  1.
<mgrwt>
<rscale>  0 0.17504488E+04</rscale>
<asrwt>0</asrwt>
<pdfrwt beam="1">  1        1 0.14530817E+00 0.17504488E+04</pdfrwt>
<pdfrwt beam="2">  1       -2 0.12477341E+00 0.17504488E+04</pdfrwt>
<totfact> 0.66976654E+00</totfact>
</mgrwt>
</event>
<event>
12    5  0.5029243E-008  0.1096878E+04  0.7818608E-02  0.9208240E-01
          1   -1    0    0  501    0  0.00000000000E+00  0.00000000000E+00  0.90366584035E+03  0.90366584035E+03  0.00000000000E+00 0. -1.
         -2   -1    0    0    0  501 -0.00000000000E+00 -0.00000000000E+00 -0.33285006121E+03  0.33285006121E+03  0.00000000000E+00 0.  1.
        -24    2    1    2    0    0  0.73260622636E+02  0.58403596643E+02 -0.55298688580E+02  0.13254686973E+03  0.75714125407E+02 0.  0.
        254    2    1    2    0    0 -0.73260622636E+02 -0.58403596643E+02  0.62611446772E+03  0.11039690318E+04  0.90440599159E+03 0.  0.
         23    2    4    4    0    0  0.81909975841E+02 -0.23027766125E+03 -0.14031446887E+03  0.29737399548E+03  0.94900461527E+02 0.  0.
         23    2    4    4    0    0 -0.15517059848E+03  0.17187406461E+03  0.76642893659E+03  0.80659503636E+03  0.97793809185E+02 0.  0.
          1    1    3    3  502    0  0.27980450990E+01  0.45713129531E+02 -0.36390162252E+02  0.58495838968E+02  0.00000000000E+00 0. -1.
         -2    1    3    3    0  502  0.70462577537E+02  0.12690467112E+02 -0.18908526328E+02  0.74051030760E+02  0.00000000000E+00 0.  1.
         13    1    5    5    0    0  0.10003293605E+03 -0.17330571964E+03 -0.90772557861E+02  0.21972964756E+03  0.00000000000E+00 0. -1.
        -13    1    5    5    0    0 -0.18122960208E+02 -0.56971941608E+02 -0.49541911008E+02  0.77644347918E+02  0.00000000000E+00 0.  1.
          1    1    6    6  503    0 -0.14418508836E+03  0.11319653828E+03  0.65518330289E+03  0.68034399856E+03  0.00000000000E+00 0. -1.
         -1    1    6    6    0  503 -0.10985510113E+02  0.58677526326E+02  0.11124563370E+03  0.12625103780E+03  0.00000000000E+00 0.  1.
<mgrwt>
<rscale>  0 0.10968778E+04</rscale>
<asrwt>0</asrwt>
<pdfrwt beam="1">  1        1 0.13902551E+00 0.10968778E+04</pdfrwt>
<pdfrwt beam="2">  1       -2 0.51207702E-01 0.10968778E+04</pdfrwt>
<totfact> 0.56885796E+01</totfact>
</mgrwt>
</event>
<event>
12    5  0.5029243E-008  0.1875358E+04  0.7818608E-02  0.8667220E-01
          1   -1    0    0  501    0  0.00000000000E+00  0.00000000000E+00  0.23607458752E+04  0.23607458752E+04  0.00000000000E+00 0. -1.
         -2   -1    0    0    0  501 -0.00000000000E+00 -0.00000000000E+00 -0.37244239432E+03  0.37244239432E+03  0.00000000000E+00 0.  1.
        -24    2    1    2    0    0  0.51261896179E+03 -0.49001891673E+03  0.55301324011E+03  0.90282860277E+03  0.79869290154E+02 0.  0.
        254    2    1    2    0    0 -0.51261896179E+03  0.49001891673E+03  0.14352902408E+04  0.18303596668E+04  0.88727768805E+03 0.  0.
         23    2    4    4    0    0 -0.10895284167E+03 -0.22512313993E+03  0.15863239128E+03  0.30968843735E+03  0.90507142408E+02 0.  0.
         23    2    4    4    0    0 -0.40366612012E+03  0.71514205666E+03  0.12766578495E+04  0.15206712294E+04  0.90615812875E+02 0.  0.
          3    1    3    3  502    0  0.46624669784E+03 -0.44144946398E+03  0.46822141178E+03  0.79466653569E+03  0.00000000000E+00 0. -1.
         -4    1    3    3    0  502  0.46372263950E+02 -0.48569452750E+02  0.84791828336E+02  0.10816206709E+03  0.00000000000E+00 0.  1.
         13    1    5    5    0    0 -0.11259513308E+03 -0.19907352750E+03  0.16573126790E+03  0.28244430691E+03  0.00000000000E+00 0.  1.
        -13    1    5    5    0    0  0.36422914081E+01 -0.26049612431E+02 -0.70988766207E+01  0.27244130447E+02  0.00000000000E+00 0. -1.
          3    1    6    6  503    0 -0.58687039675E+00  0.34402939109E+02  0.41991512472E+02  0.54288062738E+02  0.00000000000E+00 0. -1.
         -3    1    6    6    0  503 -0.40307924972E+03  0.68073911755E+03  0.12346663370E+04  0.14663831667E+04  0.00000000000E+00 0.  1.
<mgrwt>
<rscale>  0 0.18753579E+04</rscale>
<asrwt>0</asrwt>
<pdfrwt beam="1">  1        1 0.36319166E+00 0.18753579E+04</pdfrwt>
<pdfrwt beam="2">  1       -2 0.57298831E-01 0.18753579E+04</pdfrwt>
<totfact> 0.39755640E+00</totfact>
</mgrwt>
</event>
<event>
12    5  0.5029243E-008  0.1900920E+04  0.7818608E-02  0.8654398E-01
          1   -1    0    0  501    0  0.00000000000E+00  0.00000000000E+00  0.17636699649E+04  0.17636699649E+04  0.00000000000E+00 0. -1.
         -2   -1    0    0    0  501 -0.00000000000E+00 -0.00000000000E+00 -0.51221285124E+03  0.51221285124E+03  0.00000000000E+00 0.  1.
        -24    2    1    2    0    0  0.12032605848E+03  0.70612003088E+03  0.67142805214E+03  0.98516242426E+03  0.81520025806E+02 0.  0.
        254    2    1    2    0    0 -0.12032605848E+03 -0.70612003088E+03  0.58002906155E+03  0.12907203919E+04  0.90357155748E+03 0.  0.
         23    2    4    4    0    0  0.92004514791E+02 -0.82011069514E+02 -0.20850328160E+03  0.25889544583E+03  0.91447182397E+02 0.  0.
         23    2    4    4    0    0 -0.21233057327E+03 -0.62410896137E+03  0.78853234315E+03  0.10318249461E+04  0.91012060561E+02 0.  0.
          3    1    3    3  502    0  0.70455792583E+02  0.38492608738E+03  0.42145861980E+03  0.57511692695E+03  0.00000000000E+00 0. -1.
         -4    1    3    3    0  502  0.49870265895E+02  0.32119394350E+03  0.24996943234E+03  0.41004549731E+03  0.00000000000E+00 0.  1.
         13    1    5    5    0    0  0.74391407626E+02 -0.75429651694E+02 -0.21443623822E+03  0.23917904203E+03  0.00000000000E+00 0. -1.
        -13    1    5    5    0    0  0.17613107164E+02 -0.65814178204E+01  0.59329566224E+01  0.19716403800E+02  0.00000000000E+00 0.  1.
          2    1    6    6  503    0 -0.14692119715E+03 -0.46325670609E+03  0.63797427153E+03  0.80199986599E+03  0.00000000000E+00 0. -1.
         -2    1    6    6    0  503 -0.65409376115E+02 -0.16085225528E+03  0.15055807161E+03  0.22982508009E+03  0.00000000000E+00 0.  1.
<mgrwt>
<rscale>  0 0.19009202E+04</rscale>
<asrwt>0</asrwt>
<pdfrwt beam="1">  1        1 0.27133384E+00 0.19009202E+04</pdfrwt>
<pdfrwt beam="2">  1       -2 0.78801978E-01 0.19009202E+04</pdfrwt>
<totfact> 0.50650871E+00</totfact>
</mgrwt>
</event>
<event>
12    5  0.5029243E-008  0.1703798E+04  0.7818608E-02  0.8759201E-01
         -2   -1    0    0    0  501 -0.00000000000E+00  0.00000000000E+00  0.10031419897E+04  0.10031419897E+04  0.00000000000E+00 0.  1.
          1   -1    0    0  501    0  0.00000000000E+00 -0.00000000000E+00 -0.72345917998E+03  0.72345917998E+03  0.00000000000E+00 0. -1.
        -24    2    1    2    0    0  0.70082653075E+02 -0.32695401730E+03 -0.41495732107E+03  0.53902243014E+03  0.80901756434E+02 0.  0.
        254    2    1    2    0    0 -0.70082653075E+02  0.32695401730E+03  0.69464013079E+03  0.11875787395E+04  0.90333152475E+03 0.  0.
         23    2    4    4    0    0  0.88158947588E+02  0.45095672022E+03  0.81175406300E+03  0.93738710381E+03  0.92822195785E+02 0.  0.
         23    2    4    4    0    0 -0.15824160066E+03 -0.12400270292E+03 -0.11711393222E+03  0.25019163573E+03  0.91995146389E+02 0.  0.
          3    1    3    3  502    0  0.42114394827E+02 -0.18453456193E+03 -0.29608695417E+03  0.35141728931E+03  0.00000000000E+00 0. -1.
         -4    1    3    3    0  502  0.27968258248E+02 -0.14241945537E+03 -0.11887036690E+03  0.18760514083E+03  0.00000000000E+00 0.  1.
         13    1    5    5    0    0  0.33427763747E+02  0.21844261971E+03  0.29975380919E+03  0.37240695431E+03  0.00000000000E+00 0. -1.
        -13    1    5    5    0    0  0.54731183841E+02  0.23251410051E+03  0.51200025381E+03  0.56498014949E+03  0.00000000000E+00 0.  1.
          3    1    6    6  503    0 -0.10199855603E+03 -0.12419985252E+03 -0.64499434046E+02  0.17317472619E+03  0.00000000000E+00 0. -1.
         -3    1    6    6    0  503 -0.56243044630E+02  0.19714960500E+00 -0.52614498171E+02  0.77016909539E+02  0.00000000000E+00 0.  1.
<mgrwt>
<rscale>  0 0.17037984E+04</rscale>
<asrwt>0</asrwt>
<pdfrwt beam="1">  1        1 0.11130141E+00 0.17037984E+04</pdfrwt>
<pdfrwt beam="2">  1       -2 0.15432954E+00 0.17037984E+04</pdfrwt>
<totfact> 0.59898931E+00</totfact>
</mgrwt>
</event>
<event>
12    5  0.5029243E-008  0.1668331E+04  0.7818608E-02  0.8779636E-01
         -2   -1    0    0    0  501 -0.00000000000E+00  0.00000000000E+00  0.25872329511E+03  0.25872329511E+03  0.00000000000E+00 0.  1.
          1   -1    0    0  501    0  0.00000000000E+00 -0.00000000000E+00 -0.26894820971E+04  0.26894820971E+04  0.00000000000E+00 0. -1.
        -24    2    1    2    0    0 -0.47968861005E+03 -0.13239670280E+03 -0.14435201658E+04  0.15289575700E+04  0.79565899563E+02 0.  0.
        254    2    1    2    0    0  0.47968861005E+03  0.13239670280E+03 -0.98723863622E+03  0.14192478222E+04  0.88994056343E+03 0.  0.
         23    2    4    4    0    0 -0.25083498350E+03  0.31732606730E+01 -0.32549414143E+03  0.42089570429E+03  0.90986258602E+02 0.  0.
         23    2    4    4    0    0  0.73052359355E+03  0.12922344213E+03 -0.66174449479E+03  0.99835211791E+03  0.91857259987E+02 0.  0.
          1    1    3    3  502    0 -0.40936546275E+03 -0.12083778178E+03 -0.13074016360E+04  0.13753111973E+04  0.00000000000E+00 0. -1.
         -2    1    3    3    0  502 -0.70323147299E+02 -0.11558921016E+02 -0.13611852984E+03  0.15364637278E+03  0.00000000000E+00 0.  1.
         13    1    5    5    0    0 -0.22217368325E+03 -0.27403257056E+02 -0.28709839238E+03  0.36405709845E+03  0.00000000000E+00 0. -1.
        -13    1    5    5    0    0 -0.28661300244E+02  0.30576517729E+02 -0.38395749046E+02  0.56838605832E+02  0.00000000000E+00 0.  1.
          1    1    6    6  503    0  0.62147482044E+03  0.13265201479E+03 -0.59440928940E+03  0.87014361619E+03  0.00000000000E+00 0. -1.
         -1    1    6    6    0  503  0.10904877311E+03 -0.34285726672E+01 -0.67335205393E+02  0.12820850172E+03  0.00000000000E+00 0.  1.
<mgrwt>
<rscale>  0 0.16683305E+04</rscale>
<asrwt>0</asrwt>
<pdfrwt beam="1">  1        1 0.41376645E+00 0.16683305E+04</pdfrwt>
<pdfrwt beam="2">  1       -2 0.39803586E-01 0.16683305E+04</pdfrwt>
<totfact> 0.50078451E+00</totfact>
</mgrwt>
</event>
<event>
12    5  0.5029243E-008  0.1796271E+04  0.7818608E-02  0.8708285E-01
         -4   -1    0    0    0  501 -0.00000000000E+00  0.00000000000E+00  0.88093416198E+03  0.88093416198E+03  0.00000000000E+00 0.  1.
          1   -1    0    0  501    0  0.00000000000E+00 -0.00000000000E+00 -0.91567314739E+03  0.91567314739E+03  0.00000000000E+00 0. -1.
        -24    2    1    2    0    0  0.38161147269E+02 -0.24279074174E+03 -0.63609399371E+03  0.68631182714E+03  0.77490243274E+02 0.  0.
        254    2    1    2    0    0 -0.38161147269E+02  0.24279074174E+03  0.60135500829E+03  0.11102954822E+04  0.90040246248E+03 0.  0.
         23    2    4    4    0    0  0.13100667651E+03  0.39893529513E+03  0.71485382449E+03  0.83409824279E+03  0.91606600470E+02 0.  0.
         23    2    4    4    0    0 -0.16916782378E+03 -0.15614455339E+03 -0.11349881619E+03  0.27619723945E+03  0.10200029239E+03 0.  0.
          3    1    3    3  502    0  0.50280348159E+02 -0.24004309253E+03 -0.60359467238E+03  0.65151771135E+03  0.00000000000E+00 0. -1.
         -4    1    3    3    0  502 -0.12119200891E+02 -0.27476492100E+01 -0.32499321328E+02  0.34794115784E+02  0.00000000000E+00 0.  1.
         13    1    5    5    0    0  0.48249465611E+02  0.43997897058E+02  0.10602234410E+03  0.12451732139E+03  0.00000000000E+00 0.  1.
        -13    1    5    5    0    0  0.82757210902E+02  0.35493739807E+03  0.60883148039E+03  0.70958092140E+03  0.00000000000E+00 0. -1.
          2    1    6    6  503    0 -0.16459282786E+03 -0.16667055515E+03 -0.11980368426E+03  0.26310225331E+03  0.00000000000E+00 0. -1.
         -2    1    6    6    0  503 -0.45749959264E+01  0.10526001757E+02  0.63048680673E+01  0.13094986142E+02  0.00000000000E+00 0.  1.
<mgrwt>
<rscale>  0 0.17962714E+04</rscale>
<asrwt>0</asrwt>
<pdfrwt beam="1">  1        1 0.14087279E+00 0.17962714E+04</pdfrwt>
<pdfrwt beam="2">  1       -4 0.13552833E+00 0.17962714E+04</pdfrwt>
<totfact> 0.31407936E+00</totfact>
</mgrwt>
</event>
<event>
12    5  0.5029243E-008  0.1788530E+04  0.7818608E-02  0.8712423E-01
         -2   -1    0    0    0  501 -0.00000000000E+00  0.00000000000E+00  0.32328456786E+04  0.32328456786E+04  0.00000000000E+00 0.  1.
          1   -1    0    0  501    0  0.00000000000E+00 -0.00000000000E+00 -0.24737020981E+03  0.24737020981E+03  0.00000000000E+00 0. -1.
        -24    2    1    2    0    0 -0.12548344874E+03 -0.63845355262E+03  0.14405703940E+04  0.15827198871E+04  0.79938389956E+02 0.  0.
        254    2    1    2    0    0  0.12548344874E+03  0.63845355262E+03  0.15449050748E+04  0.18974960013E+04  0.88903900372E+03 0.  0.
         23    2    4    4    0    0  0.91153854455E+02  0.60219278799E+03  0.16435094092E+04  0.17550372367E+04  0.89929665659E+02 0.  0.
         23    2    4    4    0    0  0.34329594281E+02  0.36260764627E+02 -0.98604334405E+02  0.14245876468E+03  0.89879479167E+02 0.  0.
          1    1    3    3  502    0 -0.34633999156E+02 -0.56699722872E+02  0.13181027845E+03  0.14760867853E+03  0.00000000000E+00 0. -1.
         -2    1    3    3    0  502 -0.90849449581E+02 -0.58175382975E+03  0.13087601155E+04  0.14351112085E+04  0.00000000000E+00 0.  1.
         13    1    5    5    0    0 -0.15224883249E+02  0.14046640071E+03  0.40935172648E+03  0.43304900736E+03  0.00000000000E+00 0. -1.
        -13    1    5    5    0    0  0.10637873770E+03  0.46172638728E+03  0.12341576827E+04  0.13219882293E+04  0.00000000000E+00 0.  1.
          4    1    6    6  503    0 -0.43387412641E+01  0.20778111276E+02  0.11921380209E+02  0.24344894538E+02  0.00000000000E+00 0. -1.
         -4    1    6    6    0  503  0.38668335546E+02  0.15482653351E+02 -0.11052571461E+03  0.11811387014E+03  0.00000000000E+00 0.  1.
<mgrwt>
<rscale>  0 0.17885298E+04</rscale>
<asrwt>0</asrwt>
<pdfrwt beam="1">  1        1 0.38056958E-01 0.17885298E+04</pdfrwt>
<pdfrwt beam="2">  1       -2 0.49736084E+00 0.17885298E+04</pdfrwt>
<totfact> 0.15915686E-01</totfact>
</mgrwt>
</event>
<event>
12    5  0.5029243E-008  0.1235047E+04  0.7818608E-02  0.9082721E-01
          3   -1    0    0  501    0  0.00000000000E+00  0.00000000000E+00  0.27954736738E+03  0.27954736738E+03  0.00000000000E+00 0. -1.
         -2   -1    0    0    0  501 -0.00000000000E+00 -0.00000000000E+00 -0.13641175089E+04  0.13641175089E+04  0.00000000000E+00 0.  1.
        -24    2    1    2    0    0 -0.19231575815E+03  0.42110809889E+02 -0.48739346228E+03  0.53186058836E+03  0.81022387270E+02 0.  0.
        254    2    1    2    0    0  0.19231575815E+03 -0.42110809889E+02 -0.59717667921E+03  0.11118042879E+04  0.91691336407E+03 0.  0.
         23    2    4    4    0    0  0.11777975534E+03 -0.23282826870E+03  0.16188058831E+03  0.32030279253E+03  0.91145381447E+02 0.  0.
         23    2    4    4    0    0  0.74536002812E+02  0.19071745881E+03 -0.75905726752E+03  0.79150149535E+03  0.91530961690E+02 0.  0.
          3    1    3    3  502    0 -0.14862293471E+03  0.62698469611E+02 -0.33161544325E+03  0.36876642610E+03  0.00000000000E+00 0. -1.
         -4    1    3    3    0  502 -0.43692823439E+02 -0.20587659722E+02 -0.15577801903E+03  0.16309416227E+03  0.00000000000E+00 0.  1.
         13    1    5    5    0    0  0.12308170446E+03 -0.20520243171E+03  0.11465814110E+03  0.26533682985E+03  0.00000000000E+00 0.  1.
        -13    1    5    5    0    0 -0.53019491188E+01 -0.27625836991E+02  0.47222447206E+02  0.54965962687E+02  0.00000000000E+00 0. -1.
          2    1    6    6  503    0  0.49868142482E+02  0.88975923360E+02 -0.22165193945E+03  0.24399411639E+03  0.00000000000E+00 0. -1.
         -2    1    6    6    0  503  0.24667860330E+02  0.10174153545E+03 -0.53740532807E+03  0.54750737895E+03  0.00000000000E+00 0.  1.
<mgrwt>
<rscale>  0 0.12350473E+04</rscale>
<asrwt>0</asrwt>
<pdfrwt beam="1">  1        3 0.43007288E-01 0.12350473E+04</pdfrwt>
<pdfrwt beam="2">  1       -2 0.20986423E+00 0.12350473E+04</pdfrwt>
<totfact> 0.25599990E+00</totfact>
</mgrwt>
</event>
<event>
12    5  0.5029243E-008  0.1576806E+04  0.7818608E-02  0.8834925E-01
          1   -1    0    0  501    0  0.00000000000E+00  0.00000000000E+00  0.21429462736E+04  0.21429462736E+04  0.00000000000E+00 0. -1.
         -2   -1    0    0    0  501 -0.00000000000E+00 -0.00000000000E+00 -0.29005813433E+03  0.29005813433E+03  0.00000000000E+00 0.  1.
        -24    2    1    2    0    0 -0.75391475714E+02 -0.38508584555E+03  0.11941458150E+04  0.12595335465E+04  0.80408607603E+02 0.  0.
        254    2    1    2    0    0  0.75391475714E+02  0.38508584555E+03  0.65874232433E+03  0.11734708615E+04  0.88832281851E+03 0.  0.
         23    2    4    4    0    0  0.10950759716E+02  0.54550676169E+03  0.77591159767E+02  0.55933943428E+03  0.95617302170E+02 0.  0.
         23    2    4    4    0    0  0.64440715999E+02 -0.16042091615E+03  0.58115116456E+03  0.61413142723E+03  0.97638402381E+02 0.  0.
          3    1    3    3  502    0 -0.58253462252E+02 -0.27273181326E+03  0.72426624594E+03  0.77610418298E+03  0.00000000000E+00 0. -1.
         -4    1    3    3    0  502 -0.17138013462E+02 -0.11235403229E+03  0.46987956905E+03  0.48342936349E+03  0.00000000000E+00 0.  1.
         13    1    5    5    0    0 -0.10100416102E+00  0.31281650152E+03 -0.30278520802E+01  0.31283117127E+03  0.00000000000E+00 0. -1.
        -13    1    5    5    0    0  0.11051763877E+02  0.23269026017E+03  0.80619011847E+02  0.24650826301E+03  0.00000000000E+00 0.  1.
          4    1    6    6  503    0 -0.25750151879E+02 -0.26421349658E+02  0.11686995702E+03  0.12255506882E+03  0.00000000000E+00 0. -1.
         -4    1    6    6    0  503  0.90190867877E+02 -0.13399956649E+03  0.46428120754E+03  0.49157635840E+03  0.00000000000E+00 0.  1.
<mgrwt>
<rscale>  0 0.15768056E+04</rscale>
<asrwt>0</asrwt>
<pdfrwt beam="1">  1        1 0.32968403E+00 0.15768056E+04</pdfrwt>
<pdfrwt beam="2">  1       -2 0.44624330E-01 0.15768056E+04</pdfrwt>
<totfact> 0.95854204E+00</totfact>
</mgrwt>
</event>
<event>
12    5  0.5029243E-008  0.1310381E+04  0.7818608E-02  0.9021373E-01
          1   -1    0    0  501    0  0.00000000000E+00  0.00000000000E+00  0.48780393271E+03  0.48780393271E+03  0.00000000000E+00 0. -1.
         -2   -1    0    0    0  501 -0.00000000000E+00 -0.00000000000E+00 -0.88001472561E+03  0.88001472561E+03  0.00000000000E+00 0.  1.
        -24    2    1    2    0    0  0.79295290933E+02 -0.38902618201E+02 -0.44916540125E+03  0.46430610558E+03  0.77649501827E+02 0.  0.
        254    2    1    2    0    0 -0.79295290933E+02  0.38902618201E+02  0.56954608355E+02  0.90351255274E+03  0.89737948978E+03 0.  0.
         23    2    4    4    0    0 -0.28897656672E+03 -0.27127134300E+03  0.24552918644E+03  0.47523523002E+03  0.92023610099E+02 0.  0.
         23    2    4    4    0    0  0.20968127578E+03  0.31017396120E+03 -0.18857457808E+03  0.42827732272E+03  0.87675367351E+02 0.  0.
          3    1    3    3  502    0  0.21588262900E+02  0.15800065295E+02 -0.22241825401E+03  0.22402137147E+03  0.00000000000E+00 0. -1.
         -4    1    3    3    0  502  0.57707028034E+02 -0.54702683496E+02 -0.22674714724E+03  0.24028473411E+03  0.00000000000E+00 0.  1.
         13    1    5    5    0    0 -0.17814100075E+03 -0.20960728497E+03  0.20146057893E+03  0.34096304041E+03  0.00000000000E+00 0. -1.
        -13    1    5    5    0    0 -0.11083556597E+03 -0.61664058029E+02  0.44068607507E+02  0.13427218961E+03  0.00000000000E+00 0.  1.
          1    1    6    6  503    0  0.17656081120E+03  0.29877025891E+03 -0.15617746790E+03  0.38056377802E+03  0.00000000000E+00 0. -1.
         -1    1    6    6    0  503  0.33120464584E+02  0.11403702289E+02 -0.32397110180E+02  0.47713544704E+02  0.00000000000E+00 0.  1.
<mgrwt>
<rscale>  0 0.13103811E+04</rscale>
<asrwt>0</asrwt>
<pdfrwt beam="1">  1        1 0.75046760E-01 0.13103811E+04</pdfrwt>
<pdfrwt beam="2">  1       -2 0.13538688E+00 0.13103811E+04</pdfrwt>
<totfact> 0.15407887E+01</totfact>
</mgrwt>
</event>
<event>
12    5  0.5029243E-008  0.2916670E+04  0.7818608E-02  0.8267935E-01
         -2   -1    0    0    0  501 -0.00000000000E+00  0.00000000000E+00  0.19647094221E+04  0.19647094221E+04  0.00000000000E+00 0.  1.
          1   -1    0    0  501    0  0.00000000000E+00 -0.00000000000E+00 -0.10824713320E+04  0.10824713320E+04  0.00000000000E+00 0. -1.
        -24    2    1    2    0    0 -0.11370064650E+04  0.60051082562E+03  0.70669678025E+03  0.14692093725E+04  0.75887335482E+02 0.  0.
        254    2    1    2    0    0  0.11370064650E+04 -0.60051082562E+03  0.17554130983E+03  0.15779713817E+04  0.89765359515E+03 0.  0.
         23    2    4    4    0    0  0.11378020341E+04 -0.75223533896E+03  0.63847599682E+02  0.13684403484E+04  0.90005539032E+02 0.  0.
         23    2    4    4    0    0 -0.79556909934E+00  0.15172451335E+03  0.11169371015E+03  0.20953103334E+03  0.91688647949E+02 0.  0.
          3    1    3    3  502    0 -0.10836882412E+04  0.55491621214E+03  0.65941067704E+03  0.13846063150E+04  0.00000000000E+00 0. -1.
         -4    1    3    3    0  502 -0.53318223863E+02  0.45594613473E+02  0.47286103212E+02  0.84603057455E+02  0.00000000000E+00 0.  1.
         13    1    5    5    0    0  0.68377703095E+03 -0.40759930952E+03  0.61594391478E+02  0.79842475803E+03  0.00000000000E+00 0.  1.
        -13    1    5    5    0    0  0.45402500318E+03 -0.34463602944E+03  0.22532082042E+01  0.57001559036E+03  0.00000000000E+00 0. -1.
          4    1    6    6  503    0  0.26841905065E+02  0.59360983434E+02  0.89328145451E+02  0.11056098675E+03  0.00000000000E+00 0. -1.
         -4    1    6    6    0  503 -0.27637474164E+02  0.92363529915E+02  0.22365564697E+02  0.98970046583E+02  0.00000000000E+00 0.  1.
<mgrwt>
<rscale>  0 0.29166704E+04</rscale>
<asrwt>0</asrwt>
<pdfrwt beam="1">  1        1 0.16653405E+00 0.29166704E+04</pdfrwt>
<pdfrwt beam="2">  1       -2 0.30226299E+00 0.29166704E+04</pdfrwt>
<totfact> 0.30266819E-01</totfact>
</mgrwt>
</event>
<event>
12    5  0.5029243E-008  0.2053383E+04  0.7818608E-02  0.8582061E-01
         -2   -1    0    0    0  501 -0.00000000000E+00  0.00000000000E+00  0.52444402804E+03  0.52444402804E+03  0.00000000000E+00 0.  1.
          1   -1    0    0  501    0  0.00000000000E+00 -0.00000000000E+00 -0.20099285719E+04  0.20099285719E+04  0.00000000000E+00 0. -1.
        -24    2    1    2    0    0 -0.37617666376E+03  0.18017151398E+03 -0.14683164681E+04  0.15285773219E+04  0.81392394496E+02 0.  0.
        254    2    1    2    0    0  0.37617666376E+03 -0.18017151398E+03 -0.17168075757E+02  0.10057952780E+04  0.91507307991E+03 0.  0.
         23    2    4    4    0    0 -0.17384472464E+03 -0.14463874520E+03  0.28176704345E+03  0.37168709517E+03  0.87271272705E+02 0.  0.
         23    2    4    4    0    0  0.55002138839E+03 -0.35532768777E+02 -0.29893511921E+03  0.63410818281E+03  0.94577358068E+02 0.  0.
          1    1    3    3  502    0 -0.27694405319E+03  0.95003781868E+02 -0.95562546934E+03  0.99947174289E+03  0.00000000000E+00 0. -1.
         -4    1    3    3    0  502 -0.99232610569E+02  0.85167732110E+02 -0.51269099874E+03  0.52910557905E+03  0.00000000000E+00 0.  1.
         13    1    5    5    0    0 -0.16885187985E+03 -0.13015302620E+03  0.21348159132E+03  0.30170375767E+03  0.00000000000E+00 0.  1.
        -13    1    5    5    0    0 -0.49928447829E+01 -0.14485718996E+02  0.68285452135E+02  0.69983337497E+02  0.00000000000E+00 0. -1.
          4    1    6    6  503    0  0.20290058988E+03  0.38615403046E+01 -0.15886864693E+03  0.25772622653E+03  0.00000000000E+00 0. -1.
         -4    1    6    6    0  503  0.34712079852E+03 -0.39394309082E+02 -0.14006647228E+03  0.37638195627E+03  0.00000000000E+00 0.  1.
<mgrwt>
<rscale>  0 0.20533826E+04</rscale>
<asrwt>0</asrwt>
<pdfrwt beam="1">  1        1 0.30921978E+00 0.20533826E+04</pdfrwt>
<pdfrwt beam="2">  1       -2 0.80683697E-01 0.20533826E+04</pdfrwt>
<totfact> 0.32266902E+00</totfact>
</mgrwt>
</event>
<event>
12    5  0.5029243E-008  0.2792686E+04  0.7818608E-02  0.8305543E-01
         -2   -1    0    0    0  501 -0.00000000000E+00  0.00000000000E+00  0.15932211844E+04  0.15932211844E+04  0.00000000000E+00 0.  1.
          1   -1    0    0  501    0  0.00000000000E+00 -0.00000000000E+00 -0.12237935369E+04  0.12237935369E+04  0.00000000000E+00 0. -1.
        -24    2    1    2    0    0  0.11618081683E+04 -0.29930011081E+03  0.52246728016E+03  0.13124022103E+04  0.10024333641E+03 0.  0.
        254    2    1    2    0    0 -0.11618081683E+04  0.29930011081E+03 -0.15303963263E+03  0.15046125109E+04  0.89501893973E+03 0.  0.
         23    2    4    4    0    0 -0.15582286255E+03 -0.24511909244E+03  0.11628596594E+03  0.32583042412E+03  0.90988490676E+02 0.  0.
         23    2    4    4    0    0 -0.10059853058E+04  0.54441920325E+03 -0.26932559857E+03  0.11787820868E+04  0.92694259542E+02 0.  0.
          3    1    3    3  502    0  0.88214168523E+03 -0.24330342112E+03  0.44085639818E+03  0.10157385842E+04  0.00000000000E+00 0. -1.
         -4    1    3    3    0  502  0.27966648312E+03 -0.55996689689E+02  0.81610881974E+02  0.29666362617E+03  0.00000000000E+00 0.  1.
         13    1    5    5    0    0 -0.66521517744E+02 -0.39708260812E+02  0.50152050443E+02  0.92288062409E+02  0.00000000000E+00 0. -1.
        -13    1    5    5    0    0 -0.89301344807E+02 -0.20541083163E+03  0.66133915501E+02  0.23354236171E+03  0.00000000000E+00 0.  1.
          1    1    6    6  503    0 -0.10764165304E+03  0.82070701053E+02 -0.10212612453E+02  0.13574469748E+03  0.00000000000E+00 0. -1.
         -1    1    6    6    0  503 -0.89834365275E+03  0.46234850219E+03 -0.25911298612E+03  0.10430373893E+04  0.00000000000E+00 0.  1.
<mgrwt>
<rscale>  0 0.27926860E+04</rscale>
<asrwt>0</asrwt>
<pdfrwt beam="1">  1        1 0.18827593E+00 0.27926860E+04</pdfrwt>
<pdfrwt beam="2">  1       -2 0.24511095E+00 0.27926860E+04</pdfrwt>
<totfact> 0.53764240E-01</totfact>
</mgrwt>
</event>
<event>
12    5  0.5029243E-008  0.1645998E+04  0.7818608E-02  0.8792777E-01
         -2   -1    0    0    0  501 -0.00000000000E+00  0.00000000000E+00  0.89235613565E+03  0.89235613565E+03  0.00000000000E+00 0.  1.
          1   -1    0    0  501    0  0.00000000000E+00 -0.00000000000E+00 -0.75903266754E+03  0.75903266754E+03  0.00000000000E+00 0. -1.
        -24    2    1    2    0    0 -0.13951205940E+03 -0.12215885673E+03  0.59092368799E+03  0.62623616780E+03  0.92706697926E+02 0.  0.
        254    2    1    2    0    0  0.13951205940E+03  0.12215885673E+03 -0.45760021989E+03  0.10251526354E+04  0.89841725474E+03 0.  0.
         23    2    4    4    0    0  0.21029719401E+03 -0.26037218711E+03  0.79975920264E+02  0.35522096039E+03  0.88131704019E+02 0.  0.
         23    2    4    4    0    0 -0.70785134603E+02  0.38253104384E+03 -0.53757614015E+03  0.66993167500E+03  0.92085872535E+02 0.  0.
          3    1    3    3  502    0 -0.93578298049E+01  0.11374105730E+02  0.10022584338E+03  0.10130231459E+03  0.00000000000E+00 0. -1.
         -4    1    3    3    0  502 -0.13015422960E+03 -0.13353296246E+03  0.49069784461E+03  0.52493385321E+03  0.00000000000E+00 0.  1.
         13    1    5    5    0    0  0.21800489133E+03 -0.25805641795E+03  0.76066114582E+02  0.34627344871E+03  0.00000000000E+00 0. -1.
        -13    1    5    5    0    0 -0.77076973288E+01 -0.23157691592E+01  0.39098056823E+01  0.89475116867E+01  0.00000000000E+00 0.  1.
          3    1    6    6  503    0 -0.26494265946E+01  0.19008631827E+03 -0.31491260053E+03  0.36784476865E+03  0.00000000000E+00 0. -1.
         -3    1    6    6    0  503 -0.68135708008E+02  0.19244472557E+03 -0.22266353962E+03  0.30208690634E+03  0.00000000000E+00 0.  1.
<mgrwt>
<rscale>  0 0.16459981E+04</rscale>
<asrwt>0</asrwt>
<pdfrwt beam="1">  1        1 0.11677426E+00 0.16459981E+04</pdfrwt>
<pdfrwt beam="2">  1       -2 0.13728556E+00 0.16459981E+04</pdfrwt>
<totfact> 0.76017638E+00</totfact>
</mgrwt>
</event>
<event>
12    5  0.5029243E-008  0.1207645E+04  0.7818608E-02  0.9106191E-01
          1   -1    0    0  501    0  0.00000000000E+00  0.00000000000E+00  0.27324455656E+04  0.27324455656E+04  0.00000000000E+00 0. -1.
         -2   -1    0    0    0  501 -0.00000000000E+00 -0.00000000000E+00 -0.13343425776E+03  0.13343425776E+03  0.00000000000E+00 0.  1.
        -24    2    1    2    0    0 -0.19573431688E+03 -0.12039080549E+03  0.30407855588E+03  0.39062149117E+03  0.85530768568E+02 0.  0.
        254    2    1    2    0    0  0.19573431688E+03  0.12039080549E+03  0.22949327519E+04  0.24752583322E+04  0.89854415928E+03 0.  0.
         23    2    4    4    0    0  0.33984881779E+03  0.41146474665E+03  0.17741206570E+04  0.18548880125E+04  0.91131644905E+02 0.  0.
         23    2    4    4    0    0 -0.14411450092E+03 -0.29107394116E+03  0.52081209496E+03  0.62037031967E+03  0.90116961042E+02 0.  0.
          3    1    3    3  502    0 -0.11810382483E+02 -0.44672366454E+02  0.61514919152E+02  0.76936277121E+02  0.00000000000E+00 0. -1.
         -4    1    3    3    0  502 -0.18392393439E+03 -0.75718439031E+02  0.24256363673E+03  0.31368521405E+03  0.00000000000E+00 0.  1.
         13    1    5    5    0    0  0.29368536006E+03  0.30154656932E+03  0.14324513159E+04  0.14930164757E+04  0.00000000000E+00 0.  1.
        -13    1    5    5    0    0  0.46163457733E+02  0.10991817733E+03  0.34166934104E+03  0.36187153680E+03  0.00000000000E+00 0. -1.
          4    1    6    6  503    0 -0.87678935059E+02 -0.86844941576E+02  0.16173426031E+03  0.20343945165E+03  0.00000000000E+00 0. -1.
         -4    1    6    6    0  503 -0.56435565858E+02 -0.20422899959E+03  0.35907783466E+03  0.41693086802E+03  0.00000000000E+00 0.  1.
<mgrwt>
<rscale>  0 0.12076454E+04</rscale>
<asrwt>0</asrwt>
<pdfrwt beam="1">  1        1 0.42037620E+00 0.12076454E+04</pdfrwt>
<pdfrwt beam="2">  1       -2 0.20528349E-01 0.12076454E+04</pdfrwt>
<totfact> 0.16653568E+01</totfact>
</mgrwt>
</event>
<event>
12    5  0.5029243E-008  0.1485053E+04  0.7818608E-02  0.8894454E-01
          1   -1    0    0  501    0  0.00000000000E+00  0.00000000000E+00  0.16897428324E+04  0.16897428324E+04  0.00000000000E+00 0. -1.
         -2   -1    0    0    0  501 -0.00000000000E+00 -0.00000000000E+00 -0.32628969126E+03  0.32628969126E+03  0.00000000000E+00 0.  1.
        -24    2    1    2    0    0  0.23805455132E+03  0.38945799644E+03  0.40479548323E+03  0.61548193000E+03  0.81308809646E+02 0.  0.
        254    2    1    2    0    0 -0.23805455132E+03 -0.38945799644E+03  0.95865765794E+03  0.14005505937E+04  0.91332905347E+03 0.  0.
         23    2    4    4    0    0 -0.43604500546E+03 -0.54281763309E+03  0.47303092906E+03  0.84676221481E+03  0.91987819912E+02 0.  0.
         23    2    4    4    0    0  0.19799045414E+03  0.15335963664E+03  0.48562672888E+03  0.55378837886E+03  0.90160139077E+02 0.  0.
          3    1    3    3  502    0  0.13157884610E+03  0.25042374533E+03  0.29536461454E+03  0.40898080699E+03  0.00000000000E+00 0. -1.
         -4    1    3    3    0  502  0.10647570522E+03  0.13903425111E+03  0.10943086869E+03  0.20650112301E+03  0.00000000000E+00 0.  1.
         13    1    5    5    0    0 -0.13998283577E+03 -0.12201996810E+03  0.15505389621E+03  0.24192101532E+03  0.00000000000E+00 0.  1.
        -13    1    5    5    0    0 -0.29606216969E+03 -0.42079766499E+03  0.31797703285E+03  0.60484119949E+03  0.00000000000E+00 0. -1.
          2    1    6    6  503    0 -0.38884742053E+01  0.12424368667E+02  0.65948080597E+02  0.67220789216E+02  0.00000000000E+00 0. -1.
         -2    1    6    6    0  503  0.20187892834E+03  0.14093526798E+03  0.41967864828E+03  0.48656758965E+03  0.00000000000E+00 0.  1.
<mgrwt>
<rscale>  0 0.14850531E+04</rscale>
<asrwt>0</asrwt>
<pdfrwt beam="1">  1        1 0.25996043E+00 0.14850531E+04</pdfrwt>
<pdfrwt beam="2">  1       -2 0.50198415E-01 0.14850531E+04</pdfrwt>
<totfact> 0.15456088E+01</totfact>
</mgrwt>
</event>
<event>
12    5  0.5029243E-008  0.2222415E+04  0.7818608E-02  0.8509156E-01
          1   -1    0    0  501    0  0.00000000000E+00  0.00000000000E+00  0.29225991978E+04  0.29225991978E+04  0.00000000000E+00 0. -1.
         -2   -1    0    0    0  501 -0.00000000000E+00 -0.00000000000E+00 -0.42249443608E+03  0.42249443608E+03  0.00000000000E+00 0.  1.
        -24    2    1    2    0    0  0.57840166952E+03 -0.34573342782E+03  0.91580707423E+02  0.68471218871E+03  0.79772557855E+02 0.  0.
        254    2    1    2    0    0 -0.57840166952E+03  0.34573342782E+03  0.24085240543E+04  0.26603814452E+04  0.90695160799E+03 0.  0.
         23    2    4    4    0    0 -0.25563992363E+03 -0.24511352240E+03  0.13811334146E+04  0.14287008344E+04  0.90687132498E+02 0.  0.
         23    2    4    4    0    0 -0.32276174589E+03  0.59084695022E+03  0.10273906397E+04  0.12316806108E+04  0.90721205432E+02 0.  0.
          1    1    3    3  502    0  0.29678104004E+02 -0.34110563462E+02 -0.78506112416E+01  0.45890658023E+02  0.00000000000E+00 0. -1.
         -2    1    3    3    0  502  0.54872356551E+03 -0.31162286436E+03  0.99431318665E+02  0.63882153069E+03  0.00000000000E+00 0.  1.
         13    1    5    5    0    0 -0.16048345665E+03 -0.11135306653E+03  0.61894747425E+03  0.64903807374E+03  0.00000000000E+00 0.  1.
        -13    1    5    5    0    0 -0.95156466984E+02 -0.13376045587E+03  0.76218594032E+03  0.77966276068E+03  0.00000000000E+00 0. -1.
          3    1    6    6  503    0 -0.29749832992E+03  0.48215789706E+03  0.82990823838E+03  0.10048528142E+04  0.00000000000E+00 0. -1.
         -3    1    6    6    0  503 -0.25263415961E+02  0.10868905316E+03  0.19748240136E+03  0.22682779659E+03  0.00000000000E+00 0.  1.
<mgrwt>
<rscale>  0 0.22224148E+04</rscale>
<asrwt>0</asrwt>
<pdfrwt beam="1">  1        1 0.44963063E+00 0.22224148E+04</pdfrwt>
<pdfrwt beam="2">  1       -2 0.64999146E-01 0.22224148E+04</pdfrwt>
<totfact> 0.11887300E+00</totfact>
</mgrwt>
</event>
<event>
12    5  0.5029243E-008  0.2366105E+04  0.7818608E-02  0.8452303E-01
         -2   -1    0    0    0  501 -0.00000000000E+00  0.00000000000E+00  0.11845905885E+04  0.11845905885E+04  0.00000000000E+00 0.  1.
          1   -1    0    0  501    0  0.00000000000E+00 -0.00000000000E+00 -0.11815162723E+04  0.11815162723E+04  0.00000000000E+00 0. -1.
        -24    2    1    2    0    0 -0.84525967250E+03  0.38180978716E+03  0.40476763503E+03  0.10155925847E+04  0.85725329894E+02 0.  0.
        254    2    1    2    0    0  0.84525967250E+03 -0.38180978716E+03 -0.40169331886E+03  0.13505142761E+04  0.89570567714E+03 0.  0.
         23    2    4    4    0    0 -0.15008450066E+03 -0.18084262304E+03  0.44633528034E+00  0.25459330575E+03  0.97919050615E+02 0.  0.
         23    2    4    4    0    0  0.99534417316E+03 -0.20096716412E+03 -0.40213965414E+03  0.10959209704E+04  0.90711894242E+02 0.  0.
          1    1    3    3  502    0 -0.64109288006E+02  0.52841078628E+02  0.24599924759E+02  0.86644888466E+02  0.00000000000E+00 0. -1.
         -2    1    3    3    0  502 -0.78115038450E+03  0.32896870853E+03  0.38016771027E+03  0.92894769622E+03  0.00000000000E+00 0.  1.
         13    1    5    5    0    0  0.10288162998E+02 -0.32786302556E+02 -0.10850817014E+02  0.36035096267E+02  0.00000000000E+00 0. -1.
        -13    1    5    5    0    0 -0.16037266366E+03 -0.14805632048E+03  0.11297152295E+02  0.21855820948E+03  0.00000000000E+00 0.  1.
          2    1    6    6  503    0  0.51014920877E+03 -0.95597165703E+02 -0.25361155529E+03  0.57767625386E+03  0.00000000000E+00 0. -1.
         -2    1    6    6    0  503  0.48519496439E+03 -0.10536999842E+03 -0.14852809885E+03  0.51824471651E+03  0.00000000000E+00 0.  1.
<mgrwt>
<rscale>  0 0.23661049E+04</rscale>
<asrwt>0</asrwt>
<pdfrwt beam="1">  1        1 0.18177173E+00 0.23661049E+04</pdfrwt>
<pdfrwt beam="2">  1       -2 0.18224471E+00 0.23661049E+04</pdfrwt>
<totfact> 0.15210754E+00</totfact>
</mgrwt>
</event>
<event>
12    5  0.5029243E-008  0.1456530E+04  0.7818608E-02  0.8913886E-01
         -2   -1    0    0    0  501 -0.00000000000E+00  0.00000000000E+00  0.27869351496E+03  0.27869351496E+03  0.00000000000E+00 0.  1.
          1   -1    0    0  501    0  0.00000000000E+00 -0.00000000000E+00 -0.19030583359E+04  0.19030583359E+04  0.00000000000E+00 0. -1.
        -24    2    1    2    0    0  0.14901904061E+03 -0.17520478153E+03 -0.10729707202E+04  0.11003048520E+04  0.80630088519E+02 0.  0.
        254    2    1    2    0    0 -0.14901904061E+03  0.17520478153E+03 -0.55139410082E+03  0.10814469988E+04  0.90143705657E+03 0.  0.
         23    2    4    4    0    0  0.24911192175E+03 -0.23177419768E+03 -0.18284830983E+03  0.39718247025E+03  0.92435826385E+02 0.  0.
         23    2    4    4    0    0 -0.39813096236E+03  0.40697897921E+03 -0.36854579099E+03  0.68426452860E+03  0.90839376500E+02 0.  0.
          3    1    3    3  502    0  0.15064344842E+03 -0.16363773958E+03 -0.90510211338E+03  0.93203036110E+03  0.00000000000E+00 0. -1.
         -4    1    3    3    0  502 -0.16244078064E+01 -0.11567041949E+02 -0.16786860679E+03  0.16827449095E+03  0.00000000000E+00 0.  1.
         13    1    5    5    0    0  0.22976851518E+03 -0.23503099876E+03 -0.15572106715E+03  0.36370618871E+03  0.00000000000E+00 0.  1.
        -13    1    5    5    0    0  0.19343406569E+02  0.32568010805E+01 -0.27127242677E+02  0.33476281547E+02  0.00000000000E+00 0. -1.
          3    1    6    6  503    0 -0.13034196333E+03  0.81627963548E+02 -0.78157482593E+02  0.17251302537E+03  0.00000000000E+00 0. -1.
         -3    1    6    6    0  503 -0.26778899904E+03  0.32535101567E+03 -0.29038830839E+03  0.51175150322E+03  0.00000000000E+00 0.  1.
<mgrwt>
<rscale>  0 0.14565301E+04</rscale>
<asrwt>0</asrwt>
<pdfrwt beam="1">  1        1 0.29277821E+00 0.14565301E+04</pdfrwt>
<pdfrwt beam="2">  1       -2 0.42875925E-01 0.14565301E+04</pdfrwt>
<totfact> 0.15245687E+01</totfact>
</mgrwt>
</event>
<event>
12    5  0.5029243E-008  0.1472008E+04  0.7818608E-02  0.8903284E-01
          1   -1    0    0  501    0  0.00000000000E+00  0.00000000000E+00  0.82021718183E+03  0.82021718183E+03  0.00000000000E+00 0. -1.
         -2   -1    0    0    0  501 -0.00000000000E+00 -0.00000000000E+00 -0.66043679347E+03  0.66043679347E+03  0.00000000000E+00 0.  1.
        -24    2    1    2    0    0  0.28725548582E+03  0.34977819761E+03  0.52424073206E+02  0.46361756684E+03  0.85629803069E+02 0.  0.
        254    2    1    2    0    0 -0.28725548582E+03 -0.34977819761E+03  0.10735631516E+03  0.10170364085E+04  0.90442090648E+03 0.  0.
         23    2    4    4    0    0 -0.23130544950E+03 -0.33104726601E+03  0.47696758752E+03  0.63133510933E+03  0.89394840051E+02 0.  0.
         23    2    4    4    0    0 -0.55950036318E+02 -0.18730931596E+02 -0.36961127236E+03  0.38570129913E+03  0.93122205337E+02 0.  0.
          3    1    3    3  502    0  0.20481106547E+03  0.19585723936E+03  0.56482993738E+02  0.28896013450E+03  0.00000000000E+00 0. -1.
         -4    1    3    3    0  502  0.82444420352E+02  0.15392095825E+03 -0.40589205322E+01  0.17465743234E+03  0.00000000000E+00 0.  1.
         13    1    5    5    0    0 -0.17184379203E+03 -0.22726046310E+03  0.39204395792E+03  0.48464014680E+03  0.00000000000E+00 0.  1.
        -13    1    5    5    0    0 -0.59461657474E+02 -0.10378680291E+03  0.84923629597E+02  0.14669496253E+03  0.00000000000E+00 0. -1.
          1    1    6    6  503    0  0.13072730988E+02  0.19596684838E+02 -0.15980857613E+03  0.16153546779E+03  0.00000000000E+00 0. -1.
         -1    1    6    6    0  503 -0.69022767306E+02 -0.38327616434E+02 -0.20980269624E+03  0.22416583133E+03  0.00000000000E+00 0.  1.
<mgrwt>
<rscale>  0 0.14720076E+04</rscale>
<asrwt>0</asrwt>
<pdfrwt beam="1">  1        1 0.12618726E+00 0.14720076E+04</pdfrwt>
<pdfrwt beam="2">  1       -2 0.10160566E+00 0.14720076E+04</pdfrwt>
<totfact> 0.14344320E+01</totfact>
</mgrwt>
</event>
<event>
12    5  0.5029243E-008  0.1384918E+04  0.7818608E-02  0.8964808E-01
          1   -1    0    0  501    0  0.00000000000E+00  0.00000000000E+00  0.20997898215E+04  0.20997898215E+04  0.00000000000E+00 0. -1.
         -2   -1    0    0    0  501 -0.00000000000E+00 -0.00000000000E+00 -0.22835606223E+03  0.22835606223E+03  0.00000000000E+00 0.  1.
        -24    2    1    2    0    0 -0.31781554904E+02 -0.10092423728E+03  0.11718867626E+04  0.11792680951E+04  0.78478575364E+02 0.  0.
        254    2    1    2    0    0  0.31781554904E+02  0.10092423728E+03  0.69954699666E+03  0.11488777886E+04  0.90518418226E+03 0.  0.
         23    2    4    4    0    0  0.36094973226E+03  0.31179057801E+03  0.51262263516E+03  0.70592352049E+03  0.89710517524E+02 0.  0.
         23    2    4    4    0    0 -0.32916817735E+03 -0.21086634072E+03  0.18692436151E+03  0.44295426816E+03  0.91931844998E+02 0.  0.
          1    1    3    3  502    0 -0.57293166479E+02 -0.81624543965E+02  0.89655585103E+03  0.90208506645E+03  0.00000000000E+00 0. -1.
         -2    1    3    3    0  502  0.25511611575E+02 -0.19299693318E+02  0.27533091160E+03  0.27718302864E+03  0.00000000000E+00 0.  1.
         13    1    5    5    0    0  0.22022634192E+03  0.19724492601E+03  0.25265702269E+03  0.38889686760E+03  0.00000000000E+00 0. -1.
        -13    1    5    5    0    0  0.14072339034E+03  0.11454565200E+03  0.25996561247E+03  0.31702665289E+03  0.00000000000E+00 0.  1.
          4    1    6    6  503    0 -0.26162183334E+03 -0.12919894853E+03  0.16329540265E+03  0.33437066336E+03  0.00000000000E+00 0. -1.
         -4    1    6    6    0  503 -0.67546344008E+02 -0.81667392191E+02  0.23628958853E+02  0.10858360481E+03  0.00000000000E+00 0.  1.
<mgrwt>
<rscale>  0 0.13849184E+04</rscale>
<asrwt>0</asrwt>
<pdfrwt beam="1">  1        1 0.32304458E+00 0.13849184E+04</pdfrwt>
<pdfrwt beam="2">  1       -2 0.35131703E-01 0.13849184E+04</pdfrwt>
<totfact> 0.16640109E+01</totfact>
</mgrwt>
</event>
<event>
12    5  0.5029243E-008  0.1594715E+04  0.7818608E-02  0.8823801E-01
          1   -1    0    0  501    0  0.00000000000E+00  0.00000000000E+00  0.12537094493E+04  0.12537094493E+04  0.00000000000E+00 0. -1.
         -2   -1    0    0    0  501 -0.00000000000E+00 -0.00000000000E+00 -0.50711851054E+03  0.50711851054E+03  0.00000000000E+00 0.  1.
        -24    2    1    2    0    0  0.23406067895E+03  0.41782578240E+03 -0.15312615452E+02  0.48591432668E+03  0.80718466355E+02 0.  0.
        254    2    1    2    0    0 -0.23406067895E+03 -0.41782578240E+03  0.76190355425E+03  0.12749136332E+04  0.90307527942E+03 0.  0.
         23    2    4    4    0    0 -0.56166234144E+03 -0.29008923937E+03  0.35990676029E+03  0.73323539829E+03  0.92113628764E+02 0.  0.
         23    2    4    4    0    0  0.32760166250E+03 -0.12773654302E+03  0.40199679396E+03  0.54167823492E+03  0.90412466723E+02 0.  0.
          3    1    3    3  502    0  0.50391299477E+02  0.10607000854E+03 -0.37837755656E+02  0.12337676251E+03  0.00000000000E+00 0. -1.
         -4    1    3    3    0  502  0.18366937947E+03  0.31175577385E+03  0.22525140205E+02  0.36253756416E+03  0.00000000000E+00 0.  1.
         13    1    5    5    0    0 -0.87150995105E+02 -0.25480984177E+02  0.22012147630E+02  0.93429712328E+02  0.00000000000E+00 0.  1.
        -13    1    5    5    0    0 -0.47451134634E+03 -0.26460825520E+03  0.33789461266E+03  0.63980568596E+03  0.00000000000E+00 0. -1.
          2    1    6    6  503    0  0.88504439424E+02 -0.32996106190E+02  0.17399836437E+03  0.19798285184E+03  0.00000000000E+00 0. -1.
         -2    1    6    6    0  503  0.23909722307E+03 -0.94740436833E+02  0.22799842960E+03  0.34369538308E+03  0.00000000000E+00 0.  1.
<mgrwt>
<rscale>  0 0.15947154E+04</rscale>
<asrwt>0</asrwt>
<pdfrwt beam="1">  1        1 0.19287838E+00 0.15947154E+04</pdfrwt>
<pdfrwt beam="2">  1       -2 0.78018233E-01 0.15947154E+04</pdfrwt>
<totfact> 0.12025850E+01</totfact>
</mgrwt>
</event>
<event>
12    5  0.5029243E-008  0.1475694E+04  0.7818608E-02  0.8900779E-01
          1   -1    0    0  501    0  0.00000000000E+00  0.00000000000E+00  0.90480664281E+03  0.90480664281E+03  0.00000000000E+00 0. -1.
         -2   -1    0    0    0  501 -0.00000000000E+00 -0.00000000000E+00 -0.60169559440E+03  0.60169559440E+03  0.00000000000E+00 0.  1.
        -24    2    1    2    0    0 -0.30269898241E+03  0.12858986051E+03 -0.22738564267E+03  0.40754241677E+03  0.78895911147E+02 0.  0.
        254    2    1    2    0    0  0.30269898241E+03 -0.12858986051E+03  0.53049669108E+03  0.10989598204E+04  0.90450202958E+03 0.  0.
         23    2    4    4    0    0 -0.26009169610E+03  0.12986306701E+03  0.30881109494E+03  0.43402421199E+03  0.92198794397E+02 0.  0.
         23    2    4    4    0    0  0.56279067851E+03 -0.25845292752E+03  0.22168559615E+03  0.66493560845E+03  0.97281017082E+02 0.  0.
          3    1    3    3  502    0 -0.43082370656E+02 -0.94156522432E+01 -0.26465737211E+02  0.51431317450E+02  0.00000000000E+00 0. -1.
         -4    1    3    3    0  502 -0.25961661176E+03  0.13800551276E+03 -0.20091990546E+03  0.35611109932E+03  0.00000000000E+00 0.  1.
         13    1    5    5    0    0 -0.34968498919E+02  0.47028016892E+02  0.10041304729E+03  0.11626353837E+03  0.00000000000E+00 0. -1.
        -13    1    5    5    0    0 -0.22512319718E+03  0.82835050117E+02  0.20839804765E+03  0.31776067362E+03  0.00000000000E+00 0.  1.
          3    1    6    6  503    0  0.89117534074E+02 -0.51367219176E+02  0.10726524953E+01  0.10286727696E+03  0.00000000000E+00 0. -1.
         -3    1    6    6    0  503  0.47367314443E+03 -0.20708570834E+03  0.22061294365E+03  0.56206833149E+03  0.00000000000E+00 0.  1.
<mgrwt>
<rscale>  0 0.14756940E+04</rscale>
<asrwt>0</asrwt>
<pdfrwt beam="1">  1        1 0.13920102E+00 0.14756940E+04</pdfrwt>
<pdfrwt beam="2">  1       -2 0.92568553E-01 0.14756940E+04</pdfrwt>
<totfact> 0.15166424E+01</totfact>
</mgrwt>
</event>
<event>
12    5  0.5029243E-008  0.3528568E+04  0.7818608E-02  0.8107053E-01
         -2   -1    0    0    0  501 -0.00000000000E+00  0.00000000000E+00  0.17320896362E+04  0.17320896362E+04  0.00000000000E+00 0.  1.
          1   -1    0    0  501    0  0.00000000000E+00 -0.00000000000E+00 -0.17970768966E+04  0.17970768966E+04  0.00000000000E+00 0. -1.
        -24    2    1    2    0    0  0.45037552606E+03 -0.12021423477E+04  0.10014973339E+04  0.16302149286E+04  0.81360094713E+02 0.  0.
        254    2    1    2    0    0 -0.45037552606E+03  0.12021423477E+04 -0.10664845943E+04  0.18989516041E+04  0.90589373881E+03 0.  0.
         23    2    4    4    0    0 -0.48117023095E+03  0.11149282836E+04 -0.49761954887E+03  0.13154563806E+04  0.90611286148E+02 0.  0.
         23    2    4    4    0    0  0.30794704886E+02  0.87214064162E+02 -0.56886504547E+03  0.58349522349E+03  0.91129737425E+02 0.  0.
          1    1    3    3  502    0  0.16103275465E+03 -0.33450079944E+03  0.26965725484E+03  0.45884351144E+03  0.00000000000E+00 0. -1.
         -4    1    3    3    0  502  0.28934277141E+03 -0.86764154828E+03  0.73184007910E+03  0.11713714172E+04  0.00000000000E+00 0.  1.
         13    1    5    5    0    0 -0.21978011338E+03  0.57822652049E+03 -0.29224471620E+03  0.68414631578E+03  0.00000000000E+00 0. -1.
        -13    1    5    5    0    0 -0.26139011757E+03  0.53670176306E+03 -0.20537483267E+03  0.63131006481E+03  0.00000000000E+00 0.  1.
          1    1    6    6  503    0  0.10062894801E+02  0.46944401464E+02 -0.49155791186E+03  0.49389697245E+03  0.00000000000E+00 0. -1.
         -1    1    6    6    0  503  0.20731810085E+02  0.40269662699E+02 -0.77307133613E+02  0.89598251047E+02  0.00000000000E+00 0.  1.
<mgrwt>
<rscale>  0 0.35285681E+04</rscale>
<asrwt>0</asrwt>
<pdfrwt beam="1">  1        1 0.27647337E+00 0.35285681E+04</pdfrwt>
<pdfrwt beam="2">  1       -2 0.26647533E+00 0.35285681E+04</pdfrwt>
<totfact> 0.14910052E-01</totfact>
</mgrwt>
</event>
<event>
12    5  0.5029243E-008  0.2773761E+04  0.7818608E-02  0.8311461E-01
          1   -1    0    0  501    0  0.00000000000E+00  0.00000000000E+00  0.10424860848E+04  0.10424860848E+04  0.00000000000E+00 0. -1.
         -2   -1    0    0    0  501 -0.00000000000E+00 -0.00000000000E+00 -0.18450490215E+04  0.18450490215E+04  0.00000000000E+00 0.  1.
        -24    2    1    2    0    0  0.15882788646E+03 -0.37428749033E+03 -0.15790078040E+04  0.16326402798E+04  0.83253919325E+02 0.  0.
        254    2    1    2    0    0 -0.15882788646E+03  0.37428749033E+03  0.77644486734E+03  0.12548948265E+04  0.89809630360E+03 0.  0.
         23    2    4    4    0    0  0.10980636296E+03  0.25341737786E+03 -0.11428603079E+03  0.31231606158E+03  0.90566112507E+02 0.  0.
         23    2    4    4    0    0 -0.26863424943E+03  0.12087011247E+03  0.89073089813E+03  0.94257876490E+03  0.90990390154E+02 0.  0.
          1    1    3    3  502    0  0.17182710188E+02 -0.40162111436E+02 -0.29923173550E+03  0.30240349246E+03  0.00000000000E+00 0. -1.
         -2    1    3    3    0  502  0.14164517627E+03 -0.33412537890E+03 -0.12797760685E+04  0.13302367873E+04  0.00000000000E+00 0.  1.
         13    1    5    5    0    0  0.67147751399E+02  0.23130868380E+03 -0.10762217992E+03  0.26380875901E+03  0.00000000000E+00 0.  1.
        -13    1    5    5    0    0  0.42658611566E+02  0.22108694062E+02 -0.66638508676E+01  0.48507302566E+02  0.00000000000E+00 0. -1.
          1    1    6    6  503    0 -0.49436128047E+02  0.18983025624E+02  0.75166640796E+02  0.91947321368E+02  0.00000000000E+00 0. -1.
         -1    1    6    6    0  503 -0.21919812138E+03  0.10188708685E+03  0.81556425733E+03  0.85063144353E+03  0.00000000000E+00 0.  1.
<mgrwt>
<rscale>  0 0.27737613E+04</rscale>
<asrwt>0</asrwt>
<pdfrwt beam="1">  1        1 0.16038248E+00 0.27737613E+04</pdfrwt>
<pdfrwt beam="2">  1       -2 0.28385369E+00 0.27737613E+04</pdfrwt>
<totfact> 0.42591514E-01</totfact>
</mgrwt>
</event>
<event>
12    5  0.5029243E-008  0.1368532E+04  0.7818608E-02  0.8976917E-01
          1   -1    0    0  501    0  0.00000000000E+00  0.00000000000E+00  0.17914655901E+04  0.17914655901E+04  0.00000000000E+00 0. -1.
         -2   -1    0    0    0  501 -0.00000000000E+00 -0.00000000000E+00 -0.26136122733E+03  0.26136122733E+03  0.00000000000E+00 0.  1.
        -24    2    1    2    0    0  0.32413748670E+02  0.14095410116E+03 -0.77321624896E+02  0.19741034179E+03  0.10987947775E+03 0.  0.
        254    2    1    2    0    0 -0.32413748670E+02 -0.14095410116E+03  0.16074259876E+04  0.18554164756E+04  0.91533233448E+03 0.  0.
         23    2    4    4    0    0 -0.35419017790E+03 -0.12410203765E+03  0.25734574440E+03  0.46405524364E+03  0.90930957986E+02 0.  0.
         23    2    4    4    0    0  0.32177642923E+03 -0.16852063509E+02  0.13500802432E+04  0.13913612320E+04  0.96671362000E+02 0.  0.
          3    1    3    3  502    0  0.48858563503E+02  0.16419733123E+02 -0.43172994072E+02  0.67235959728E+02  0.00000000000E+00 0. -1.
         -4    1    3    3    0  502 -0.16444814832E+02  0.12453436804E+03 -0.34148630824E+02  0.13017438206E+03  0.00000000000E+00 0.  1.
         13    1    5    5    0    0 -0.44855259915E+02 -0.35813262064E+02  0.99876784182E+01  0.58260945769E+02  0.00000000000E+00 0. -1.
        -13    1    5    5    0    0 -0.30933491798E+03 -0.88288775585E+02  0.24735806598E+03  0.40579429787E+03  0.00000000000E+00 0.  1.
          3    1    6    6  503    0  0.19551361437E+03  0.30726595711E+02  0.70088075565E+03  0.72828808224E+03  0.00000000000E+00 0. -1.
         -3    1    6    6    0  503  0.12626281486E+03 -0.47578659221E+02  0.64919948759E+03  0.66307314975E+03  0.00000000000E+00 0.  1.
<mgrwt>
<rscale>  0 0.13685315E+04</rscale>
<asrwt>0</asrwt>
<pdfrwt beam="1">  1        1 0.27561008E+00 0.13685315E+04</pdfrwt>
<pdfrwt beam="2">  1       -2 0.40209421E-01 0.13685315E+04</pdfrwt>
<totfact> 0.20744253E+01</totfact>
</mgrwt>
</event>
<event>
12    5  0.5029243E-008  0.2032202E+04  0.7818608E-02  0.8591711E-01
          1   -1    0    0  501    0  0.00000000000E+00  0.00000000000E+00  0.81428881846E+03  0.81428881846E+03  0.00000000000E+00 0. -1.
         -2   -1    0    0    0  501 -0.00000000000E+00 -0.00000000000E+00 -0.12679299234E+04  0.12679299234E+04  0.00000000000E+00 0.  1.
        -24    2    1    2    0    0 -0.17513277167E+03 -0.64886398977E+03 -0.64743620257E+03  0.93676489808E+03  0.81601917498E+02 0.  0.
        254    2    1    2    0    0  0.17513277167E+03  0.64886398977E+03  0.19379509760E+03  0.11454538438E+04  0.90708985415E+03 0.  0.
         23    2    4    4    0    0  0.22911950930E+03  0.69365875534E+03  0.44997741653E+03  0.86329184760E+03  0.95576777245E+02 0.  0.
         23    2    4    4    0    0 -0.53986737624E+02 -0.44794765575E+02 -0.25618231893E+03  0.28216199621E+03  0.95209625091E+02 0.  0.
          3    1    3    3  502    0 -0.14651147971E+03 -0.39186607598E+03 -0.39342736236E+03  0.57429062734E+03  0.00000000000E+00 0. -1.
         -4    1    3    3    0  502 -0.28621291960E+02 -0.25699791379E+03 -0.25400884021E+03  0.36247427074E+03  0.00000000000E+00 0.  1.
         13    1    5    5    0    0  0.10188547211E+03  0.35159628345E+03  0.27902808256E+03  0.46027955290E+03  0.00000000000E+00 0. -1.
        -13    1    5    5    0    0  0.12723403718E+03  0.34206247190E+03  0.17094933397E+03  0.40301229471E+03  0.00000000000E+00 0.  1.
          2    1    6    6  503    0 -0.24784834160E+02  0.21551660617E+02 -0.29416122112E+02  0.44091612806E+02  0.00000000000E+00 0.  1.
         -2    1    6    6    0  503 -0.29201903463E+02 -0.66346426192E+02 -0.22676619681E+03  0.23807038340E+03  0.00000000000E+00 0. -1.
<mgrwt>
<rscale>  0 0.20322019E+04</rscale>
<asrwt>0</asrwt>
<pdfrwt beam="1">  1        1 0.12527520E+00 0.20322019E+04</pdfrwt>
<pdfrwt beam="2">  1       -2 0.19506614E+00 0.20322019E+04</pdfrwt>
<totfact> 0.24959678E+00</totfact>
</mgrwt>
</event>
<event>
12    5  0.5029243E-008  0.1170305E+04  0.7818608E-02  0.9139253E-01
          1   -1    0    0  501    0  0.00000000000E+00  0.00000000000E+00  0.83461480558E+03  0.83461480558E+03  0.00000000000E+00 0. -1.
         -2   -1    0    0    0  501 -0.00000000000E+00 -0.00000000000E+00 -0.41025360669E+03  0.41025360669E+03  0.00000000000E+00 0.  1.
        -24    2    1    2    0    0 -0.40932362559E+02  0.58200497412E+02 -0.15182776684E+03  0.18034507680E+03  0.66407226551E+02 0.  0.
        254    2    1    2    0    0  0.40932362559E+02 -0.58200497412E+02  0.57618896573E+03  0.10645233355E+04  0.89227431395E+03 0.  0.
         23    2    4    4    0    0  0.23994083805E+03 -0.14511377728E+03 -0.12817152149E+03  0.32187105581E+03  0.92430641691E+02 0.  0.
         23    2    4    4    0    0 -0.19900847549E+03  0.86913279869E+02  0.70436048722E+03  0.74265227966E+03  0.90831828093E+02 0.  0.
          1    1    3    3  502    0 -0.13955609768E+02  0.36924706361E+02 -0.20268269884E+02  0.44373367552E+02  0.00000000000E+00 0. -1.
         -2    1    3    3    0  502 -0.26976752791E+02  0.21275791051E+02 -0.13155949696E+03  0.13597170925E+03  0.00000000000E+00 0.  1.
         13    1    5    5    0    0  0.37565770934E+01 -0.16850013937E+01 -0.27458959212E+02  0.27765906111E+02  0.00000000000E+00 0. -1.
        -13    1    5    5    0    0  0.23618426096E+03 -0.14342877589E+03 -0.10071256228E+03  0.29410514970E+03  0.00000000000E+00 0.  1.
          2    1    6    6  503    0 -0.22679839416E+02  0.42751084071E+02  0.22113345911E+03  0.22636704054E+03  0.00000000000E+00 0. -1.
         -2    1    6    6    0  503 -0.17632863608E+03  0.44162195798E+02  0.48322702811E+03  0.51628523912E+03  0.00000000000E+00 0.  1.
<mgrwt>
<rscale>  0 0.11703055E+04</rscale>
<asrwt>0</asrwt>
<pdfrwt beam="1">  1        1 0.12840228E+00 0.11703055E+04</pdfrwt>
<pdfrwt beam="2">  1       -2 0.63115940E-01 0.11703055E+04</pdfrwt>
<totfact> 0.41717424E+01</totfact>
</mgrwt>
</event>
<event>
12    5  0.5029243E-008  0.3039662E+04  0.7818608E-02  0.8232495E-01
          1   -1    0    0  501    0  0.00000000000E+00  0.00000000000E+00  0.41800852205E+04  0.41800852205E+04  0.00000000000E+00 0. -1.
         -2   -1    0    0    0  501 -0.00000000000E+00 -0.00000000000E+00 -0.55259314578E+03  0.55259314578E+03  0.00000000000E+00 0.  1.
        -24    2    1    2    0    0  0.13678125659E+04 -0.19923721925E+03  0.17795695892E+04  0.22549203292E+04  0.84800254623E+02 0.  0.
        254    2    1    2    0    0 -0.13678125659E+04  0.19923721925E+03  0.18479224854E+04  0.24777580370E+04  0.90214227967E+03 0.  0.
         23    2    4    4    0    0 -0.90601541939E+03  0.15577573786E+03  0.17722439413E+04  0.19986520557E+04  0.92905499634E+02 0.  0.
         23    2    4    4    0    0 -0.46179714652E+03  0.43461481386E+02  0.75678544179E+02  0.47910598128E+03  0.93111730456E+02 0.  0.
          1    1    3    3  502    0  0.71529804413E+03 -0.10594605345E+03  0.86189006725E+03  0.11250468196E+04  0.00000000000E+00 0. -1.
         -2    1    3    3    0  502  0.65251452178E+03 -0.93291165797E+02  0.91767952199E+03  0.11298735097E+04  0.00000000000E+00 0.  1.
         13    1    5    5    0    0 -0.87395570094E+03  0.14629928417E+03  0.16622123299E+04  0.18836538635E+04  0.00000000000E+00 0. -1.
        -13    1    5    5    0    0 -0.32059718449E+02  0.94764536940E+01  0.11003161131E+03  0.11499819220E+03  0.00000000000E+00 0.  1.
          1    1    6    6  503    0 -0.44634757688E+03  0.25148733437E+02  0.81562325142E+02  0.45443484799E+03  0.00000000000E+00 0. -1.
         -1    1    6    6    0  503 -0.15449569639E+02  0.18312747949E+02 -0.58837809632E+01  0.24671133291E+02  0.00000000000E+00 0.  1.
<mgrwt>
<rscale>  0 0.30396621E+04</rscale>
<asrwt>0</asrwt>
<pdfrwt beam="1">  1        1 0.64309001E+00 0.30396621E+04</pdfrwt>
<pdfrwt beam="2">  1       -2 0.85014333E-01 0.30396621E+04</pdfrwt>
<totfact> 0.59299704E-02</totfact>
</mgrwt>
</event>
<event>
12    5  0.5029243E-008  0.1787044E+04  0.7818608E-02  0.8713220E-01
          1   -1    0    0  501    0  0.00000000000E+00  0.00000000000E+00  0.12569740447E+04  0.12569740447E+04  0.00000000000E+00 0. -1.
         -2   -1    0    0    0  501 -0.00000000000E+00 -0.00000000000E+00 -0.63516130893E+03  0.63516130893E+03  0.00000000000E+00 0.  1.
        -24    2    1    2    0    0 -0.12755198963E+03 -0.34902759389E+03  0.80283604736E+03  0.88817614322E+03  0.78875668516E+02 0.  0.
        254    2    1    2    0    0  0.12755198963E+03  0.34902759389E+03 -0.18102331158E+03  0.10039592104E+04  0.91491796654E+03 0.  0.
         23    2    4    4    0    0 -0.63424845673E+02  0.42004512642E+03  0.26144869885E+03  0.50802901589E+03  0.96319466263E+02 0.  0.
         23    2    4    4    0    0  0.19097683530E+03 -0.71017532532E+02 -0.44247201044E+03  0.49593019452E+03  0.93003420743E+02 0.  0.
          3    1    3    3  502    0 -0.10316486352E+03 -0.18892690372E+03  0.50946013314E+03  0.55306960798E+03  0.00000000000E+00 0. -1.
         -4    1    3    3    0  502 -0.24387126112E+02 -0.16010069017E+03  0.29337591422E+03  0.33510653523E+03  0.00000000000E+00 0.  1.
         13    1    5    5    0    0 -0.59032415383E+01  0.15809346801E+03  0.14864063598E+03  0.21707701756E+03  0.00000000000E+00 0. -1.
        -13    1    5    5    0    0 -0.57521604135E+02  0.26195165840E+03  0.11280806287E+03  0.29095199833E+03  0.00000000000E+00 0.  1.
          3    1    6    6  503    0  0.15013184925E+03 -0.19731379633E+02 -0.36016617075E+03  0.39070266195E+03  0.00000000000E+00 0. -1.
         -3    1    6    6    0  503  0.40844986056E+02 -0.51286152899E+02 -0.82305839686E+02  0.10522753257E+03  0.00000000000E+00 0.  1.
<mgrwt>
<rscale>  0 0.17870437E+04</rscale>
<asrwt>0</asrwt>
<pdfrwt beam="1">  1        1 0.19338062E+00 0.17870437E+04</pdfrwt>
<pdfrwt beam="2">  1       -2 0.97717125E-01 0.17870437E+04</pdfrwt>
<totfact> 0.70216730E+00</totfact>
</mgrwt>
</event>
<event>
12    5  0.5029243E-008  0.1744822E+04  0.7818608E-02  0.8736206E-01
         -2   -1    0    0    0  501 -0.00000000000E+00  0.00000000000E+00  0.54153918031E+03  0.54153918031E+03  0.00000000000E+00 0.  1.
          1   -1    0    0  501    0  0.00000000000E+00 -0.00000000000E+00 -0.14054404447E+04  0.14054404447E+04  0.00000000000E+00 0. -1.
        -24    2    1    2    0    0  0.27349017902E+03 -0.49391569893E+03 -0.66780582369E+03  0.87822443495E+03  0.81018172756E+02 0.  0.
        254    2    1    2    0    0 -0.27349017902E+03  0.49391569893E+03 -0.19609544066E+03  0.10687551900E+04  0.88602180485E+03 0.  0.
         23    2    4    4    0    0 -0.10894138310E+03  0.45885970285E+03 -0.51109377251E+03  0.70124947719E+03  0.90075152529E+02 0.  0.
         23    2    4    4    0    0 -0.16454879592E+03  0.35055996085E+02  0.31499833186E+03  0.36750571283E+03  0.86782894574E+02 0.  0.
          1    1    3    3  502    0  0.53320981897E+02 -0.13175146544E+03 -0.21755925298E+03  0.25987228462E+03  0.00000000000E+00 0. -1.
         -2    1    3    3    0  502  0.22016919712E+03 -0.36216423350E+03 -0.45024657072E+03  0.61835215034E+03  0.00000000000E+00 0.  1.
         13    1    5    5    0    0 -0.66986657825E+02  0.11033107323E+03 -0.14029012742E+03  0.19063440901E+03  0.00000000000E+00 0.  1.
        -13    1    5    5    0    0 -0.41954725277E+02  0.34852862961E+03 -0.37080364509E+03  0.51061506817E+03  0.00000000000E+00 0. -1.
          4    1    6    6  503    0 -0.11568596689E+03 -0.49969103636E+01  0.25639699659E+03  0.28133188925E+03  0.00000000000E+00 0. -1.
         -4    1    6    6    0  503 -0.48862829024E+02  0.40052906449E+02  0.58601335269E+02  0.86173823581E+02  0.00000000000E+00 0.  1.
<mgrwt>
<rscale>  0 0.17448221E+04</rscale>
<asrwt>0</asrwt>
<pdfrwt beam="1">  1        1 0.21622160E+00 0.17448221E+04</pdfrwt>
<pdfrwt beam="2">  1       -2 0.83313722E-01 0.17448221E+04</pdfrwt>
<totfact> 0.79887835E+00</totfact>
</mgrwt>
</event>
<event>
12    5  0.5134908E-008  0.1982550E+04  0.7818608E-02  0.8614823E-01
         -2   -1    0    0    0  501 -0.00000000000E+00  0.00000000000E+00  0.78854745312E+03  0.78854745312E+03  0.00000000000E+00 0.  1.
          1   -1    0    0  501    0  0.00000000000E+00 -0.00000000000E+00 -0.12461215081E+04  0.12461215081E+04  0.00000000000E+00 0. -1.
        -24    2    1    2    0    0  0.13235316378E+03  0.71874482651E+02  0.60911115642E+03  0.63266078912E+03  0.80993654041E+02 0.  0.
        254    2    1    2    0    0 -0.13235316378E+03 -0.71874482651E+02 -0.10666852114E+04  0.14020081721E+04  0.89728828878E+03 0.  0.
         23    2    4    4    0    0  0.13209408949E+02  0.97391053966E+02 -0.11435578314E+04  0.11512609372E+04  0.89541754932E+02 0.  0.
         23    2    4    4    0    0 -0.14556257273E+03 -0.16926553662E+03  0.76872619923E+02  0.25074723497E+03  0.84412627512E+02 0.  0.
          1    1    3    3  502    0  0.66297384698E+02  0.50998501206E+02  0.18634526806E+03  0.20425657706E+03  0.00000000000E+00 0. -1.
         -2    1    3    3    0  502  0.66055779087E+02  0.20875981445E+02  0.42276588836E+03  0.42840421207E+03  0.00000000000E+00 0.  1.
         13    1    5    5    0    0  0.20727147893E+02  0.70560130621E+02 -0.10712298993E+04  0.10737512952E+04  0.00000000000E+00 0. -1.
        -13    1    5    5    0    0 -0.75177389445E+01  0.26830923345E+02 -0.72327932016E+02  0.77509641956E+02  0.00000000000E+00 0.  1.
          1    1    6    6  503    0 -0.14375899755E+03 -0.17853850455E+03  0.74124941857E+02  0.24090901600E+03  0.00000000000E+00 0. -1.
         -1    1    6    6    0  503 -0.18035751796E+01  0.92729679333E+01  0.27476780662E+01  0.98382189687E+01  0.00000000000E+00 0.  1.
<mgrwt>
<rscale>  0 0.19825498E+04</rscale>
<asrwt>0</asrwt>
<pdfrwt beam="1">  1        1 0.19171100E+00 0.19825498E+04</pdfrwt>
<pdfrwt beam="2">  1       -2 0.12131499E+00 0.19825498E+04</pdfrwt>
<totfact> 0.41659147E+00</totfact>
</mgrwt>
</event>
<event>
12    5  0.5029243E-008  0.2298591E+04  0.7818608E-02  0.8478477E-01
         -2   -1    0    0    0  501 -0.00000000000E+00  0.00000000000E+00  0.46594439459E+03  0.46594439459E+03  0.00000000000E+00 0.  1.
          1   -1    0    0  501    0  0.00000000000E+00 -0.00000000000E+00 -0.28348450655E+04  0.28348450655E+04  0.00000000000E+00 0. -1.
        -24    2    1    2    0    0  0.94855952764E+03  0.10694390692E+03 -0.12586650941E+04  0.15817267467E+04  0.80121814802E+02 0.  0.
        254    2    1    2    0    0 -0.94855952764E+03 -0.10694390692E+03 -0.11102355768E+04  0.17190627134E+04  0.90075046493E+03 0.  0.
         23    2    4    4    0    0 -0.90135799760E+03  0.24245572950E+03 -0.89367961105E+03  0.12953821326E+04  0.90114381545E+02 0.  0.
         23    2    4    4    0    0 -0.47201530041E+02 -0.34939963642E+03 -0.21655596570E+03  0.42368058077E+03  0.91107946264E+02 0.  0.
          1    1    3    3  502    0  0.34329054554E+03  0.17367328761E+02 -0.40063019146E+03  0.52787742239E+03  0.00000000000E+00 0. -1.
         -2    1    3    3    0  502  0.60526898210E+03  0.89576578163E+02 -0.85803490268E+03  0.10538493243E+04  0.00000000000E+00 0.  1.
         13    1    5    5    0    0 -0.12155773206E+03  0.26035847221E+01 -0.10514423264E+03  0.16074318193E+03  0.00000000000E+00 0. -1.
        -13    1    5    5    0    0 -0.77980026554E+03  0.23985214478E+03 -0.78853537841E+03  0.11346389507E+04  0.00000000000E+00 0.  1.
          1    1    6    6  503    0 -0.69124762056E+02 -0.18474166152E+03 -0.10359159878E+03  0.22279796580E+03  0.00000000000E+00 0. -1.
         -1    1    6    6    0  503  0.21923232014E+02 -0.16465797491E+03 -0.11296436692E+03  0.20088261497E+03  0.00000000000E+00 0.  1.
<mgrwt>
<rscale>  0 0.22985910E+04</rscale>
<asrwt>0</asrwt>
<pdfrwt beam="1">  1        1 0.43613001E+00 0.22985910E+04</pdfrwt>
<pdfrwt beam="2">  1       -2 0.71683753E-01 0.22985910E+04</pdfrwt>
<totfact> 0.11036326E+00</totfact>
</mgrwt>
</event>
<event>
12    5  0.5029243E-008  0.1705513E+04  0.7818608E-02  0.8758227E-01
          1   -1    0    0  501    0  0.00000000000E+00  0.00000000000E+00  0.12590744492E+04  0.12590744492E+04  0.00000000000E+00 0. -1.
         -2   -1    0    0    0  501 -0.00000000000E+00 -0.00000000000E+00 -0.57756177566E+03  0.57756177566E+03  0.00000000000E+00 0.  1.
        -24    2    1    2    0    0 -0.45674311349E+03 -0.77101455624E+02 -0.37770814551E+02  0.47169318029E+03  0.80677851480E+02 0.  0.
        254    2    1    2    0    0  0.45674311349E+03  0.77101455624E+02  0.71928348808E+03  0.13649430446E+04  0.10635515373E+04 0.  0.
         23    2    4    4    0    0  0.40167031918E+03  0.46563269545E+03  0.73399495000E+03  0.96182874569E+03  0.90626138742E+02 0.  0.
         23    2    4    4    0    0  0.55072794310E+02 -0.38853123982E+03 -0.14711461922E+02  0.40311429888E+03  0.91077845052E+02 0.  0.
          1    1    3    3  502    0 -0.43780786704E+02 -0.32069027236E+02  0.25580482720E+01  0.54329765353E+02  0.00000000000E+00 0. -1.
         -2    1    3    3    0  502 -0.41296232679E+03 -0.45032428388E+02 -0.40328862823E+02  0.41736341494E+03  0.00000000000E+00 0.  1.
         13    1    5    5    0    0  0.30518034293E+03  0.28918408220E+03  0.50184335906E+03  0.65468254302E+03  0.00000000000E+00 0. -1.
        -13    1    5    5    0    0  0.96489976250E+02  0.17644861324E+03  0.23215159095E+03  0.30714620267E+03  0.00000000000E+00 0.  1.
          2    1    6    6  503    0  0.12285754484E+02 -0.31804303428E+03  0.50544726634E+01  0.31832037181E+03  0.00000000000E+00 0. -1.
         -2    1    6    6    0  503  0.42787039825E+02 -0.70488205545E+02 -0.19765934586E+02  0.84793927070E+02  0.00000000000E+00 0.  1.
<mgrwt>
<rscale>  0 0.17055126E+04</rscale>
<asrwt>0</asrwt>
<pdfrwt beam="1">  1        1 0.19370376E+00 0.17055126E+04</pdfrwt>
<pdfrwt beam="2">  1       -2 0.88855658E-01 0.17055126E+04</pdfrwt>
<totfact> 0.87908947E+00</totfact>
</mgrwt>
</event>
<event>
12    5  0.5029243E-008  0.1136003E+04  0.7818608E-02  0.9170795E-01
          1   -1    0    0  501    0  0.00000000000E+00  0.00000000000E+00  0.65637511360E+03  0.65637511360E+03  0.00000000000E+00 0. -1.
         -2   -1    0    0    0  501 -0.00000000000E+00 -0.00000000000E+00 -0.49152610547E+03  0.49152610547E+03  0.00000000000E+00 0.  1.
        -24    2    1    2    0    0  0.11769017632E+03  0.11323122854E+03 -0.83361260849E+02  0.19984040180E+03  0.79465701163E+02 0.  0.
        254    2    1    2    0    0 -0.11769017632E+03 -0.11323122854E+03  0.24821026898E+03  0.94806081727E+03  0.90029922076E+03 0.  0.
         23    2    4    4    0    0 -0.47989563651E+03  0.78357179102E+02  0.10991286949E+03  0.50477519883E+03  0.79230631808E+02 0.  0.
         23    2    4    4    0    0  0.36220546019E+03 -0.19158840764E+03  0.13829739949E+03  0.44328561843E+03  0.97350169340E+02 0.  0.
          1    1    3    3  502    0  0.48091846598E+01  0.49815015584E+01  0.13996763055E+02  0.15615792996E+02  0.00000000000E+00 0. -1.
         -2    1    3    3    0  502  0.11288099166E+03  0.10824972698E+03 -0.97358023904E+02  0.18422460880E+03  0.00000000000E+00 0.  1.
         13    1    5    5    0    0 -0.43760946330E+03  0.93559077686E+02  0.95409293804E+02  0.45755685628E+03  0.00000000000E+00 0. -1.
        -13    1    5    5    0    0 -0.42286173213E+02 -0.15201898583E+02  0.14503575689E+02  0.47218342552E+02  0.00000000000E+00 0.  1.
          4    1    6    6  503    0  0.30638403595E+03 -0.19671867286E+03  0.13002862757E+03  0.38662237096E+03  0.00000000000E+00 0. -1.
         -4    1    6    6    0  503  0.55821424239E+02  0.51302652200E+01  0.82687719158E+01  0.56663247474E+02  0.00000000000E+00 0.  1.
<mgrwt>
<rscale>  0 0.11360026E+04</rscale>
<asrwt>0</asrwt>
<pdfrwt beam="1">  1        1 0.10098079E+00 0.11360026E+04</pdfrwt>
<pdfrwt beam="2">  1       -2 0.75619401E-01 0.11360026E+04</pdfrwt>
<totfact> 0.40978764E+01</totfact>
</mgrwt>
</event>
<event>
12    5  0.5029243E-008  0.2072160E+04  0.7818608E-02  0.8573607E-01
         -2   -1    0    0    0  501 -0.00000000000E+00  0.00000000000E+00  0.83882113569E+03  0.83882113569E+03  0.00000000000E+00 0.  1.
          1   -1    0    0  501    0  0.00000000000E+00 -0.00000000000E+00 -0.12797263537E+04  0.12797263537E+04  0.00000000000E+00 0. -1.
        -24    2    1    2    0    0 -0.27450599051E+03 -0.65145831662E+03  0.28431015687E+03  0.76616465948E+03  0.80153247045E+02 0.  0.
        254    2    1    2    0    0  0.27450599051E+03  0.65145831662E+03 -0.72521537485E+03  0.13523828299E+04  0.89624243456E+03 0.  0.
         23    2    4    4    0    0  0.40094121881E+03 -0.20646107677E+02 -0.10208846043E+03  0.42306902654E+03  0.85937330415E+02 0.  0.
         23    2    4    4    0    0 -0.12643522830E+03  0.67210442430E+03 -0.62312691442E+03  0.92931380334E+03  0.87331377404E+02 0.  0.
          1    1    3    3  502    0 -0.16699993850E+02 -0.16081992682E+02  0.22166013375E+02  0.32075729643E+02  0.00000000000E+00 0. -1.
         -2    1    3    3    0  502 -0.25780599666E+03 -0.63537632394E+03  0.26214414350E+03  0.73408892984E+03  0.00000000000E+00 0.  1.
         13    1    5    5    0    0  0.33155853309E+03 -0.19353971093E+01 -0.11319607381E+03  0.35035433172E+03  0.00000000000E+00 0. -1.
        -13    1    5    5    0    0  0.69382685720E+02 -0.18710710568E+02  0.11107613381E+02  0.72714694820E+02  0.00000000000E+00 0.  1.
          4    1    6    6  503    0 -0.55528657300E+02  0.23614552705E+03 -0.16787126508E+03  0.29500661580E+03  0.00000000000E+00 0.  1.
         -4    1    6    6    0  503 -0.70906571003E+02  0.43595889725E+03 -0.45525564934E+03  0.63430718753E+03  0.00000000000E+00 0. -1.
<mgrwt>
<rscale>  0 0.20721598E+04</rscale>
<asrwt>0</asrwt>
<pdfrwt beam="1">  1        1 0.19688098E+00 0.20721598E+04</pdfrwt>
<pdfrwt beam="2">  1       -2 0.12904941E+00 0.20721598E+04</pdfrwt>
<totfact> 0.33475982E+00</totfact>
</mgrwt>
</event>
<event>
12    5  0.5391042E-008  0.1561655E+04  0.7818608E-02  0.8844457E-01
         -2   -1    0    0    0  501 -0.00000000000E+00  0.00000000000E+00  0.46772132613E+03  0.46772132613E+03  0.00000000000E+00 0.  1.
          1   -1    0    0  501    0  0.00000000000E+00 -0.00000000000E+00 -0.13035360767E+04  0.13035360767E+04  0.00000000000E+00 0. -1.
        -24    2    1    2    0    0  0.12952932324E+03 -0.77161730390E+01  0.28752629204E+03  0.32565095626E+03  0.80868979162E+02 0.  0.
        254    2    1    2    0    0 -0.12952932324E+03  0.77161730390E+01 -0.11233410426E+04  0.14456064466E+04  0.90058065460E+03 0.  0.
         23    2    4    4    0    0  0.26465801219E+03  0.29835481825E+03 -0.56166151258E+03  0.69491661009E+03  0.91574992651E+02 0.  0.
         23    2    4    4    0    0 -0.39418733543E+03 -0.29063864521E+03 -0.56167953001E+03  0.75068983647E+03  0.90536504458E+02 0.  0.
          1    1    3    3  502    0 -0.45278337050E+00 -0.10747469278E+02  0.75646231054E+00  0.10783568235E+02  0.00000000000E+00 0. -1.
         -2    1    3    3    0  502  0.12998210661E+03  0.30312962387E+01  0.28676982973E+03  0.31486738802E+03  0.00000000000E+00 0.  1.
         13    1    5    5    0    0  0.14081309618E+03  0.21550331763E+03 -0.39364455397E+03  0.47034672618E+03  0.00000000000E+00 0. -1.
        -13    1    5    5    0    0  0.12384491601E+03  0.82851500621E+02 -0.16801695862E+03  0.22456988391E+03  0.00000000000E+00 0.  1.
          3    1    6    6  503    0 -0.16355815393E+03 -0.17566400424E+03 -0.25724193780E+03  0.35182741034E+03  0.00000000000E+00 0. -1.
         -3    1    6    6    0  503 -0.23062918150E+03 -0.11497464096E+03 -0.30443759222E+03  0.39886242613E+03  0.00000000000E+00 0.  1.
<mgrwt>
<rscale>  0 0.15616550E+04</rscale>
<asrwt>0</asrwt>
<pdfrwt beam="1">  1        1 0.20054401E+00 0.15616550E+04</pdfrwt>
<pdfrwt beam="2">  1       -2 0.71957128E-01 0.15616550E+04</pdfrwt>
<totfact> 0.13287126E+01</totfact>
</mgrwt>
</event>
<event>
12    5  0.6795956E-008  0.2340184E+04  0.7818608E-02  0.8462244E-01
         -2   -1    0    0    0  501 -0.00000000000E+00  0.00000000000E+00  0.83583026270E+03  0.83583026270E+03  0.00000000000E+00 0.  1.
          1   -1    0    0  501    0  0.00000000000E+00 -0.00000000000E+00 -0.16380304314E+04  0.16380304314E+04  0.00000000000E+00 0. -1.
        -24    2    1    2    0    0 -0.38793956386E+02 -0.33749278650E+03  0.65062294741E+03  0.73822535945E+03  0.79120854712E+02 0.  0.
        254    2    1    2    0    0  0.38793956386E+02  0.33749278650E+03 -0.14528231161E+04  0.17356353346E+04  0.88675174436E+03 0.  0.
         23    2    4    4    0    0 -0.31197965157E+03 -0.77559552572E+02 -0.87675867757E+03  0.93839944161E+03  0.92417239353E+02 0.  0.
         23    2    4    4    0    0  0.35077360795E+03  0.41505233907E+03 -0.57606443853E+03  0.79723589301E+03  0.91783787082E+02 0.  0.
          3    1    3    3  502    0  0.20917766178E+02 -0.37594814982E+02  0.80468352440E+02  0.91247349550E+02  0.00000000000E+00 0. -1.
         -4    1    3    3    0  502 -0.59711722564E+02 -0.29989797152E+03  0.57015459497E+03  0.64697800990E+03  0.00000000000E+00 0.  1.
         13    1    5    5    0    0 -0.30249552465E+03 -0.63387445706E+02 -0.86239285495E+03  0.91610203960E+03  0.00000000000E+00 0. -1.
        -13    1    5    5    0    0 -0.94841269178E+01 -0.14172106866E+02 -0.14365822621E+02  0.22297402001E+02  0.00000000000E+00 0.  1.
          2    1    6    6  503    0  0.29322030542E+03  0.38770106028E+03 -0.49066123368E+03  0.69067988670E+03  0.00000000000E+00 0. -1.
         -2    1    6    6    0  503  0.57553302531E+02  0.27351278788E+02 -0.85403204843E+02  0.10655600631E+03  0.00000000000E+00 0.  1.
<mgrwt>
<rscale>  0 0.23401841E+04</rscale>
<asrwt>0</asrwt>
<pdfrwt beam="1">  1        1 0.25200468E+00 0.23401841E+04</pdfrwt>
<pdfrwt beam="2">  1       -2 0.12858927E+00 0.23401841E+04</pdfrwt>
<totfact> 0.18558422E+00</totfact>
</mgrwt>
</event>
<event>
12    5  0.5029243E-008  0.1231174E+04  0.7818608E-02  0.9085999E-01
          1   -1    0    0  501    0  0.00000000000E+00  0.00000000000E+00  0.10782781280E+04  0.10782781280E+04  0.00000000000E+00 0. -1.
         -2   -1    0    0    0  501 -0.00000000000E+00 -0.00000000000E+00 -0.35143766992E+03  0.35143766992E+03  0.00000000000E+00 0.  1.
        -24    2    1    2    0    0  0.23533171778E+03  0.14786156879E+03  0.23640534879E+03  0.37344786554E+03  0.79572347082E+02 0.  0.
        254    2    1    2    0    0 -0.23533171778E+03 -0.14786156879E+03  0.49043510932E+03  0.10562679324E+04  0.89326999708E+03 0.  0.
         23    2    4    4    0    0 -0.80261140302E+02  0.23313311019E+03  0.56873047909E+03  0.62734518307E+03  0.96512813477E+02 0.  0.
         23    2    4    4    0    0 -0.15507057748E+03 -0.38099467898E+03 -0.78295369772E+02  0.42892274935E+03  0.92955530078E+02 0.  0.
          1    1    3    3  502    0  0.22872018671E+03  0.11582101293E+03  0.21038641749E+03  0.33164721544E+03  0.00000000000E+00 0. -1.
         -4    1    3    3    0  502  0.66115310728E+01  0.32040555856E+02  0.26018931298E+02  0.41800650098E+02  0.00000000000E+00 0.  1.
         13    1    5    5    0    0 -0.49537046203E+01  0.17969563767E+02  0.50471460121E+01  0.19311087341E+02  0.00000000000E+00 0. -1.
        -13    1    5    5    0    0 -0.75307435681E+02  0.21516354642E+03  0.56368333308E+03  0.60803409573E+03  0.00000000000E+00 0.  1.
          2    1    6    6  503    0 -0.13888899924E+03 -0.36504778938E+03 -0.51761505595E+02  0.39399149243E+03  0.00000000000E+00 0.  1.
         -2    1    6    6    0  503 -0.16181578234E+02 -0.15946889595E+02 -0.26533864176E+02  0.34931256920E+02  0.00000000000E+00 0. -1.
<mgrwt>
<rscale>  0 0.12311743E+04</rscale>
<asrwt>0</asrwt>
<pdfrwt beam="1">  1        1 0.16588894E+00 0.12311743E+04</pdfrwt>
<pdfrwt beam="2">  1       -2 0.54067334E-01 0.12311743E+04</pdfrwt>
<totfact> 0.36728771E+01</totfact>
</mgrwt>
</event>
<event>
12    5  0.5029243E-008  0.1513238E+04  0.7818608E-02  0.8875698E-01
          1   -1    0    0  501    0  0.00000000000E+00  0.00000000000E+00  0.17763293608E+04  0.17763293608E+04  0.00000000000E+00 0. -1.
         -2   -1    0    0    0  501 -0.00000000000E+00 -0.00000000000E+00 -0.32227806264E+03  0.32227806264E+03  0.00000000000E+00 0.  1.
        -24    2    1    2    0    0  0.23200454742E+03 -0.30269836345E+03  0.88644382878E+03  0.96845533268E+03  0.81674111959E+02 0.  0.
        254    2    1    2    0    0 -0.23200454742E+03  0.30269836345E+03  0.56760746935E+03  0.11301520907E+04  0.89978502968E+03 0.  0.
         23    2    4    4    0    0  0.24016827903E+03  0.20766177514E+03 -0.57919214327E+02  0.33548849349E+03  0.91617022273E+02 0.  0.
         23    2    4    4    0    0 -0.47217282646E+03  0.95036588303E+02  0.62552668368E+03  0.79466359723E+03  0.90705400071E+02 0.  0.
          3    1    3    3  502    0  0.21752212434E+03 -0.30449114481E+03  0.86546690713E+03  0.94290174418E+03  0.00000000000E+00 0. -1.
         -4    1    3    3    0  502  0.14482423085E+02  0.17927813636E+01  0.20976921649E+02  0.25553588501E+02  0.00000000000E+00 0.  1.
         13    1    5    5    0    0  0.18177109403E+03  0.17882019723E+03 -0.79145493825E+02  0.26698577257E+03  0.00000000000E+00 0.  1.
        -13    1    5    5    0    0  0.58397184999E+02  0.28841577912E+02  0.21226279499E+02  0.68502720921E+02  0.00000000000E+00 0. -1.
          3    1    6    6  503    0 -0.19731009353E+01 -0.16072816772E+01 -0.29102598730E+01  0.38660178763E+01  0.00000000000E+00 0. -1.
         -3    1    6    6    0  503 -0.47019972552E+03  0.96643869981E+02  0.62843694355E+03  0.79079757935E+03  0.00000000000E+00 0.  1.
<mgrwt>
<rscale>  0 0.15132376E+04</rscale>
<asrwt>0</asrwt>
<pdfrwt beam="1">  1        1 0.27328143E+00 0.15132376E+04</pdfrwt>
<pdfrwt beam="2">  1       -2 0.49581242E-01 0.15132376E+04</pdfrwt>
<totfact> 0.13807843E+01</totfact>
</mgrwt>
</event>
<event>
12    5  0.5029243E-008  0.1697078E+04  0.7818608E-02  0.8763032E-01
         -2   -1    0    0    0  501 -0.00000000000E+00  0.00000000000E+00  0.67536952926E+03  0.67536952926E+03  0.00000000000E+00 0.  1.
          1   -1    0    0  501    0  0.00000000000E+00 -0.00000000000E+00 -0.10661108559E+04  0.10661108559E+04  0.00000000000E+00 0. -1.
        -24    2    1    2    0    0 -0.20211066738E+02 -0.36686564521E+03 -0.62833252185E+03  0.73222127374E+03  0.79670238221E+02 0.  0.
        254    2    1    2    0    0  0.20211066738E+02  0.36686564521E+03  0.23759119523E+03  0.10092591114E+04  0.90948088987E+03 0.  0.
         23    2    4    4    0    0  0.21673632963E+03  0.38485048278E+03  0.49505406713E+03  0.66982183527E+03  0.92185850071E+02 0.  0.
         23    2    4    4    0    0 -0.19652526289E+03 -0.17984837573E+02 -0.25746287190E+03  0.33943727613E+03  0.99924474892E+02 0.  0.
          1    1    3    3  502    0 -0.46674481013E+02 -0.15373775064E+03 -0.24980887256E+03  0.29701561568E+03  0.00000000000E+00 0. -1.
         -4    1    3    3    0  502  0.26463414274E+02 -0.21312789457E+03 -0.37852364929E+03  0.43520565806E+03  0.00000000000E+00 0.  1.
         13    1    5    5    0    0  0.81802112312E+02  0.11432975467E+03  0.22018911338E+03  0.26123959124E+03  0.00000000000E+00 0. -1.
        -13    1    5    5    0    0  0.13493421731E+03  0.27052072811E+03  0.27486495375E+03  0.40858224403E+03  0.00000000000E+00 0.  1.
          4    1    6    6  503    0 -0.48153634619E+02  0.36196150188E+02 -0.47617834442E+02  0.76787967628E+02  0.00000000000E+00 0. -1.
         -4    1    6    6    0  503 -0.14837162827E+03 -0.54180987761E+02 -0.20984503746E+03  0.26264930850E+03  0.00000000000E+00 0.  1.
<mgrwt>
<rscale>  0 0.16970784E+04</rscale>
<asrwt>0</asrwt>
<pdfrwt beam="1">  1        1 0.16401705E+00 0.16970784E+04</pdfrwt>
<pdfrwt beam="2">  1       -2 0.10390301E+00 0.16970784E+04</pdfrwt>
<totfact> 0.84634025E+00</totfact>
</mgrwt>
</event>
<event>
12    5  0.5029243E-008  0.2019839E+04  0.7818608E-02  0.8597401E-01
          1   -1    0    0  501    0  0.00000000000E+00  0.00000000000E+00  0.22052222227E+04  0.22052222227E+04  0.00000000000E+00 0. -1.
         -2   -1    0    0    0  501 -0.00000000000E+00 -0.00000000000E+00 -0.46250988115E+03  0.46250988115E+03  0.00000000000E+00 0.  1.
        -24    2    1    2    0    0 -0.57326088390E+03  0.81847397520E+02  0.14362574938E+04  0.15506687069E+04  0.80067550162E+02 0.  0.
        254    2    1    2    0    0  0.57326088390E+03 -0.81847397520E+02  0.30645484783E+03  0.11170633970E+04  0.90475909596E+03 0.  0.
         23    2    4    4    0    0 -0.93662736948E+02 -0.25758122466E+03 -0.10736748855E+03  0.30808414059E+03  0.90924498869E+02 0.  0.
         23    2    4    4    0    0  0.66692362085E+03  0.17573382714E+03  0.41382233638E+03  0.80897925644E+03  0.86769909605E+02 0.  0.
          1    1    3    3  502    0 -0.45924747150E+03  0.51189767794E+02  0.12145604582E+04  0.12994944167E+04  0.00000000000E+00 0. -1.
         -2    1    3    3    0  502 -0.11401341240E+03  0.30657629726E+02  0.22169703559E+03  0.25117429020E+03  0.00000000000E+00 0.  1.
         13    1    5    5    0    0 -0.75832763823E+02 -0.16745536262E+03 -0.11344091159E+03  0.21601098806E+03  0.00000000000E+00 0.  1.
        -13    1    5    5    0    0 -0.17829973125E+02 -0.90125862035E+02  0.60734230364E+01  0.92073152529E+02  0.00000000000E+00 0. -1.
          4    1    6    6  503    0  0.60283530789E+03  0.17371706455E+03  0.39791280026E+03  0.74291495043E+03  0.00000000000E+00 0.  1.
         -4    1    6    6    0  503  0.64088312959E+02  0.20167625854E+01  0.15909536119E+02  0.66064306011E+02  0.00000000000E+00 0. -1.
<mgrwt>
<rscale>  0 0.20198387E+04</rscale>
<asrwt>0</asrwt>
<pdfrwt beam="1">  1        1 0.33926495E+00 0.20198387E+04</pdfrwt>
<pdfrwt beam="2">  1       -2 0.71155367E-01 0.20198387E+04</pdfrwt>
<totfact> 0.31524279E+00</totfact>
</mgrwt>
</event>
<event>
12    5  0.5029243E-008  0.1055636E+04  0.7818608E-02  0.9249544E-01
         -2   -1    0    0    0  501 -0.00000000000E+00  0.00000000000E+00  0.15042867124E+03  0.15042867124E+03  0.00000000000E+00 0.  1.
          1   -1    0    0  501    0  0.00000000000E+00 -0.00000000000E+00 -0.18519871164E+04  0.18519871164E+04  0.00000000000E+00 0. -1.
        -24    2    1    2    0    0 -0.91932797250E+02 -0.57677220543E+02 -0.31810670033E+03  0.34527809467E+03  0.79036630013E+02 0.  0.
        254    2    1    2    0    0  0.91932797250E+02  0.57677220543E+02 -0.13834517448E+04  0.16571376930E+04  0.90575289245E+03 0.  0.
         23    2    4    4    0    0 -0.37544027336E+03  0.89027675478E+02 -0.86984108730E+03  0.95575839398E+03  0.89270737858E+02 0.  0.
         23    2    4    4    0    0  0.46737307061E+03 -0.31350454934E+02 -0.51361065754E+03  0.70137929900E+03  0.93362601540E+02 0.  0.
          1    1    3    3  502    0 -0.10524931012E+03 -0.53553577472E+02 -0.30015095365E+03  0.32254611750E+03  0.00000000000E+00 0. -1.
         -2    1    3    3    0  502  0.13316512865E+02 -0.41236430714E+01 -0.17955746686E+02  0.22731977172E+02  0.00000000000E+00 0.  1.
         13    1    5    5    0    0 -0.18815261527E+03  0.90128174226E+02 -0.47045053442E+03  0.51463404450E+03  0.00000000000E+00 0.  1.
        -13    1    5    5    0    0 -0.18728765809E+03 -0.11004987482E+01 -0.39939055288E+03  0.44112434948E+03  0.00000000000E+00 0. -1.
          1    1    6    6  503    0  0.40012405122E+02  0.13640786488E+02 -0.82375943901E+02  0.92589738920E+02  0.00000000000E+00 0. -1.
         -1    1    6    6    0  503  0.42736066549E+03 -0.44991241423E+02 -0.43123471364E+03  0.60878956008E+03  0.00000000000E+00 0.  1.
<mgrwt>
<rscale>  0 0.10556362E+04</rscale>
<asrwt>0</asrwt>
<pdfrwt beam="1">  1        1 0.28492108E+00 0.10556362E+04</pdfrwt>
<pdfrwt beam="2">  1       -2 0.23142873E-01 0.10556362E+04</pdfrwt>
<totfact> 0.54445869E+01</totfact>
</mgrwt>
</event>
<event>
12    5  0.5029243E-008  0.1851488E+04  0.7818608E-02  0.8679388E-01
          1   -1    0    0  501    0  0.00000000000E+00  0.00000000000E+00  0.18566162801E+04  0.18566162801E+04  0.00000000000E+00 0. -1.
         -2   -1    0    0    0  501 -0.00000000000E+00 -0.00000000000E+00 -0.46159369492E+03  0.46159369492E+03  0.00000000000E+00 0.  1.
        -24    2    1    2    0    0  0.39010825339E+03 -0.18144405071E+03 -0.16405337882E+03  0.46734787126E+03  0.79963296355E+02 0.  0.
        254    2    1    2    0    0 -0.39010825339E+03  0.18144405071E+03  0.15590759640E+04  0.18508621038E+04  0.89992570400E+03 0.  0.
         23    2    4    4    0    0 -0.49286858627E+03  0.12859732258E+03  0.16119512200E+04  0.16930604157E+04  0.92790736381E+02 0.  0.
         23    2    4    4    0    0  0.10276033288E+03  0.52846728128E+02 -0.52875255981E+02  0.15780168810E+03  0.93558096311E+02 0.  0.
          3    1    3    3  502    0  0.71572919301E+02 -0.43632532342E+02 -0.66015160310E+02  0.10669808830E+03  0.00000000000E+00 0. -1.
         -4    1    3    3    0  502  0.31853533409E+03 -0.13781151837E+03 -0.98038218508E+02  0.36064978296E+03  0.00000000000E+00 0.  1.
         13    1    5    5    0    0 -0.14071957950E+03  0.65223185801E+01  0.35207865424E+03  0.37921487242E+03  0.00000000000E+00 0. -1.
        -13    1    5    5    0    0 -0.35214900677E+03  0.12207500400E+03  0.12598725658E+04  0.13138455432E+04  0.00000000000E+00 0.  1.
          3    1    6    6  503    0 -0.87477023143E+01 -0.13698514827E+02  0.28385981542E+01  0.16499371010E+02  0.00000000000E+00 0. -1.
         -3    1    6    6    0  503  0.11150803519E+03  0.66545242955E+02 -0.55713854136E+02  0.14130231709E+03  0.00000000000E+00 0.  1.
<mgrwt>
<rscale>  0 0.18514884E+04</rscale>
<asrwt>0</asrwt>
<pdfrwt beam="1">  1        1 0.28563327E+00 0.18514884E+04</pdfrwt>
<pdfrwt beam="2">  1       -2 0.71014416E-01 0.18514884E+04</pdfrwt>
<totfact> 0.55397978E+00</totfact>
</mgrwt>
</event>
<event>
12    5  0.5029243E-008  0.2352828E+04  0.7818608E-02  0.8457378E-01
          1   -1    0    0  501    0  0.00000000000E+00  0.00000000000E+00  0.16397945279E+04  0.16397945279E+04  0.00000000000E+00 0. -1.
         -2   -1    0    0    0  501 -0.00000000000E+00 -0.00000000000E+00 -0.84397737544E+03  0.84397737544E+03  0.00000000000E+00 0.  1.
        -24    2    1    2    0    0 -0.56067476676E+03  0.61533623750E+03 -0.27604601904E+03  0.88062859835E+03  0.79438305172E+02 0.  0.
        254    2    1    2    0    0  0.56067476676E+03 -0.61533623750E+03  0.10718631715E+04  0.16031433050E+04  0.85333634555E+03 0.  0.
         23    2    4    4    0    0  0.10705009492E+03 -0.80394872551E+02 -0.13141166524E+03  0.20732503240E+03  0.88269954930E+02 0.  0.
         23    2    4    4    0    0  0.45362467184E+03 -0.53494136495E+03  0.12032748367E+04  0.13958182726E+04  0.92199297707E+02 0.  0.
          3    1    3    3  502    0 -0.30783667870E+03  0.35378700619E+03 -0.19523673960E+03  0.50798233334E+03  0.00000000000E+00 0. -1.
         -4    1    3    3    0  502 -0.25283808806E+03  0.26154923131E+03 -0.80809279444E+02  0.37264626500E+03  0.00000000000E+00 0.  1.
         13    1    5    5    0    0  0.47307564076E+02 -0.62270070056E+02 -0.21805161400E+02  0.81185172952E+02  0.00000000000E+00 0. -1.
        -13    1    5    5    0    0  0.59742530846E+02 -0.18124802495E+02 -0.10960650384E+03  0.12613985945E+03  0.00000000000E+00 0.  1.
          4    1    6    6  503    0  0.14544498981E+03 -0.16728776825E+03  0.46854951471E+03  0.51834167323E+03  0.00000000000E+00 0. -1.
         -4    1    6    6    0  503  0.30817968203E+03 -0.36765359670E+03  0.73472532203E+03  0.87747659936E+03  0.00000000000E+00 0.  1.
<mgrwt>
<rscale>  0 0.23528276E+04</rscale>
<asrwt>0</asrwt>
<pdfrwt beam="1">  1        1 0.25227608E+00 0.23528276E+04</pdfrwt>
<pdfrwt beam="2">  1       -2 0.12984267E+00 0.23528276E+04</pdfrwt>
<totfact> 0.18038569E+00</totfact>
</mgrwt>
</event>
<event>
12    5  0.5029243E-008  0.1953010E+04  0.7818608E-02  0.8628911E-01
         -2   -1    0    0    0  501 -0.00000000000E+00  0.00000000000E+00  0.48371783500E+03  0.48371783500E+03  0.00000000000E+00 0.  1.
          1   -1    0    0  501    0  0.00000000000E+00 -0.00000000000E+00 -0.19713180100E+04  0.19713180100E+04  0.00000000000E+00 0. -1.
        -24    2    1    2    0    0  0.61633686581E+03  0.50050130477E+01 -0.32159901965E+02  0.62186443455E+03  0.76058749326E+02 0.  0.
        254    2    1    2    0    0 -0.61633686581E+03 -0.50050130477E+01 -0.14554402730E+04  0.18331714104E+04  0.92860909396E+03 0.  0.
         23    2    4    4    0    0 -0.80682354714E+03 -0.15318869047E+03 -0.12718933827E+04  0.15166108050E+04  0.89244304511E+02 0.  0.
         23    2    4    4    0    0  0.19048668133E+03  0.14818367743E+03 -0.18354689033E+03  0.31656060540E+03  0.90981195422E+02 0.  0.
          1    1    3    3  502    0  0.10833057284E+03 -0.36119944839E+01 -0.34599828573E+02  0.11377920572E+03  0.00000000000E+00 0. -1.
         -2    1    3    3    0  502  0.50800629297E+03  0.86170075316E+01  0.24399266073E+01  0.50808522883E+03  0.00000000000E+00 0.  1.
         13    1    5    5    0    0 -0.24797251435E+02 -0.19943421774E+02 -0.64529065190E+02  0.71948898568E+02  0.00000000000E+00 0. -1.
        -13    1    5    5    0    0 -0.78202629571E+03 -0.13324526870E+03 -0.12073643175E+04  0.14446619065E+04  0.00000000000E+00 0.  1.
          2    1    6    6  503    0 -0.87942753840E+01  0.10469077963E+02 -0.20212351932E+02  0.24402459785E+02  0.00000000000E+00 0. -1.
         -2    1    6    6    0  503  0.19928095672E+03  0.13771459946E+03 -0.16333453840E+03  0.29215814562E+03  0.00000000000E+00 0.  1.
<mgrwt>
<rscale>  0 0.19530097E+04</rscale>
<asrwt>0</asrwt>
<pdfrwt beam="1">  1        1 0.30327970E+00 0.19530097E+04</pdfrwt>
<pdfrwt beam="2">  1       -2 0.74418128E-01 0.19530097E+04</pdfrwt>
<totfact> 0.41413717E+00</totfact>
</mgrwt>
</event>
<event>
12    5  0.5029243E-008  0.1677099E+04  0.7818608E-02  0.8774534E-01
         -2   -1    0    0    0  501 -0.00000000000E+00  0.00000000000E+00  0.51431297396E+03  0.51431297396E+03  0.00000000000E+00 0.  1.
          1   -1    0    0  501    0  0.00000000000E+00 -0.00000000000E+00 -0.13671938974E+04  0.13671938974E+04  0.00000000000E+00 0. -1.
        -24    2    1    2    0    0  0.15869642705E+03 -0.26856242380E+03  0.27242698514E+03  0.42182511171E+03  0.80060172358E+02 0.  0.
        254    2    1    2    0    0 -0.15869642705E+03  0.26856242380E+03 -0.11253079086E+04  0.14596817596E+04  0.87580969332E+03 0.  0.
         23    2    4    4    0    0 -0.12072493020E+03 -0.10114611148E+03 -0.10551043413E+04  0.10705800638E+04  0.89952527599E+02 0.  0.
         23    2    4    4    0    0 -0.37971496857E+02  0.36970853528E+03 -0.70203567238E+02  0.38910169587E+03  0.91352904944E+02 0.  0.
          1    1    3    3  502    0  0.33310295532E+02 -0.45736818102E+02  0.13993694732E+02  0.58285982970E+02  0.00000000000E+00 0. -1.
         -2    1    3    3    0  502  0.12538613152E+03 -0.22282560570E+03  0.25843329041E+03  0.36353912874E+03  0.00000000000E+00 0.  1.
         13    1    5    5    0    0 -0.11737800629E+03 -0.10246964489E+03 -0.10555188103E+04  0.10669571609E+04  0.00000000000E+00 0.  1.
        -13    1    5    5    0    0 -0.33469239090E+01  0.13235334097E+01  0.41446893864E+00  0.36229028196E+01  0.00000000000E+00 0. -1.
          1    1    6    6  503    0 -0.46629861932E+02  0.84173438058E+02 -0.66815547976E+01  0.96458047216E+02  0.00000000000E+00 0. -1.
         -1    1    6    6    0  503  0.86583650751E+01  0.28553509722E+03 -0.63522012440E+02  0.29264364865E+03  0.00000000000E+00 0.  1.
<mgrwt>
<rscale>  0 0.16770994E+04</rscale>
<asrwt>0</asrwt>
<pdfrwt beam="1">  1        1 0.21033752E+00 0.16770994E+04</pdfrwt>
<pdfrwt beam="2">  1       -2 0.79125074E-01 0.16770994E+04</pdfrwt>
<totfact> 0.96040089E+00</totfact>
</mgrwt>
</event>
<event>
12    5  0.5029243E-008  0.1176375E+04  0.7818608E-02  0.9133791E-01
         -4   -1    0    0    0  501 -0.00000000000E+00  0.00000000000E+00  0.86561275641E+03  0.86561275641E+03  0.00000000000E+00 0.  1.
          3   -1    0    0  501    0  0.00000000000E+00 -0.00000000000E+00 -0.39967568328E+03  0.39967568328E+03  0.00000000000E+00 0. -1.
        -24    2    1    2    0    0 -0.90653586654E+02  0.12230703446E+03 -0.10405403679E+03  0.20041737372E+03  0.78503488235E+02 0.  0.
        254    2    1    2    0    0  0.90653586654E+02 -0.12230703446E+03  0.56999110993E+03  0.10648710660E+04  0.88650067021E+03 0.  0.
         23    2    4    4    0    0 -0.24172157316E+03  0.84957370342E+02 -0.94690788787E+02  0.28794785915E+03  0.91107356463E+02 0.  0.
         23    2    4    4    0    0  0.33237515981E+03 -0.20726440480E+03  0.66468189872E+03  0.77692320682E+03  0.91519738062E+02 0.  0.
          3    1    3    3  502    0 -0.10251739530E+03  0.12170879198E+03 -0.99598354976E+02  0.18773033505E+03  0.00000000000E+00 0. -1.
         -4    1    3    3    0  502  0.11863808648E+02  0.59824247480E+00 -0.44556818173E+01  0.12687038667E+02  0.00000000000E+00 0.  1.
         13    1    5    5    0    0 -0.94510689985E+02 -0.40383740787E+01 -0.69750173886E+01  0.94853728731E+02  0.00000000000E+00 0. -1.
        -13    1    5    5    0    0 -0.14721088317E+03  0.88995744421E+02 -0.87715771399E+02  0.19309413042E+03  0.00000000000E+00 0.  1.
          4    1    6    6  503    0  0.12051499322E+03 -0.43629601538E+02  0.15422174095E+03  0.20052867900E+03  0.00000000000E+00 0. -1.
         -4    1    6    6    0  503  0.21186016659E+03 -0.16363480326E+03  0.51046015777E+03  0.57639452782E+03  0.00000000000E+00 0.  1.
<mgrwt>
<rscale>  0 0.11763747E+04</rscale>
<asrwt>0</asrwt>
<pdfrwt beam="1">  1        3 0.61488567E-01 0.11763747E+04</pdfrwt>
<pdfrwt beam="2">  1       -4 0.13317119E+00 0.11763747E+04</pdfrwt>
<totfact> 0.23683358E+00</totfact>
</mgrwt>
</event>
<event>
12    5  0.5029243E-008  0.1765778E+04  0.7818608E-02  0.8724713E-01
          1   -1    0    0  501    0  0.00000000000E+00  0.00000000000E+00  0.95599076985E+03  0.95599076985E+03  0.00000000000E+00 0. -1.
         -2   -1    0    0    0  501 -0.00000000000E+00 -0.00000000000E+00 -0.81537733917E+03  0.81537733917E+03  0.00000000000E+00 0.  1.
        -24    2    1    2    0    0  0.73267254027E+02  0.23601765744E+03  0.65118199970E+03  0.70079402793E+03  0.77471592919E+02 0.  0.
        254    2    1    2    0    0 -0.73267254027E+02 -0.23601765744E+03 -0.51056856902E+03  0.10705740811E+04  0.90795163654E+03 0.  0.
         23    2    4    4    0    0 -0.35719035786E+03  0.19469601785E+03 -0.23319326834E+03  0.47791396371E+03  0.92364306948E+02 0.  0.
         23    2    4    4    0    0  0.28392310383E+03 -0.43071367529E+03 -0.27737530068E+03  0.59266011738E+03  0.90456389122E+02 0.  0.
          1    1    3    3  502    0  0.76998914829E+02  0.23026072339E+03  0.64995710410E+03  0.69382495688E+03  0.00000000000E+00 0. -1.
         -2    1    3    3    0  502 -0.37316608016E+01  0.57569340506E+01  0.12248955980E+01  0.69690710448E+01  0.00000000000E+00 0.  1.
         13    1    5    5    0    0 -0.26403593897E+02 -0.21044977321E+01 -0.38070045161E+02  0.46377872093E+02  0.00000000000E+00 0.  1.
        -13    1    5    5    0    0 -0.33078676396E+03  0.19680051558E+03 -0.19512322318E+03  0.43153609162E+03  0.00000000000E+00 0. -1.
          1    1    6    6  503    0  0.22264328395E+03 -0.37235421100E+03 -0.26151202665E+03  0.50656315541E+03  0.00000000000E+00 0. -1.
         -1    1    6    6    0  503  0.61279819883E+02 -0.58359464292E+02 -0.15863274027E+02  0.86096961968E+02  0.00000000000E+00 0.  1.
<mgrwt>
<rscale>  0 0.17657783E+04</rscale>
<asrwt>0</asrwt>
<pdfrwt beam="1">  1        1 0.14707550E+00 0.17657783E+04</pdfrwt>
<pdfrwt beam="2">  1       -2 0.12544267E+00 0.17657783E+04</pdfrwt>
<totfact> 0.64616749E+00</totfact>
</mgrwt>
</event>
<event>
12    5  0.5029243E-008  0.1482988E+04  0.7818608E-02  0.8895845E-01
          1   -1    0    0  501    0  0.00000000000E+00  0.00000000000E+00  0.13289584991E+04  0.13289584991E+04  0.00000000000E+00 0. -1.
         -2   -1    0    0    0  501 -0.00000000000E+00 -0.00000000000E+00 -0.41371770804E+03  0.41371770804E+03  0.00000000000E+00 0.  1.
        -24    2    1    2    0    0 -0.59750468036E+02 -0.41039400053E+03  0.48472338542E+03  0.64308164051E+03  0.81264271875E+02 0.  0.
        254    2    1    2    0    0  0.59750468036E+02  0.41039400053E+03  0.43051740566E+03  0.10995945667E+04  0.92291365812E+03 0.  0.
         23    2    4    4    0    0  0.46051282902E+03  0.10206649857E+03  0.31037933545E+03  0.57206419388E+03  0.91828504413E+02 0.  0.
         23    2    4    4    0    0 -0.40076236099E+03  0.30832750196E+03  0.12013807020E+03  0.52753037277E+03  0.90436827879E+02 0.  0.
          3    1    3    3  502    0 -0.54260879562E+02 -0.31867053395E+03  0.42305035728E+03  0.53241596243E+03  0.00000000000E+00 0. -1.
         -4    1    3    3    0  502 -0.54895884738E+01 -0.91723466587E+02  0.61673028133E+02  0.11066567807E+03  0.00000000000E+00 0.  1.
         13    1    5    5    0    0  0.14777933134E+03  0.14396684842E+02  0.14523798074E+03  0.20770186893E+03  0.00000000000E+00 0. -1.
        -13    1    5    5    0    0  0.31273349768E+03  0.87669813731E+02  0.16514135471E+03  0.36436232496E+03  0.00000000000E+00 0.  1.
          1    1    6    6  503    0 -0.10492032512E+03  0.11328349870E+03  0.33958408930E+01  0.15444402687E+03  0.00000000000E+00 0. -1.
         -1    1    6    6    0  503 -0.29584203586E+03  0.19504400326E+03  0.11674222931E+03  0.37308634590E+03  0.00000000000E+00 0.  1.
<mgrwt>
<rscale>  0 0.14829884E+04</rscale>
<asrwt>0</asrwt>
<pdfrwt beam="1">  1        1 0.20445515E+00 0.14829884E+04</pdfrwt>
<pdfrwt beam="2">  1       -2 0.63648879E-01 0.14829884E+04</pdfrwt>
<totfact> 0.16739389E+01</totfact>
</mgrwt>
</event>
<event>
12    5  0.5029243E-008  0.1956791E+04  0.7818608E-02  0.8627093E-01
         -2   -1    0    0    0  501 -0.00000000000E+00  0.00000000000E+00  0.50209381369E+03  0.50209381369E+03  0.00000000000E+00 0.  1.
          1   -1    0    0  501    0  0.00000000000E+00 -0.00000000000E+00 -0.19065322065E+04  0.19065322065E+04  0.00000000000E+00 0. -1.
        -24    2    1    2    0    0 -0.28368407255E+02 -0.46132701984E+03  0.20293882578E+03  0.51110549917E+03  0.80107917936E+02 0.  0.
        254    2    1    2    0    0  0.28368407255E+02  0.46132701984E+03 -0.16073772186E+04  0.18975205211E+04  0.89626738149E+03 0.  0.
         23    2    4    4    0    0 -0.41439061125E+02 -0.11863025417E+03  0.29299983830E+02  0.15736119316E+03  0.90076207006E+02 0.  0.
         23    2    4    4    0    0  0.69807468380E+02  0.57995727401E+03 -0.16366772025E+04  0.17401593279E+04  0.90657041161E+02 0.  0.
          1    1    3    3  502    0 -0.52439465652E+02 -0.30255628119E+03  0.15204648114E+03  0.34264899427E+03  0.00000000000E+00 0. -1.
         -2    1    3    3    0  502  0.24071058397E+02 -0.15877073864E+03  0.50892344642E+02  0.16845650491E+03  0.00000000000E+00 0.  1.
         13    1    5    5    0    0 -0.57221558910E+01 -0.11249873107E+03  0.40064302612E+02  0.11955691491E+03  0.00000000000E+00 0. -1.
        -13    1    5    5    0    0 -0.35716905234E+02 -0.61315231068E+01 -0.10764318781E+02  0.37804278249E+02  0.00000000000E+00 0.  1.
          4    1    6    6  503    0  0.37138904252E+02  0.52757086892E+03 -0.14868519228E+04  0.15781124676E+04  0.00000000000E+00 0. -1.
         -4    1    6    6    0  503  0.32668564128E+02  0.52386405089E+02 -0.14982527964E+03  0.16204686032E+03  0.00000000000E+00 0.  1.
<mgrwt>
<rscale>  0 0.19567913E+04</rscale>
<asrwt>0</asrwt>
<pdfrwt beam="1">  1        1 0.29331265E+00 0.19567913E+04</pdfrwt>
<pdfrwt beam="2">  1       -2 0.77245203E-01 0.19567913E+04</pdfrwt>
<totfact> 0.42161709E+00</totfact>
</mgrwt>
</event>
<event>
12    5  0.5029243E-008  0.2102918E+04  0.7818608E-02  0.8559959E-01
         -2   -1    0    0    0  501 -0.00000000000E+00  0.00000000000E+00  0.32484458714E+03  0.32484458714E+03  0.00000000000E+00 0.  1.
          1   -1    0    0  501    0  0.00000000000E+00 -0.00000000000E+00 -0.34033685242E+04  0.34033685242E+04  0.00000000000E+00 0. -1.
        -24    2    1    2    0    0  0.11039662819E+03 -0.80733427290E+03 -0.17484396789E+04  0.19306526972E+04  0.80015515182E+02 0.  0.
        254    2    1    2    0    0 -0.11039662819E+03  0.80733427290E+03 -0.13300842582E+04  0.17975604142E+04  0.89337744825E+03 0.  0.
         23    2    4    4    0    0 -0.44988869427E+03  0.70814662371E+03 -0.91685564340E+03  0.12461030670E+04  0.90978595615E+02 0.  0.
         23    2    4    4    0    0  0.33949206608E+03  0.99187649188E+02 -0.41322861475E+03  0.55145734715E+03  0.90852985628E+02 0.  0.
          3    1    3    3  502    0  0.70570213185E+02 -0.67847030838E+03 -0.14102558047E+04  0.15665642499E+04  0.00000000000E+00 0. -1.
         -4    1    3    3    0  502  0.39826415005E+02 -0.12886396452E+03 -0.33818387415E+03  0.36408844725E+03  0.00000000000E+00 0.  1.
         13    1    5    5    0    0 -0.34572922908E+03  0.48948050131E+03 -0.60914962523E+03  0.85450753474E+03  0.00000000000E+00 0.  1.
        -13    1    5    5    0    0 -0.10415946518E+03  0.21866612240E+03 -0.30770601817E+03  0.39159553227E+03  0.00000000000E+00 0. -1.
          3    1    6    6  503    0  0.15803906916E+03  0.88233741885E+02 -0.17472814151E+03  0.25157794820E+03  0.00000000000E+00 0. -1.
         -3    1    6    6    0  503  0.18145299692E+03  0.10953907303E+02 -0.23850047325E+03  0.29987939895E+03  0.00000000000E+00 0.  1.
<mgrwt>
<rscale>  0 0.21029178E+04</rscale>
<asrwt>0</asrwt>
<pdfrwt beam="1">  1        1 0.52359514E+00 0.21029178E+04</pdfrwt>
<pdfrwt beam="2">  1       -2 0.49976092E-01 0.21029178E+04</pdfrwt>
<totfact> 0.91291801E-01</totfact>
</mgrwt>
</event>
<event>
12    5  0.5029243E-008  0.1667699E+04  0.7818608E-02  0.8780005E-01
          1   -1    0    0  501    0  0.00000000000E+00  0.00000000000E+00  0.18330997682E+04  0.18330997682E+04  0.00000000000E+00 0. -1.
         -2   -1    0    0    0  501 -0.00000000000E+00 -0.00000000000E+00 -0.37930540571E+03  0.37930540571E+03  0.00000000000E+00 0.  1.
        -24    2    1    2    0    0  0.18847097497E+02  0.46440596225E+03  0.40359971531E+02  0.47370931908E+03  0.82118699596E+02 0.  0.
        254    2    1    2    0    0 -0.18847097497E+02 -0.46440596225E+03  0.14134343910E+04  0.17386958549E+04  0.89957678230E+03 0.  0.
         23    2    4    4    0    0  0.16628102248E+03  0.22373130614E+03  0.36954821685E+03  0.47155477118E+03  0.89960779538E+02 0.  0.
         23    2    4    4    0    0 -0.18512811997E+03 -0.68813726839E+03  0.10438861741E+04  0.12671410837E+04  0.90237799615E+02 0.  0.
          1    1    3    3  502    0  0.40313998892E+02  0.12043580801E+03  0.28642545804E+01  0.12703624015E+03  0.00000000000E+00 0. -1.
         -2    1    3    3    0  502 -0.21466901395E+02  0.34397015424E+03  0.37495716951E+02  0.34667307892E+03  0.00000000000E+00 0.  1.
         13    1    5    5    0    0  0.24394757245E+02  0.19270425424E+02  0.70963437963E+01  0.31887483004E+02  0.00000000000E+00 0. -1.
        -13    1    5    5    0    0  0.14188626523E+03  0.20446088072E+03  0.36245187306E+03  0.43966728817E+03  0.00000000000E+00 0.  1.
          2    1    6    6  503    0 -0.30958445649E+02 -0.33275382905E+02  0.70792915497E+02  0.84126769515E+02  0.00000000000E+00 0. -1.
         -2    1    6    6    0  503 -0.15416967433E+03 -0.65486188548E+03  0.97309325863E+03  0.11830143142E+04  0.00000000000E+00 0.  1.
<mgrwt>
<rscale>  0 0.16676986E+04</rscale>
<asrwt>0</asrwt>
<pdfrwt beam="1">  1        1 0.28201534E+00 0.16676986E+04</pdfrwt>
<pdfrwt beam="2">  1       -2 0.58354679E-01 0.16676986E+04</pdfrwt>
<totfact> 0.89003487E+00</totfact>
</mgrwt>
</event>
<event>
12    5  0.5029243E-008  0.1994963E+04  0.7818608E-02  0.8608979E-01
         -2   -1    0    0    0  501 -0.00000000000E+00  0.00000000000E+00  0.99077415195E+03  0.99077415195E+03  0.00000000000E+00 0.  1.
          1   -1    0    0  501    0  0.00000000000E+00 -0.00000000000E+00 -0.10042342908E+04  0.10042342908E+04  0.00000000000E+00 0. -1.
        -24    2    1    2    0    0 -0.70433404771E+03  0.30269983234E+03  0.18424927845E+03  0.79275639379E+03  0.82469776443E+02 0.  0.
        254    2    1    2    0    0  0.70433404771E+03 -0.30269983234E+03 -0.19770941731E+03  0.12022520490E+04  0.90476921713E+03 0.  0.
         23    2    4    4    0    0  0.55503303971E+03 -0.58810353246E+03 -0.27563569672E+03  0.85935296328E+03  0.92655480864E+02 0.  0.
         23    2    4    4    0    0  0.14930100800E+03  0.28540370012E+03  0.77926279415E+02  0.34289908568E+03  0.88097757655E+02 0.  0.
          3    1    3    3  502    0 -0.17428540744E+02 -0.50707700775E+01  0.16820998789E+01  0.18228993435E+02  0.00000000000E+00 0. -1.
         -4    1    3    3    0  502 -0.68690550696E+03  0.30777060241E+03  0.18256717858E+03  0.77452740036E+03  0.00000000000E+00 0.  1.
         13    1    5    5    0    0  0.48229318322E+03 -0.45919933257E+03 -0.22492277204E+03  0.70289472541E+03  0.00000000000E+00 0.  1.
        -13    1    5    5    0    0  0.72739856482E+02 -0.12890419988E+03 -0.50712924679E+02  0.15645823787E+03  0.00000000000E+00 0. -1.
          3    1    6    6  503    0  0.14994276325E+03  0.25581802367E+03  0.47228675969E+02  0.30026028928E+03  0.00000000000E+00 0. -1.
         -3    1    6    6    0  503 -0.64175525114E+00  0.29585676448E+02  0.30697603446E+02  0.42638796395E+02  0.00000000000E+00 0.  1.
<mgrwt>
<rscale>  0 0.19949630E+04</rscale>
<asrwt>0</asrwt>
<pdfrwt beam="1">  1        1 0.15449758E+00 0.19949630E+04</pdfrwt>
<pdfrwt beam="2">  1       -2 0.15242679E+00 0.19949630E+04</pdfrwt>
<totfact> 0.35070589E+00</totfact>
</mgrwt>
</event>
<event>
12    5  0.5029243E-008  0.1715639E+04  0.7818608E-02  0.8752495E-01
         -2   -1    0    0    0  501 -0.00000000000E+00  0.00000000000E+00  0.60842279650E+03  0.60842279650E+03  0.00000000000E+00 0.  1.
          1   -1    0    0  501    0  0.00000000000E+00 -0.00000000000E+00 -0.12094451505E+04  0.12094451505E+04  0.00000000000E+00 0. -1.
        -24    2    1    2    0    0  0.48643146179E+03 -0.18789635820E+03  0.13816446192E+03  0.54530766687E+03  0.79689551140E+02 0.  0.
        254    2    1    2    0    0 -0.48643146179E+03  0.18789635820E+03 -0.73918681591E+03  0.12725602801E+04  0.89503737871E+03 0.  0.
         23    2    4    4    0    0 -0.98271250930E+02 -0.33517082698E+03 -0.16292602198E+03  0.39802176929E+03  0.99396771435E+02 0.  0.
         23    2    4    4    0    0 -0.38816021086E+03  0.52306718518E+03 -0.57626079393E+03  0.87453851083E+03  0.92051479017E+02 0.  0.
          3    1    3    3  502    0  0.15785791931E+03 -0.99367725734E+02  0.35597067050E+02  0.18989528374E+03  0.00000000000E+00 0. -1.
         -4    1    3    3    0  502  0.32857354249E+03 -0.88528632468E+02  0.10256739487E+03  0.35541238313E+03  0.00000000000E+00 0.  1.
         13    1    5    5    0    0 -0.11713529164E+03 -0.31055920208E+03 -0.15282897269E+03  0.36540989236E+03  0.00000000000E+00 0.  1.
        -13    1    5    5    0    0  0.18864040711E+02 -0.24611624906E+02 -0.10097049284E+02  0.32611876927E+02  0.00000000000E+00 0. -1.
          3    1    6    6  503    0 -0.12193572783E+03  0.14477818638E+03 -0.11606125157E+03  0.22203436465E+03  0.00000000000E+00 0. -1.
         -3    1    6    6    0  503 -0.26622448304E+03  0.37828899880E+03 -0.46019954237E+03  0.65250414618E+03  0.00000000000E+00 0.  1.
<mgrwt>
<rscale>  0 0.17156387E+04</rscale>
<asrwt>0</asrwt>
<pdfrwt beam="1">  1        1 0.18606849E+00 0.17156387E+04</pdfrwt>
<pdfrwt beam="2">  1       -2 0.93603507E-01 0.17156387E+04</pdfrwt>
<totfact> 0.84584077E+00</totfact>
</mgrwt>
</event>
<event>
12    5  0.5029243E-008  0.1865095E+04  0.7818608E-02  0.8672428E-01
          3   -1    0    0  501    0  0.00000000000E+00  0.00000000000E+00  0.15188772108E+04  0.15188772108E+04  0.00000000000E+00 0. -1.
         -4   -1    0    0    0  501 -0.00000000000E+00 -0.00000000000E+00 -0.57255778183E+03  0.57255778183E+03  0.00000000000E+00 0.  1.
        -24    2    1    2    0    0  0.52041736796E+03  0.27498970455E+03  0.81564869989E+03  0.10090660838E+04  0.80485933313E+02 0.  0.
        254    2    1    2    0    0 -0.52041736796E+03 -0.27498970455E+03  0.13067072912E+03  0.10823689088E+04  0.89888488743E+03 0.  0.
         23    2    4    4    0    0 -0.38019856536E+03 -0.37735891144E+03 -0.29079792772E+03  0.61634576309E+03  0.91476596834E+02 0.  0.
         23    2    4    4    0    0 -0.14021880260E+03  0.10236920689E+03  0.42146865684E+03  0.46602314573E+03  0.96958633120E+02 0.  0.
          3    1    3    3  502    0  0.28207149226E+03  0.10387449781E+03  0.42108620721E+03  0.51736624546E+03  0.00000000000E+00 0. -1.
         -4    1    3    3    0  502  0.23834587571E+03  0.17111520674E+03  0.39456249268E+03  0.49169983839E+03  0.00000000000E+00 0.  1.
         13    1    5    5    0    0 -0.30521582718E+02 -0.67747725134E+02 -0.59336052478E+02  0.95089896394E+02  0.00000000000E+00 0. -1.
        -13    1    5    5    0    0 -0.34967698264E+03 -0.30961118630E+03 -0.23146187524E+03  0.52125586670E+03  0.00000000000E+00 0.  1.
          4    1    6    6  503    0  0.19193037427E+01 -0.67015713489E+01 -0.10855636653E+01  0.70550148031E+01  0.00000000000E+00 0. -1.
         -4    1    6    6    0  503 -0.14213810635E+03  0.10907077824E+03  0.42255422051E+03  0.45896813093E+03  0.00000000000E+00 0.  1.
<mgrwt>
<rscale>  0 0.18650951E+04</rscale>
<asrwt>0</asrwt>
<pdfrwt beam="1">  1        3 0.23367342E+00 0.18650951E+04</pdfrwt>
<pdfrwt beam="2">  1       -4 0.88085813E-01 0.18650951E+04</pdfrwt>
<totfact> 0.22021625E-01</totfact>
</mgrwt>
</event>
<event>
12    5  0.5029243E-008  0.1577855E+04  0.7818608E-02  0.8834269E-01
         -2   -1    0    0    0  501 -0.00000000000E+00  0.00000000000E+00  0.66488745810E+03  0.66488745810E+03  0.00000000000E+00 0.  1.
          1   -1    0    0  501    0  0.00000000000E+00 -0.00000000000E+00 -0.93610767064E+03  0.93610767064E+03  0.00000000000E+00 0. -1.
        -24    2    1    2    0    0 -0.49089368113E+03 -0.14802816729E+03 -0.21614109312E+03  0.56144787378E+03  0.74951973619E+02 0.  0.
        254    2    1    2    0    0  0.49089368113E+03  0.14802816729E+03 -0.55079119415E+02  0.10395472550E+04  0.90262718850E+03 0.  0.
         23    2    4    4    0    0 -0.17595606534E+03  0.27983395559E+03  0.39296502109E+02  0.34705538099E+03  0.98161309933E+02 0.  0.
         23    2    4    4    0    0  0.66684974647E+03 -0.13180578830E+03 -0.94375621524E+02  0.69249187397E+03  0.92611486241E+02 0.  0.
          3    1    3    3  502    0 -0.19815285329E+03 -0.55486160480E+02 -0.12675018995E+03  0.24167928733E+03  0.00000000000E+00 0. -1.
         -4    1    3    3    0  502 -0.29274082784E+03 -0.92542006810E+02 -0.89390903166E+02  0.31976858644E+03  0.00000000000E+00 0.  1.
         13    1    5    5    0    0 -0.16083685498E+03  0.27294472070E+03  0.14414129671E+02  0.31713574635E+03  0.00000000000E+00 0. -1.
        -13    1    5    5    0    0 -0.15119210355E+02  0.68892348930E+01  0.24882372438E+02  0.29919634645E+02  0.00000000000E+00 0.  1.
          3    1    6    6  503    0  0.56788838731E+03 -0.10666462238E+03 -0.46403871798E+02  0.57967911936E+03  0.00000000000E+00 0. -1.
         -3    1    6    6    0  503  0.98961359159E+02 -0.25141165919E+02 -0.47971749726E+02  0.11281275461E+03  0.00000000000E+00 0.  1.
<mgrwt>
<rscale>  0 0.15778546E+04</rscale>
<asrwt>0</asrwt>
<pdfrwt beam="1">  1        1 0.14401656E+00 0.15778546E+04</pdfrwt>
<pdfrwt beam="2">  1       -2 0.10229038E+00 0.15778546E+04</pdfrwt>
<totfact> 0.11213498E+01</totfact>
</mgrwt>
</event>
<event>
12    5  0.5029243E-008  0.1430855E+04  0.7818608E-02  0.8931782E-01
          1   -1    0    0  501    0  0.00000000000E+00  0.00000000000E+00  0.13077494970E+04  0.13077494970E+04  0.00000000000E+00 0. -1.
         -2   -1    0    0    0  501 -0.00000000000E+00 -0.00000000000E+00 -0.39138727447E+03  0.39138727447E+03  0.00000000000E+00 0.  1.
        -24    2    1    2    0    0  0.58314132212E+02  0.36321012697E+03  0.87151049189E+01  0.37637180843E+03  0.79105314483E+02 0.  0.
        254    2    1    2    0    0 -0.58314132212E+02 -0.36321012697E+03  0.90764711760E+03  0.13227649630E+04  0.88913537943E+03 0.  0.
         23    2    4    4    0    0  0.58814260798E+02  0.22014250350E+03  0.19622994064E+02  0.24994263398E+03  0.10081874461E+03 0.  0.
         23    2    4    4    0    0 -0.11712839301E+03 -0.58335263047E+03  0.88802412353E+03  0.10728223290E+04  0.91332106997E+02 0.  0.
          1    1    3    3  502    0  0.65822080589E+02  0.17705024968E+03 -0.97937734929E+01  0.18914347782E+03  0.00000000000E+00 0. -1.
         -2    1    3    3    0  502 -0.75079483769E+01  0.18615987729E+03  0.18508878412E+02  0.18722833061E+03  0.00000000000E+00 0.  1.
         13    1    5    5    0    0  0.78155965609E+02  0.21093167165E+03  0.28518690783E+02  0.22674620347E+03  0.00000000000E+00 0. -1.
        -13    1    5    5    0    0 -0.19341704811E+02  0.92108318562E+01 -0.88956967184E+01  0.23196430514E+02  0.00000000000E+00 0.  1.
          3    1    6    6  503    0 -0.75691668488E+02 -0.46198146760E+03  0.75250234151E+03  0.88623692040E+03  0.00000000000E+00 0. -1.
         -3    1    6    6    0  503 -0.41436724522E+02 -0.12137116287E+03  0.13552178202E+03  0.18658540864E+03  0.00000000000E+00 0.  1.
<mgrwt>
<rscale>  0 0.14308550E+04</rscale>
<asrwt>0</asrwt>
<pdfrwt beam="1">  1        1 0.20119223E+00 0.14308550E+04</pdfrwt>
<pdfrwt beam="2">  1       -2 0.60213428E-01 0.14308550E+04</pdfrwt>
<totfact> 0.19588146E+01</totfact>
</mgrwt>
</event>
<event>
12    5  0.5029243E-008  0.2367350E+04  0.7818608E-02  0.8451829E-01
         -2   -1    0    0    0  501 -0.00000000000E+00  0.00000000000E+00  0.81845799228E+03  0.81845799228E+03  0.00000000000E+00 0.  1.
          1   -1    0    0  501    0  0.00000000000E+00 -0.00000000000E+00 -0.17118617900E+04  0.17118617900E+04  0.00000000000E+00 0. -1.
        -24    2    1    2    0    0 -0.17871279649E+03  0.98103088067E+03 -0.54492246783E+03  0.11391975193E+04  0.80440285439E+02 0.  0.
        254    2    1    2    0    0  0.17871279649E+03 -0.98103088067E+03 -0.34848132986E+03  0.13911222630E+04  0.90521934403E+03 0.  0.
         23    2    4    4    0    0  0.14407192134E+03 -0.40732149934E+02  0.22486663072E+03  0.28554633063E+03  0.92497993341E+02 0.  0.
         23    2    4    4    0    0  0.34640875152E+02 -0.94029873074E+03 -0.57334796058E+03  0.11055759323E+04  0.90601131399E+02 0.  0.
          1    1    3    3  502    0 -0.82121122475E+01  0.15895116225E+02 -0.15749480262E+00  0.17891850435E+02  0.00000000000E+00 0. -1.
         -2    1    3    3    0  502 -0.17050068424E+03  0.96513576445E+03 -0.54476497302E+03  0.11213056688E+04  0.00000000000E+00 0.  1.
         13    1    5    5    0    0  0.14793396471E+03 -0.45785265621E+02  0.23006805837E+03  0.27733023626E+03  0.00000000000E+00 0. -1.
        -13    1    5    5    0    0 -0.38620433688E+01  0.50531156866E+01 -0.52014276532E+01  0.82160943736E+01  0.00000000000E+00 0.  1.
          1    1    6    6  503    0  0.33285463982E+02 -0.93209237237E+03 -0.57673180199E+03  0.10965964090E+04  0.00000000000E+00 0. -1.
         -1    1    6    6    0  503  0.13554111705E+01 -0.82063583643E+01  0.33838414190E+01  0.89795233612E+01  0.00000000000E+00 0.  1.
<mgrwt>
<rscale>  0 0.23673504E+04</rscale>
<asrwt>0</asrwt>
<pdfrwt beam="1">  1        1 0.26336335E+00 0.23673504E+04</pdfrwt>
<pdfrwt beam="2">  1       -2 0.12591662E+00 0.23673504E+04</pdfrwt>
<totfact> 0.17381986E+00</totfact>
</mgrwt>
</event>
<event>
12    5  0.5029243E-008  0.2004185E+04  0.7818608E-02  0.8604666E-01
          1   -1    0    0  501    0  0.00000000000E+00  0.00000000000E+00  0.14654130579E+04  0.14654130579E+04  0.00000000000E+00 0. -1.
         -2   -1    0    0    0  501 -0.00000000000E+00 -0.00000000000E+00 -0.68526035231E+03  0.68526035231E+03  0.00000000000E+00 0.  1.
        -24    2    1    2    0    0  0.62015124663E+02  0.49953762558E+03 -0.35547008349E+03  0.62126084208E+03  0.78881801366E+02 0.  0.
        254    2    1    2    0    0 -0.62015124663E+02 -0.49953762558E+03  0.11356227891E+04  0.15294125682E+04  0.89223313627E+03 0.  0.
         23    2    4    4    0    0 -0.57208732887E+02 -0.18454732302E+03 -0.11042491180E+03  0.24092522502E+03  0.92307905131E+02 0.  0.
         23    2    4    4    0    0 -0.48063917762E+01 -0.31499030255E+03  0.12460477009E+04  0.12884873432E+04  0.91229207991E+02 0.  0.
          3    1    3    3  502    0 -0.10125360727E+02  0.22482916107E+03 -0.14442793089E+03  0.26741372781E+03  0.00000000000E+00 0. -1.
         -4    1    3    3    0  502  0.72140485390E+02  0.27470846450E+03 -0.21104215260E+03  0.35384711427E+03  0.00000000000E+00 0.  1.
         13    1    5    5    0    0 -0.14535204234E+01 -0.14658895084E+03 -0.72492714682E+02  0.16354090287E+03  0.00000000000E+00 0.  1.
        -13    1    5    5    0    0 -0.55755212463E+02 -0.37958372183E+02 -0.37932197119E+02  0.77384322145E+02  0.00000000000E+00 0. -1.
          1    1    6    6  503    0  0.12089908858E+02 -0.65672858332E+02  0.14804702769E+03  0.16241001393E+03  0.00000000000E+00 0. -1.
         -1    1    6    6    0  503 -0.16896300635E+02 -0.24931744422E+03  0.10980006732E+04  0.11260773292E+04  0.00000000000E+00 0.  1.
<mgrwt>
<rscale>  0 0.20041851E+04</rscale>
<asrwt>0</asrwt>
<pdfrwt beam="1">  1        1 0.22544816E+00 0.20041851E+04</pdfrwt>
<pdfrwt beam="2">  1       -2 0.10542467E+00 0.20041851E+04</pdfrwt>
<totfact> 0.40966943E+00</totfact>
</mgrwt>
</event>
<event>
12    5  0.5029243E-008  0.3280527E+04  0.7818608E-02  0.8167868E-01
         -2   -1    0    0    0  501 -0.00000000000E+00  0.00000000000E+00  0.77393677961E+03  0.77393677961E+03  0.00000000000E+00 0.  1.
          1   -1    0    0  501    0  0.00000000000E+00 -0.00000000000E+00 -0.34763366838E+04  0.34763366838E+04  0.00000000000E+00 0. -1.
        -24    2    1    2    0    0  0.46088522434E+03 -0.13957701530E+04 -0.17308171383E+04  0.22721400431E+04  0.79390801067E+02 0.  0.
        254    2    1    2    0    0 -0.46088522434E+03  0.13957701530E+04 -0.97158276586E+03  0.19781334203E+04  0.89913805816E+03 0.  0.
         23    2    4    4    0    0  0.22253152691E+03  0.56729481238E+03 -0.18068179136E+03  0.64118915591E+03  0.84462650330E+02 0.  0.
         23    2    4    4    0    0 -0.68341675125E+03  0.82847534059E+03 -0.79090097450E+03  0.13369442644E+04  0.92009612341E+02 0.  0.
          3    1    3    3  502    0  0.22583483574E+03 -0.73011132081E+03 -0.95663833943E+03  0.12244267337E+04  0.00000000000E+00 0. -1.
         -4    1    3    3    0  502  0.23505038860E+03 -0.66565883216E+03 -0.77417879892E+03  0.10477133094E+04  0.00000000000E+00 0.  1.
         13    1    5    5    0    0  0.69989066093E+02  0.29364539788E+03 -0.84996870243E+02  0.31360892369E+03  0.00000000000E+00 0. -1.
        -13    1    5    5    0    0  0.15254246082E+03  0.27364941451E+03 -0.95684921120E+02  0.32758023222E+03  0.00000000000E+00 0.  1.
          3    1    6    6  503    0 -0.13846535097E+03  0.13290275659E+03 -0.17615969558E+03  0.26051494098E+03  0.00000000000E+00 0. -1.
         -3    1    6    6    0  503 -0.54495140028E+03  0.69557258400E+03 -0.61474127892E+03  0.10764293234E+04  0.00000000000E+00 0.  1.
<mgrwt>
<rscale>  0 0.32805273E+04</rscale>
<asrwt>0</asrwt>
<pdfrwt beam="1">  1        1 0.53482102E+00 0.32805273E+04</pdfrwt>
<pdfrwt beam="2">  1       -2 0.11906720E+00 0.32805273E+04</pdfrwt>
<totfact> 0.10321289E-01</totfact>
</mgrwt>
</event>
<event>
12    5  0.5029243E-008  0.1447474E+04  0.7818608E-02  0.8920153E-01
          1   -1    0    0  501    0  0.00000000000E+00  0.00000000000E+00  0.29891363755E+04  0.29891363755E+04  0.00000000000E+00 0. -1.
         -2   -1    0    0    0  501 -0.00000000000E+00 -0.00000000000E+00 -0.17523303338E+03  0.17523303338E+03  0.00000000000E+00 0.  1.
        -24    2    1    2    0    0  0.24489418308E+03  0.30893559210E+03  0.43028727191E+03  0.58912291536E+03  0.80649315393E+02 0.  0.
        254    2    1    2    0    0 -0.24489418308E+03 -0.30893559210E+03  0.23836160702E+04  0.25752464935E+04  0.89154616887E+03 0.  0.
         23    2    4    4    0    0 -0.24940873905E+03 -0.47312488282E+03  0.72181427347E+03  0.90300051032E+03  0.91335657854E+02 0.  0.
         23    2    4    4    0    0  0.45145559745E+01  0.16418929073E+03  0.16618017967E+04  0.16722459832E+04  0.88560218235E+02 0.  0.
          1    1    3    3  502    0  0.57867720162E+02  0.97998882981E+02  0.78221630010E+02  0.13809807205E+03  0.00000000000E+00 0. -1.
         -2    1    3    3    0  502  0.18702646291E+03  0.21093670911E+03  0.35206564190E+03  0.45102484332E+03  0.00000000000E+00 0.  1.
         13    1    5    5    0    0 -0.19407191575E+03 -0.34545564148E+03  0.59419691180E+03  0.71419428639E+03  0.00000000000E+00 0. -1.
        -13    1    5    5    0    0 -0.55336823302E+02 -0.12766924134E+03  0.12761736167E+03  0.18880622394E+03  0.00000000000E+00 0.  1.
          1    1    6    6  503    0  0.15069445804E+02  0.16054313798E+03  0.12583135941E+04  0.12686032826E+04  0.00000000000E+00 0. -1.
         -1    1    6    6    0  503 -0.10554889829E+02  0.36461527428E+01  0.40348820260E+03  0.40364270062E+03  0.00000000000E+00 0.  1.
<mgrwt>
<rscale>  0 0.14474743E+04</rscale>
<asrwt>0</asrwt>
<pdfrwt beam="1">  1        1 0.45986710E+00 0.14474743E+04</pdfrwt>
<pdfrwt beam="2">  1       -2 0.26958930E-01 0.14474743E+04</pdfrwt>
<totfact> 0.65364558E+00</totfact>
</mgrwt>
</event>
<event>
12    5  0.5029243E-008  0.1337953E+04  0.7818608E-02  0.8999998E-01
          1   -1    0    0  501    0  0.00000000000E+00  0.00000000000E+00  0.19442283361E+04  0.19442283361E+04  0.00000000000E+00 0. -1.
         -2   -1    0    0    0  501 -0.00000000000E+00 -0.00000000000E+00 -0.23018349924E+03  0.23018349924E+03  0.00000000000E+00 0.  1.
        -24    2    1    2    0    0  0.15205163085E+03 -0.34270752441E+03  0.40628990248E+03  0.55749059354E+03  0.71806206541E+02 0.  0.
        254    2    1    2    0    0 -0.15205163085E+03  0.34270752441E+03  0.13077549344E+04  0.16169212418E+04  0.87386680222E+03 0.  0.
         23    2    4    4    0    0 -0.49363543961E+02  0.17312361330E+02 -0.11211880048E+03  0.15374219856E+03  0.91266427941E+02 0.  0.
         23    2    4    4    0    0 -0.10268808689E+03  0.32539516308E+03  0.14198737349E+04  0.14631790432E+04  0.91785806415E+02 0.  0.
          1    1    3    3  502    0  0.40746499817E+02 -0.97966121448E+02  0.16535547486E+03  0.19646900841E+03  0.00000000000E+00 0. -1.
         -2    1    3    3    0  502  0.11130513104E+03 -0.24474140296E+03  0.24093442761E+03  0.36102158513E+03  0.00000000000E+00 0.  1.
         13    1    5    5    0    0 -0.52576908938E+01 -0.32366312611E+02 -0.63340349279E+02  0.71324759743E+02  0.00000000000E+00 0.  1.
        -13    1    5    5    0    0 -0.44105853067E+02  0.49678673941E+02 -0.48778451203E+02  0.82417438816E+02  0.00000000000E+00 0. -1.
          1    1    6    6  503    0 -0.97910233115E+02  0.20232506248E+03  0.78881944476E+03  0.82021823991E+03  0.00000000000E+00 0. -1.
         -1    1    6    6    0  503 -0.47778537758E+01  0.12307010061E+03  0.63105429010E+03  0.64296080331E+03  0.00000000000E+00 0.  1.
<mgrwt>
<rscale>  0 0.13379526E+04</rscale>
<asrwt>0</asrwt>
<pdfrwt beam="1">  1        1 0.29911204E+00 0.13379526E+04</pdfrwt>
<pdfrwt beam="2">  1       -2 0.35412847E-01 0.13379526E+04</pdfrwt>
<totfact> 0.20964943E+01</totfact>
</mgrwt>
</event>
<event>
12    5  0.5029243E-008  0.2131621E+04  0.7818608E-02  0.8547440E-01
          1   -1    0    0  501    0  0.00000000000E+00  0.00000000000E+00  0.12480799611E+04  0.12480799611E+04  0.00000000000E+00 0. -1.
         -2   -1    0    0    0  501 -0.00000000000E+00 -0.00000000000E+00 -0.91016005107E+03  0.91016005107E+03  0.00000000000E+00 0.  1.
        -24    2    1    2    0    0  0.14895221044E+03 -0.51725812793E+03 -0.55765662619E+03  0.77917848580E+03  0.79971670641E+02 0.  0.
        254    2    1    2    0    0 -0.14895221044E+03  0.51725812793E+03  0.89557653625E+03  0.13790615264E+04  0.90000590521E+03 0.  0.
         23    2    4    4    0    0 -0.21439580147E+03  0.74843119557E+03  0.73220128508E+03  0.10725840077E+04  0.90569959521E+02 0.  0.
         23    2    4    4    0    0  0.65443591032E+02 -0.23117306763E+03  0.16337525116E+03  0.30647751867E+03  0.97535357451E+02 0.  0.
          1    1    3    3  502    0  0.62042625877E+02 -0.29321947505E+03 -0.35687844991E+03  0.46603559519E+03  0.00000000000E+00 0. -1.
         -2    1    3    3    0  502  0.86909584558E+02 -0.22403865288E+03 -0.20077817628E+03  0.31314289061E+03  0.00000000000E+00 0.  1.
         13    1    5    5    0    0 -0.82441552135E+02  0.16263932228E+03  0.14843556630E+03  0.23511970571E+03  0.00000000000E+00 0. -1.
        -13    1    5    5    0    0 -0.13195424933E+03  0.58579187329E+03  0.58376571878E+03  0.83746430201E+03  0.00000000000E+00 0.  1.
          3    1    6    6  503    0  0.50900814600E+02 -0.13691514580E+03  0.41754737747E+02  0.15192138823E+03  0.00000000000E+00 0. -1.
         -3    1    6    6    0  503  0.14542776432E+02 -0.94257921832E+02  0.12162051342E+03  0.15455613044E+03  0.00000000000E+00 0.  1.
<mgrwt>
<rscale>  0 0.21316215E+04</rscale>
<asrwt>0</asrwt>
<pdfrwt beam="1">  1        1 0.19201230E+00 0.21316215E+04</pdfrwt>
<pdfrwt beam="2">  1       -2 0.14002462E+00 0.21316215E+04</pdfrwt>
<totfact> 0.28478993E+00</totfact>
</mgrwt>
</event>
<event>
12    5  0.5029243E-008  0.1217124E+04  0.7818608E-02  0.9097999E-01
         -2   -1    0    0    0  501 -0.00000000000E+00  0.00000000000E+00  0.95977866232E+02  0.95977866232E+02  0.00000000000E+00 0.  1.
          1   -1    0    0  501    0  0.00000000000E+00 -0.00000000000E+00 -0.38586774293E+04  0.38586774293E+04  0.00000000000E+00 0. -1.
        -24    2    1    2    0    0  0.12802828955E+03  0.25076437150E+03 -0.73974018799E+03  0.79561417851E+03  0.80699209298E+02 0.  0.
        254    2    1    2    0    0 -0.12802828955E+03 -0.25076437150E+03 -0.30229593751E+04  0.31590411170E+04  0.87291659551E+03 0.  0.
         23    2    4    4    0    0  0.47882789082E+02 -0.31474446557E+03 -0.36000138122E+03  0.48797538404E+03  0.84629432542E+02 0.  0.
         23    2    4    4    0    0 -0.17591107863E+03  0.63980094072E+02 -0.26629579939E+04  0.26710657330E+04  0.90601947102E+02 0.  0.
          1    1    3    3  502    0  0.70520342613E+02  0.18635899404E+03 -0.42750046660E+03  0.47165606360E+03  0.00000000000E+00 0. -1.
         -2    1    3    3    0  502  0.57507946939E+02  0.64405377458E+02 -0.31223972139E+03  0.32395811491E+03  0.00000000000E+00 0.  1.
         13    1    5    5    0    0  0.25503424846E+02 -0.28891476438E+02 -0.20690832220E+02  0.43740743336E+02  0.00000000000E+00 0. -1.
        -13    1    5    5    0    0  0.22379364236E+02 -0.28585298913E+03 -0.33931054900E+03  0.44423464071E+03  0.00000000000E+00 0.  1.
          4    1    6    6  503    0 -0.16720339632E+03  0.52519625264E+02 -0.19235109225E+04  0.19314785932E+04  0.00000000000E+00 0. -1.
         -4    1    6    6    0  503 -0.87076823168E+01  0.11460468809E+02 -0.73944707135E+03  0.73958713983E+03  0.00000000000E+00 0.  1.
<mgrwt>
<rscale>  0 0.12171239E+04</rscale>
<asrwt>0</asrwt>
<pdfrwt beam="1">  1        1 0.59364262E+00 0.12171239E+04</pdfrwt>
<pdfrwt beam="2">  1       -2 0.14765827E-01 0.12171239E+04</pdfrwt>
<totfact> 0.41001727E+00</totfact>
</mgrwt>
</event>
<event>
12    5  0.5029243E-008  0.1357818E+04  0.7818608E-02  0.8984931E-01
          1   -1    0    0  501    0  0.00000000000E+00  0.00000000000E+00  0.93259284261E+03  0.93259284261E+03  0.00000000000E+00 0. -1.
         -2   -1    0    0    0  501 -0.00000000000E+00 -0.00000000000E+00 -0.49423196281E+03  0.49423196281E+03  0.00000000000E+00 0.  1.
        -24    2    1    2    0    0  0.14088621442E+03 -0.13747205846E+03  0.45449807236E+03  0.50178361308E+03  0.80441309720E+02 0.  0.
        254    2    1    2    0    0 -0.14088621442E+03  0.13747205846E+03 -0.16137192556E+02  0.92504119235E+03  0.90371085325E+03 0.  0.
         23    2    4    4    0    0 -0.19937607272E+03 -0.29058195484E+03  0.21805258586E+03  0.42463993127E+03  0.92646911338E+02 0.  0.
         23    2    4    4    0    0  0.58489858304E+02  0.42805401330E+03 -0.23418977842E+03  0.50040126107E+03  0.94367727221E+02 0.  0.
          3    1    3    3  502    0  0.14587924864E+03 -0.13322078936E+03  0.39224773862E+03  0.43918882312E+03  0.00000000000E+00 0. -1.
         -4    1    3    3    0  502 -0.49930342216E+01 -0.42512690980E+01  0.62250333737E+02  0.62594789960E+02  0.00000000000E+00 0.  1.
         13    1    5    5    0    0 -0.17417385819E+03 -0.26737750114E+03  0.22399158798E+03  0.38987112291E+03  0.00000000000E+00 0.  1.
        -13    1    5    5    0    0 -0.25202214535E+02 -0.23204453704E+02 -0.59390021224E+01  0.34768808368E+02  0.00000000000E+00 0. -1.
          3    1    6    6  503    0 -0.23875865029E+02  0.15980975905E+03 -0.82800253410E+02  0.18156293120E+03  0.00000000000E+00 0. -1.
         -3    1    6    6    0  503  0.82365723333E+02  0.26824425425E+03 -0.15138952501E+03  0.31883832988E+03  0.00000000000E+00 0.  1.
<mgrwt>
<rscale>  0 0.13578176E+04</rscale>
<asrwt>0</asrwt>
<pdfrwt beam="1">  1        1 0.14347582E+00 0.13578176E+04</pdfrwt>
<pdfrwt beam="2">  1       -2 0.76035687E-01 0.13578176E+04</pdfrwt>
<totfact> 0.22735436E+01</totfact>
</mgrwt>
</event>
<event>
12    5  0.5029243E-008  0.1840688E+04  0.7818608E-02  0.8684956E-01
          3   -1    0    0  501    0  0.00000000000E+00  0.00000000000E+00  0.18797979653E+04  0.18797979653E+04  0.00000000000E+00 0. -1.
         -4   -1    0    0    0  501 -0.00000000000E+00 -0.00000000000E+00 -0.45059808782E+03  0.45059808782E+03  0.00000000000E+00 0.  1.
        -24    2    1    2    0    0 -0.71739186399E+02  0.11568931023E+03  0.14063278984E+04  0.14145247596E+04  0.67761422766E+02 0.  0.
        254    2    1    2    0    0  0.71739186399E+02 -0.11568931023E+03  0.22871979124E+02  0.91587129354E+03  0.90540961533E+03 0.  0.
         23    2    4    4    0    0  0.39470349446E+03  0.13502313027E+03 -0.16488001248E+03  0.45682180234E+03  0.86479167028E+02 0.  0.
         23    2    4    4    0    0 -0.32296430806E+03 -0.25071244051E+03  0.18775199160E+03  0.45904949119E+03  0.91175396394E+02 0.  0.
          1    1    3    3  502    0 -0.37511197139E+02  0.10804241567E+03  0.95201920930E+03  0.95886434305E+03  0.00000000000E+00 0. -1.
         -2    1    3    3    0  502 -0.34227989260E+02  0.76468945631E+01  0.45430868910E+03  0.45566041658E+03  0.00000000000E+00 0.  1.
         13    1    5    5    0    0  0.15033379852E+03  0.78582137256E+01 -0.56545141776E+02  0.16080844368E+03  0.00000000000E+00 0.  1.
        -13    1    5    5    0    0  0.24436969594E+03  0.12716491655E+03 -0.10833487070E+03  0.29601335866E+03  0.00000000000E+00 0. -1.
          4    1    6    6  503    0 -0.44337842429E+01 -0.19471000461E+02 -0.52693346835E+01  0.20652946271E+02  0.00000000000E+00 0. -1.
         -4    1    6    6    0  503 -0.31853052382E+03 -0.23124144004E+03  0.19302132628E+03  0.43839654492E+03  0.00000000000E+00 0.  1.
<mgrwt>
<rscale>  0 0.18406883E+04</rscale>
<asrwt>0</asrwt>
<pdfrwt beam="1">  1        3 0.28919968E+00 0.18406883E+04</pdfrwt>
<pdfrwt beam="2">  1       -4 0.69322784E-01 0.18406883E+04</pdfrwt>
<totfact> 0.18352320E-01</totfact>
</mgrwt>
</event>
<event>
12    5  0.5029243E-008  0.1337062E+04  0.7818608E-02  0.9000680E-01
         -4   -1    0    0    0  501 -0.00000000000E+00  0.00000000000E+00  0.64468320255E+03  0.64468320255E+03  0.00000000000E+00 0.  1.
          1   -1    0    0  501    0  0.00000000000E+00 -0.00000000000E+00 -0.69326136490E+03  0.69326136490E+03  0.00000000000E+00 0. -1.
        -24    2    1    2    0    0 -0.25509394385E+03 -0.85492174092E+02 -0.24913370655E+03  0.37576663811E+03  0.82165263696E+02 0.  0.
        254    2    1    2    0    0  0.25509394385E+03  0.85492174092E+02  0.20055554421E+03  0.96217792934E+03  0.90176605025E+03 0.  0.
         23    2    4    4    0    0 -0.14124952642E+03 -0.18718101233E+03  0.36668462430E+03  0.44507279896E+03  0.92973235858E+02 0.  0.
         23    2    4    4    0    0  0.39634347027E+03  0.27267318642E+03 -0.16612908010E+03  0.51710513038E+03  0.91433208343E+02 0.  0.
          1    1    3    3  502    0 -0.25196217826E+03 -0.79552329997E+02 -0.21404815915E+03  0.34004430140E+03  0.00000000000E+00 0. -1.
         -2    1    3    3    0  502 -0.31317655921E+01 -0.59398440951E+01 -0.35085547401E+02  0.35722336710E+02  0.00000000000E+00 0.  1.
         13    1    5    5    0    0 -0.33333197853E+02  0.13474873443E+01  0.68052809418E+02  0.75789858629E+02  0.00000000000E+00 0. -1.
        -13    1    5    5    0    0 -0.10791632857E+03 -0.18852849967E+03  0.29863181489E+03  0.36928294033E+03  0.00000000000E+00 0.  1.
          2    1    6    6  503    0  0.24280416860E+03  0.14024088316E+03 -0.13762406456E+03  0.31234876780E+03  0.00000000000E+00 0. -1.
         -2    1    6    6    0  503  0.15353930167E+03  0.13243230326E+03 -0.28505015534E+02  0.20475636258E+03  0.00000000000E+00 0.  1.
<mgrwt>
<rscale>  0 0.13370624E+04</rscale>
<asrwt>0</asrwt>
<pdfrwt beam="1">  1        1 0.10665559E+00 0.13370624E+04</pdfrwt>
<pdfrwt beam="2">  1       -4 0.99182031E-01 0.13370624E+04</pdfrwt>
<totfact> 0.11017763E+01</totfact>
</mgrwt>
</event>
<event>
12    5  0.5029243E-008  0.2069673E+04  0.7818608E-02  0.8574722E-01
         -2   -1    0    0    0  501 -0.00000000000E+00  0.00000000000E+00  0.91578024053E+03  0.91578024053E+03  0.00000000000E+00 0.  1.
          1   -1    0    0  501    0  0.00000000000E+00 -0.00000000000E+00 -0.11693703675E+04  0.11693703675E+04  0.00000000000E+00 0. -1.
        -24    2    1    2    0    0 -0.20078024363E+03 -0.64176050819E+03  0.39458781421E+03  0.78364237944E+03  0.78908679033E+02 0.  0.
        254    2    1    2    0    0  0.20078024363E+03  0.64176050819E+03 -0.64817794116E+03  0.13015082286E+04  0.90643244069E+03 0.  0.
         23    2    4    4    0    0  0.32907242744E+03  0.16028697242E+03 -0.69733396110E+03  0.79256311166E+03  0.88887887954E+02 0.  0.
         23    2    4    4    0    0 -0.12829218381E+03  0.48147353577E+03  0.49156019947E+02  0.50894511691E+03  0.91286185484E+02 0.  0.
          3    1    3    3  502    0 -0.99834891862E+02 -0.26070095548E+03  0.12373384956E+03  0.30535562766E+03  0.00000000000E+00 0. -1.
         -4    1    3    3    0  502 -0.10094535177E+03 -0.38105955271E+03  0.27085396465E+03  0.47828675177E+03  0.00000000000E+00 0.  1.
         13    1    5    5    0    0  0.26678170361E+02  0.16390030562E+02 -0.13041739275E+03  0.13412327989E+03  0.00000000000E+00 0. -1.
        -13    1    5    5    0    0  0.30239425708E+03  0.14389694185E+03 -0.56691656835E+03  0.65843983177E+03  0.00000000000E+00 0.  1.
          2    1    6    6  503    0  0.10944944255E+02  0.34324953852E+02 -0.86891670979E+01  0.37060705424E+02  0.00000000000E+00 0. -1.
         -2    1    6    6    0  503 -0.13923712807E+03  0.44714858192E+03  0.57845187045E+02  0.47188441149E+03  0.00000000000E+00 0.  1.
<mgrwt>
<rscale>  0 0.20696727E+04</rscale>
<asrwt>0</asrwt>
<pdfrwt beam="1">  1        1 0.17990313E+00 0.20696727E+04</pdfrwt>
<pdfrwt beam="2">  1       -2 0.14088927E+00 0.20696727E+04</pdfrwt>
<totfact> 0.32158712E+00</totfact>
</mgrwt>
</event>
<event>
12    5  0.5029243E-008  0.1419127E+04  0.7818608E-02  0.8940088E-01
         -2   -1    0    0    0  501 -0.00000000000E+00  0.00000000000E+00  0.44617174982E+03  0.44617174982E+03  0.00000000000E+00 0.  1.
          1   -1    0    0  501    0  0.00000000000E+00 -0.00000000000E+00 -0.11284456396E+04  0.11284456396E+04  0.00000000000E+00 0. -1.
        -24    2    1    2    0    0 -0.35798588821E+03 -0.15037995796E+03 -0.33528970455E+02  0.39778819939E+03  0.79644408507E+02 0.  0.
        254    2    1    2    0    0  0.35798588821E+03  0.15037995796E+03 -0.64874491937E+03  0.11768291901E+04  0.90182534023E+03 0.  0.
         23    2    4    4    0    0  0.39727079626E+03 -0.61466923853E+02 -0.79864140618E+03  0.89868329919E+03  0.90561074863E+02 0.  0.
         23    2    4    4    0    0 -0.39284908058E+02  0.21184688181E+03  0.14989648681E+03  0.27814589088E+03  0.92053107084E+02 0.  0.
          1    1    3    3  502    0  0.35084991477E+01  0.16511194512E+01  0.12805164853E+01  0.40835626823E+01  0.00000000000E+00 0. -1.
         -2    1    3    3    0  502 -0.36149438735E+03 -0.15203107741E+03 -0.34809486940E+02  0.39370463671E+03  0.00000000000E+00 0.  1.
         13    1    5    5    0    0  0.30131326395E+02  0.18775360265E+02 -0.54736825007E+02  0.65242095270E+02  0.00000000000E+00 0. -1.
        -13    1    5    5    0    0  0.36713946987E+03 -0.80242284118E+02 -0.74390458117E+03  0.83344120392E+03  0.00000000000E+00 0.  1.
          3    1    6    6  503    0 -0.56746550402E+02  0.20557162409E+03  0.14780609767E+03  0.25947351718E+03  0.00000000000E+00 0.  1.
         -3    1    6    6    0  503  0.17461642343E+02  0.62752577245E+01  0.20903891415E+01  0.18672373700E+02  0.00000000000E+00 0. -1.
<mgrwt>
<rscale>  0 0.14191273E+04</rscale>
<asrwt>0</asrwt>
<pdfrwt beam="1">  1        1 0.17360702E+00 0.14191273E+04</pdfrwt>
<pdfrwt beam="2">  1       -2 0.68641810E-01 0.14191273E+04</pdfrwt>
<totfact> 0.19994315E+01</totfact>
</mgrwt>
</event>
<event>
12    5  0.5029243E-008  0.1524372E+04  0.7818608E-02  0.8868406E-01
          1   -1    0    0  501    0  0.00000000000E+00  0.00000000000E+00  0.42035225355E+03  0.42035225355E+03  0.00000000000E+00 0. -1.
         -2   -1    0    0    0  501 -0.00000000000E+00 -0.00000000000E+00 -0.13820009298E+04  0.13820009298E+04  0.00000000000E+00 0.  1.
        -24    2    1    2    0    0 -0.14195357101E+03  0.46716850208E+03 -0.36039051664E+03  0.61209661432E+03  0.79898154656E+02 0.  0.
        254    2    1    2    0    0  0.14195357101E+03 -0.46716850208E+03 -0.60125815960E+03  0.11902565690E+04  0.90377104400E+03 0.  0.
         23    2    4    4    0    0  0.49572833970E+03 -0.33269719063E+03 -0.21251176363E+03  0.64014100811E+03  0.90472388910E+02 0.  0.
         23    2    4    4    0    0 -0.35377476869E+03 -0.13447131145E+03 -0.38874639597E+03  0.55011556091E+03  0.90907917202E+02 0.  0.
          3    1    3    3  502    0 -0.17147035091E+02  0.54974202274E+02 -0.13639055139E+02  0.59179452119E+02  0.00000000000E+00 0. -1.
         -4    1    3    3    0  502 -0.12480653592E+03  0.41219429981E+03 -0.34675146150E+03  0.55291716220E+03  0.00000000000E+00 0.  1.
         13    1    5    5    0    0  0.43908060731E+03 -0.32584027509E+03 -0.19227923960E+03  0.57959897392E+03  0.00000000000E+00 0. -1.
        -13    1    5    5    0    0  0.56647732388E+02 -0.68569155316E+01 -0.20232524028E+02  0.60542034190E+02  0.00000000000E+00 0.  1.
          1    1    6    6  503    0 -0.32026683188E+03 -0.14777517974E+03 -0.36014338660E+03  0.50409483857E+03  0.00000000000E+00 0. -1.
         -1    1    6    6    0  503 -0.33507936808E+02  0.13303868287E+02 -0.28603009361E+02  0.46020722344E+02  0.00000000000E+00 0.  1.
<mgrwt>
<rscale>  0 0.15243716E+04</rscale>
<asrwt>0</asrwt>
<pdfrwt beam="1">  1        1 0.64669577E-01 0.15243716E+04</pdfrwt>
<pdfrwt beam="2">  1       -2 0.21261553E+00 0.15243716E+04</pdfrwt>
<totfact> 0.52155024E+00</totfact>
</mgrwt>
</event>
<event>
12    5  0.5029243E-008  0.2167987E+04  0.7818608E-02  0.8531872E-01
         -2   -1    0    0    0  501 -0.00000000000E+00  0.00000000000E+00  0.26043262914E+04  0.26043262914E+04  0.00000000000E+00 0.  1.
          1   -1    0    0  501    0  0.00000000000E+00 -0.00000000000E+00 -0.45118861361E+03  0.45118861361E+03  0.00000000000E+00 0. -1.
        -24    2    1    2    0    0  0.20475809851E+03  0.82708446253E+03  0.12617300644E+04  0.15245510016E+04  0.79362548029E+02 0.  0.
        254    2    1    2    0    0 -0.20475809851E+03 -0.82708446253E+03  0.89140761342E+03  0.15309639034E+04  0.90733034407E+03 0.  0.
         23    2    4    4    0    0 -0.24561314856E+03 -0.97960162654E+03  0.57387123246E+03  0.11650335116E+04  0.89608739139E+02 0.  0.
         23    2    4    4    0    0  0.40855050054E+02  0.15251716401E+03  0.31753638096E+03  0.36593039188E+03  0.90250086068E+02 0.  0.
          3    1    3    3  502    0  0.70053707916E+02  0.43661457709E+03  0.62655475129E+03  0.76688373779E+03  0.00000000000E+00 0. -1.
         -4    1    3    3    0  502  0.13470439059E+03  0.39046988545E+03  0.63517531308E+03  0.75766726380E+03  0.00000000000E+00 0.  1.
         13    1    5    5    0    0 -0.23529938034E+03 -0.81220672163E+03  0.46408702216E+03  0.96458401459E+03  0.00000000000E+00 0.  1.
        -13    1    5    5    0    0 -0.10313768220E+02 -0.16739490491E+03  0.10978421030E+03  0.20044949697E+03  0.00000000000E+00 0. -1.
          3    1    6    6  503    0 -0.28655946174E+02  0.35253207182E+02  0.73757229975E+02  0.86626097923E+02  0.00000000000E+00 0. -1.
         -3    1    6    6    0  503  0.69510996228E+02  0.11726395682E+03  0.24377915099E+03  0.27930429396E+03  0.00000000000E+00 0.  1.
<mgrwt>
<rscale>  0 0.21679874E+04</rscale>
<asrwt>0</asrwt>
<pdfrwt beam="1">  1        1 0.69413634E-01 0.21679874E+04</pdfrwt>
<pdfrwt beam="2">  1       -2 0.40066557E+00 0.21679874E+04</pdfrwt>
<totfact> 0.30062551E-01</totfact>
</mgrwt>
</event>
<event>
12    5  0.5029243E-008  0.1348218E+04  0.7818608E-02  0.8992178E-01
          1   -1    0    0  501    0  0.00000000000E+00  0.00000000000E+00  0.10156140158E+04  0.10156140158E+04  0.00000000000E+00 0. -1.
         -2   -1    0    0    0  501 -0.00000000000E+00 -0.00000000000E+00 -0.44743663339E+03  0.44743663339E+03  0.00000000000E+00 0.  1.
        -24    2    1    2    0    0  0.12294063966E+03  0.31282283295E+03  0.31488051072E+03  0.46734660097E+03  0.79313200082E+02 0.  0.
        254    2    1    2    0    0 -0.12294063966E+03 -0.31282283295E+03  0.25329687172E+03  0.99570404825E+03  0.90238280169E+03 0.  0.
         23    2    4    4    0    0 -0.16733820549E+03 -0.18013177880E+03  0.57571752786E+03  0.63228771335E+03  0.88811867530E+02 0.  0.
         23    2    4    4    0    0  0.44397565835E+02 -0.13269105415E+03 -0.32242065614E+03  0.36341633491E+03  0.92402885591E+02 0.  0.
          3    1    3    3  502    0  0.10606479434E+03  0.27115244667E+03  0.22905405610E+03  0.37045802806E+03  0.00000000000E+00 0. -1.
         -4    1    3    3    0  502  0.16875845316E+02  0.41670386276E+02  0.85826454618E+02  0.96888572907E+02  0.00000000000E+00 0.  1.
         13    1    5    5    0    0 -0.19501905514E+02 -0.12038513661E+01  0.11239450455E+03  0.11408022717E+03  0.00000000000E+00 0.  1.
        -13    1    5    5    0    0 -0.14783629998E+03 -0.17892792744E+03  0.46332302330E+03  0.51820748618E+03  0.00000000000E+00 0. -1.
          2    1    6    6  503    0  0.51457727899E+01 -0.14167234943E+02 -0.14881503923E+03  0.14957642002E+03  0.00000000000E+00 0. -1.
         -2    1    6    6    0  503  0.39251793045E+02 -0.11852381921E+03 -0.17360561691E+03  0.21383991489E+03  0.00000000000E+00 0.  1.
<mgrwt>
<rscale>  0 0.13482180E+04</rscale>
<asrwt>0</asrwt>
<pdfrwt beam="1">  1        1 0.15624831E+00 0.13482180E+04</pdfrwt>
<pdfrwt beam="2">  1       -2 0.68836405E-01 0.13482180E+04</pdfrwt>
<totfact> 0.24348962E+01</totfact>
</mgrwt>
</event>
<event>
12    5  0.5029243E-008  0.1565573E+04  0.7818608E-02  0.8841982E-01
         -2   -1    0    0    0  501 -0.00000000000E+00  0.00000000000E+00  0.11433072472E+04  0.11433072472E+04  0.00000000000E+00 0.  1.
          1   -1    0    0  501    0  0.00000000000E+00 -0.00000000000E+00 -0.53594925516E+03  0.53594925516E+03  0.00000000000E+00 0. -1.
        -24    2    1    2    0    0  0.46663252085E+01 -0.73017617526E+02  0.75798857945E+03  0.76556573246E+03  0.78681999650E+02 0.  0.
        254    2    1    2    0    0 -0.46663252085E+01  0.73017617526E+02 -0.15063058738E+03  0.91369076994E+03  0.89821372855E+03 0.  0.
         23    2    4    4    0    0 -0.81499309975E+02  0.13717828084E+03 -0.50384584271E+03  0.53579169634E+03  0.88045956115E+02 0.  0.
         23    2    4    4    0    0  0.76832984766E+02 -0.64160663317E+02  0.35321525533E+03  0.37789907360E+03  0.89592382284E+02 0.  0.
          3    1    3    3  502    0  0.10066882297E+01 -0.54930553239E+02  0.20395894579E+03  0.21122885851E+03  0.00000000000E+00 0. -1.
         -4    1    3    3    0  502  0.36596369787E+01 -0.18087064287E+02  0.55402963366E+03  0.55433687394E+03  0.00000000000E+00 0.  1.
         13    1    5    5    0    0 -0.45205590916E+02  0.96541152228E+02 -0.43565263917E+03  0.44850525252E+03  0.00000000000E+00 0.  1.
        -13    1    5    5    0    0 -0.36293719059E+02  0.40637128614E+02 -0.68193203538E+02  0.87286443816E+02  0.00000000000E+00 0. -1.
          4    1    6    6  503    0  0.80622308964E+01  0.20604304824E+02  0.34259779758E+02  0.40783200627E+02  0.00000000000E+00 0. -1.
         -4    1    6    6    0  503  0.68770753870E+02 -0.84764968141E+02  0.31895547557E+03  0.33711587297E+03  0.00000000000E+00 0.  1.
<mgrwt>
<rscale>  0 0.15655730E+04</rscale>
<asrwt>0</asrwt>
<pdfrwt beam="1">  1        1 0.82453731E-01 0.15655730E+04</pdfrwt>
<pdfrwt beam="2">  1       -2 0.17589342E+00 0.15655730E+04</pdfrwt>
<totfact> 0.65528740E+00</totfact>
</mgrwt>
</event>
<event>
12    5  0.5029243E-008  0.1310890E+04  0.7818608E-02  0.9020974E-01
         -2   -1    0    0    0  501 -0.00000000000E+00  0.00000000000E+00  0.60707983050E+03  0.60707983050E+03  0.00000000000E+00 0.  1.
          1   -1    0    0  501    0  0.00000000000E+00 -0.00000000000E+00 -0.70766294140E+03  0.70766294140E+03  0.00000000000E+00 0. -1.
        -24    2    1    2    0    0 -0.20025052210E+03 -0.22137573600E+03 -0.18076766130E+03  0.35806552352E+03  0.80165352033E+02 0.  0.
        254    2    1    2    0    0  0.20025052210E+03  0.22137573600E+03  0.80184550412E+02  0.95667724838E+03  0.90536970756E+03 0.  0.
         23    2    4    4    0    0 -0.71270859915E+02 -0.19409191435E+03  0.32502311263E+03  0.39609192024E+03  0.92182313108E+02 0.  0.
         23    2    4    4    0    0  0.27152138201E+03  0.41546765035E+03 -0.24483856221E+03  0.56058532814E+03  0.89290308589E+02 0.  0.
          3    1    3    3  502    0 -0.86587702183E+02 -0.10096893596E+03 -0.35187794571E+02  0.13758756152E+03  0.00000000000E+00 0. -1.
         -4    1    3    3    0  502 -0.11366281991E+03 -0.12040680004E+03 -0.14557986673E+03  0.22047796199E+03  0.00000000000E+00 0.  1.
         13    1    5    5    0    0 -0.21817747237E+02 -0.80035338762E+02  0.21362528391E+03  0.22916682018E+03  0.00000000000E+00 0. -1.
        -13    1    5    5    0    0 -0.49453112679E+02 -0.11405657558E+03  0.11139782872E+03  0.16692510006E+03  0.00000000000E+00 0.  1.
          3    1    6    6  503    0  0.14205711659E+03  0.15355036294E+03 -0.13220440326E+03  0.24745897149E+03  0.00000000000E+00 0. -1.
         -3    1    6    6    0  503  0.12946426543E+03  0.26191728741E+03 -0.11263415895E+03  0.31312635665E+03  0.00000000000E+00 0.  1.
<mgrwt>
<rscale>  0 0.13108896E+04</rscale>
<asrwt>0</asrwt>
<pdfrwt beam="1">  1        1 0.10887122E+00 0.13108896E+04</pdfrwt>
<pdfrwt beam="2">  1       -2 0.93396897E-01 0.13108896E+04</pdfrwt>
<totfact> 0.22342573E+01</totfact>
</mgrwt>
</event>
<event>
12    5  0.5029243E-008  0.1364861E+04  0.7818608E-02  0.8979654E-01
          1   -1    0    0  501    0  0.00000000000E+00  0.00000000000E+00  0.17874809939E+04  0.17874809939E+04  0.00000000000E+00 0. -1.
         -2   -1    0    0    0  501 -0.00000000000E+00 -0.00000000000E+00 -0.26054074876E+03  0.26054074876E+03  0.00000000000E+00 0.  1.
        -24    2    1    2    0    0 -0.15743461469E+03  0.28901577729E+02  0.98487611946E+03  0.10009909754E+04  0.79881180307E+02 0.  0.
        254    2    1    2    0    0  0.15743461469E+03 -0.28901577729E+02  0.54206412570E+03  0.10470307673E+04  0.88137333307E+03 0.  0.
         23    2    4    4    0    0  0.34573321753E+03  0.32194854111E+03  0.23946097715E+03  0.53767050687E+03  0.92551032118E+02 0.  0.
         23    2    4    4    0    0 -0.18829860285E+03 -0.35085011884E+03  0.30260314855E+03  0.50936026045E+03  0.96576600095E+02 0.  0.
          3    1    3    3  502    0 -0.46834968139E+02  0.19304872198E+02  0.54396038834E+03  0.54631410050E+03  0.00000000000E+00 0. -1.
         -4    1    3    3    0  502 -0.11059964655E+03  0.95967055311E+01  0.44091573113E+03  0.45467687486E+03  0.00000000000E+00 0.  1.
         13    1    5    5    0    0  0.25877216831E+03  0.28267204066E+03  0.21390921415E+03  0.43888913128E+03  0.00000000000E+00 0.  1.
        -13    1    5    5    0    0  0.86961049221E+02  0.39276500458E+02  0.25551763007E+02  0.98781375586E+02  0.00000000000E+00 0. -1.
          3    1    6    6  503    0 -0.96123041760E+02 -0.17730816992E+03  0.21317832216E+03  0.29346690327E+03  0.00000000000E+00 0. -1.
         -3    1    6    6    0  503 -0.92175561088E+02 -0.17354194892E+03  0.89424826387E+02  0.21589335717E+03  0.00000000000E+00 0.  1.
<mgrwt>
<rscale>  0 0.13648614E+04</rscale>
<asrwt>0</asrwt>
<pdfrwt beam="1">  1        1 0.27499707E+00 0.13648614E+04</pdfrwt>
<pdfrwt beam="2">  1       -2 0.40083193E-01 0.13648614E+04</pdfrwt>
<totfact> 0.21009049E+01</totfact>
</mgrwt>
</event>
<event>
12    5  0.5029243E-008  0.2137707E+04  0.7818608E-02  0.8544813E-01
          1   -1    0    0  501    0  0.00000000000E+00  0.00000000000E+00  0.19736111743E+04  0.19736111743E+04  0.00000000000E+00 0. -1.
         -2   -1    0    0    0  501 -0.00000000000E+00 -0.00000000000E+00 -0.57886150840E+03  0.57886150840E+03  0.00000000000E+00 0.  1.
        -24    2    1    2    0    0  0.12744116893E+03  0.71377315871E+03 -0.13823280568E+02  0.72946806497E+03  0.78861911602E+02 0.  0.
        254    2    1    2    0    0 -0.12744116893E+03 -0.71377315871E+03  0.14085729464E+04  0.18230046177E+04  0.90197268089E+03 0.  0.
         23    2    4    4    0    0 -0.20929630693E+03 -0.43667619560E+03  0.14345485365E+04  0.15171248164E+04  0.96162159729E+02 0.  0.
         23    2    4    4    0    0  0.81855137998E+02 -0.27709696311E+03 -0.25975590098E+02  0.30587980130E+03  0.96977992243E+02 0.  0.
          1    1    3    3  502    0  0.41402917715E+02  0.17412578139E+03 -0.35958645787E+02  0.18255687756E+03  0.00000000000E+00 0. -1.
         -2    1    3    3    0  502  0.86038251213E+02  0.53964737732E+03  0.22135365219E+02  0.54691118741E+03  0.00000000000E+00 0.  1.
         13    1    5    5    0    0 -0.10160622407E+03 -0.29612864474E+03  0.82602040083E+03  0.88336045961E+03  0.00000000000E+00 0. -1.
        -13    1    5    5    0    0 -0.10769008286E+03 -0.14054755085E+03  0.60852813569E+03  0.63376435678E+03  0.00000000000E+00 0.  1.
          4    1    6    6  503    0  0.47699668927E+02 -0.96001874991E+02  0.33368955190E+02  0.11227246140E+03  0.00000000000E+00 0.  1.
         -4    1    6    6    0  503  0.34155469071E+02 -0.18109508812E+03 -0.59344545287E+02  0.19360733990E+03  0.00000000000E+00 0. -1.
<mgrwt>
<rscale>  0 0.21377068E+04</rscale>
<asrwt>0</asrwt>
<pdfrwt beam="1">  1        1 0.30363248E+00 0.21377068E+04</pdfrwt>
<pdfrwt beam="2">  1       -2 0.89055618E-01 0.21377068E+04</pdfrwt>
<totfact> 0.27073941E+00</totfact>
</mgrwt>
</event>
<event>
12    5  0.5029243E-008  0.1817337E+04  0.7818608E-02  0.8697134E-01
          1   -1    0    0  501    0  0.00000000000E+00  0.00000000000E+00  0.13656061781E+04  0.13656061781E+04  0.00000000000E+00 0. -1.
         -2   -1    0    0    0  501 -0.00000000000E+00 -0.00000000000E+00 -0.60462439545E+03  0.60462439545E+03  0.00000000000E+00 0.  1.
        -24    2    1    2    0    0  0.26220267387E+03  0.33136838228E+03  0.86405634858E+03  0.96549423160E+03  0.83848021816E+02 0.  0.
        254    2    1    2    0    0 -0.26220267387E+03 -0.33136838228E+03 -0.10307456597E+03  0.10047363419E+04  0.90571270482E+03 0.  0.
         23    2    4    4    0    0 -0.19398682784E+03  0.23377615305E+03  0.17801164821E+03  0.36388443353E+03  0.91877935070E+02 0.  0.
         23    2    4    4    0    0 -0.68215846025E+02 -0.56514453532E+03 -0.28108621418E+03  0.64085190840E+03  0.87406871808E+02 0.  0.
          3    1    3    3  502    0  0.18191877096E+03  0.17018303618E+03  0.45982213398E+03  0.52296567758E+03  0.00000000000E+00 0. -1.
         -4    1    3    3    0  502  0.80283902912E+02  0.16118534609E+03  0.40423421461E+03  0.44252855402E+03  0.00000000000E+00 0.  1.
         13    1    5    5    0    0 -0.14299505351E+03  0.21969053400E+03  0.13066932079E+03  0.29289245032E+03  0.00000000000E+00 0. -1.
        -13    1    5    5    0    0 -0.50991774337E+02  0.14085619045E+02  0.47342327424E+02  0.70991983209E+02  0.00000000000E+00 0.  1.
          2    1    6    6  503    0  0.72177997021E+00 -0.89617169272E+02 -0.79429055832E+02  0.11975279915E+03  0.00000000000E+00 0.  1.
         -2    1    6    6    0  503 -0.68937625996E+02 -0.47552736605E+03 -0.20165715835E+03  0.52109910924E+03  0.00000000000E+00 0. -1.
<mgrwt>
<rscale>  0 0.18173374E+04</rscale>
<asrwt>0</asrwt>
<pdfrwt beam="1">  1        1 0.21009326E+00 0.18173374E+04</pdfrwt>
<pdfrwt beam="2">  1       -2 0.93019138E-01 0.18173374E+04</pdfrwt>
<totfact> 0.65751996E+00</totfact>
</mgrwt>
</event>
<event>
12    5  0.5029243E-008  0.1191735E+04  0.7818608E-02  0.9120122E-01
          1   -1    0    0  501    0  0.00000000000E+00  0.00000000000E+00  0.35722944804E+03  0.35722944804E+03  0.00000000000E+00 0. -1.
         -2   -1    0    0    0  501 -0.00000000000E+00 -0.00000000000E+00 -0.99392107480E+03  0.99392107480E+03  0.00000000000E+00 0.  1.
        -24    2    1    2    0    0 -0.93774728910E+02 -0.26761546612E+02 -0.39442524952E+03  0.41407395566E+03  0.79850379692E+02 0.  0.
        254    2    1    2    0    0  0.93774728910E+02  0.26761546612E+02 -0.24226637723E+03  0.93707656718E+03  0.89994978474E+03 0.  0.
         23    2    4    4    0    0  0.13648856843E+03 -0.27506476407E+03  0.21055712902E+03  0.38372916463E+03  0.92865566599E+02 0.  0.
         23    2    4    4    0    0 -0.42713839518E+02  0.30182631069E+03 -0.45282350625E+03  0.55334740255E+03  0.90667668926E+02 0.  0.
          1    1    3    3  502    0 -0.86048992705E+02 -0.42203048638E+02 -0.23611763256E+03  0.25482751591E+03  0.00000000000E+00 0. -1.
         -2    1    3    3    0  502 -0.77257362048E+01  0.15441502026E+02 -0.15830761696E+03  0.15924643975E+03  0.00000000000E+00 0.  1.
         13    1    5    5    0    0  0.69828227752E+00 -0.83380938654E+02  0.77055316289E+02  0.11353585468E+03  0.00000000000E+00 0. -1.
        -13    1    5    5    0    0  0.13579028615E+03 -0.19168382542E+03  0.13350181273E+03  0.27019330995E+03  0.00000000000E+00 0.  1.
          1    1    6    6  503    0  0.15861521071E+02  0.94306880833E+01 -0.15895346954E+02  0.24355446685E+02  0.00000000000E+00 0. -1.
         -1    1    6    6    0  503 -0.58575360589E+02  0.29239562260E+03 -0.43692815930E+03  0.52899195587E+03  0.00000000000E+00 0.  1.
<mgrwt>
<rscale>  0 0.11917347E+04</rscale>
<asrwt>0</asrwt>
<pdfrwt beam="1">  1        1 0.54958376E-01 0.11917347E+04</pdfrwt>
<pdfrwt beam="2">  1       -2 0.15291094E+00 0.11917347E+04</pdfrwt>
<totfact> 0.17144151E+01</totfact>
</mgrwt>
</event>
<event>
12    5  0.5029243E-008  0.2006855E+04  0.7818608E-02  0.8603422E-01
         -2   -1    0    0    0  501 -0.00000000000E+00  0.00000000000E+00  0.64356324910E+03  0.64356324910E+03  0.00000000000E+00 0.  1.
          1   -1    0    0  501    0  0.00000000000E+00 -0.00000000000E+00 -0.15645185357E+04  0.15645185357E+04  0.00000000000E+00 0. -1.
        -24    2    1    2    0    0  0.44988973914E+03 -0.62235438092E+03 -0.63311136233E+03  0.99799580602E+03  0.73755534501E+02 0.  0.
        254    2    1    2    0    0 -0.44988973914E+03  0.62235438092E+03 -0.28784392425E+03  0.12100859788E+04  0.88979109819E+03 0.  0.
         23    2    4    4    0    0 -0.56968863314E+03  0.75132545136E+03 -0.12843906499E+03  0.95599061797E+03  0.91577265986E+02 0.  0.
         23    2    4    4    0    0  0.11979889399E+03 -0.12897107044E+03 -0.15940485926E+03  0.25409536079E+03  0.90383799458E+02 0.  0.
          1    1    3    3  502    0  0.42641549807E+03 -0.59935808360E+03 -0.58549428788E+03  0.94014033554E+03  0.00000000000E+00 0. -1.
         -2    1    3    3    0  502  0.23474241076E+02 -0.22996297325E+02 -0.47617074451E+02  0.57855470476E+02  0.00000000000E+00 0.  1.
         13    1    5    5    0    0 -0.30303709742E+03  0.32816326151E+03 -0.45491909058E+02  0.44899011393E+03  0.00000000000E+00 0.  1.
        -13    1    5    5    0    0 -0.26665153571E+03  0.42316218985E+03 -0.82947155928E+02  0.50700050404E+03  0.00000000000E+00 0. -1.
          3    1    6    6  503    0  0.22531530297E+02  0.22268349951E+01 -0.56980988970E+02  0.61314449811E+02  0.00000000000E+00 0. -1.
         -3    1    6    6    0  503  0.97267363696E+02 -0.13119790544E+03 -0.10242387029E+03  0.19278091098E+03  0.00000000000E+00 0.  1.
<mgrwt>
<rscale>  0 0.20068549E+04</rscale>
<asrwt>0</asrwt>
<pdfrwt beam="1">  1        1 0.24069516E+00 0.20068549E+04</pdfrwt>
<pdfrwt beam="2">  1       -2 0.99009731E-01 0.20068549E+04</pdfrwt>
<totfact> 0.40626639E+00</totfact>
</mgrwt>
</event>
<event>
12    5  0.5029243E-008  0.1299298E+04  0.7818608E-02  0.9030122E-01
         -2   -1    0    0    0  501 -0.00000000000E+00  0.00000000000E+00  0.28334347524E+03  0.28334347524E+03  0.00000000000E+00 0.  1.
          1   -1    0    0  501    0  0.00000000000E+00 -0.00000000000E+00 -0.14895127432E+04  0.14895127432E+04  0.00000000000E+00 0. -1.
        -24    2    1    2    0    0 -0.59861516747E+01 -0.33251815084E+03 -0.30865169163E+03  0.46057856185E+03  0.79136529110E+02 0.  0.
        254    2    1    2    0    0  0.59861516747E+01  0.33251815084E+03 -0.89751757637E+03  0.13122776566E+04  0.89773642767E+03 0.  0.
         23    2    4    4    0    0 -0.43512685478E+03  0.13551285027E+03 -0.41489096221E+03  0.62295342485E+03  0.90759829575E+02 0.  0.
         23    2    4    4    0    0  0.44111300645E+03  0.19700530057E+03 -0.48262661416E+03  0.68932423179E+03  0.94062080166E+02 0.  0.
          1    1    3    3  502    0 -0.16524307894E+01 -0.29365229791E+03 -0.30140139880E+03  0.42080542510E+03  0.00000000000E+00 0. -1.
         -2    1    3    3    0  502 -0.43337208854E+01 -0.38865852928E+02 -0.72502928277E+01  0.39773136746E+02  0.00000000000E+00 0.  1.
         13    1    5    5    0    0 -0.40946430799E+03  0.14402614528E+03 -0.40639992231E+03  0.59461369552E+03  0.00000000000E+00 0.  1.
        -13    1    5    5    0    0 -0.25662546787E+02 -0.85132950161E+01 -0.84910398972E+01  0.28339729324E+02  0.00000000000E+00 0. -1.
          1    1    6    6  503    0  0.80760619613E+02  0.82787182061E+01 -0.49296427030E+02  0.94978695366E+02  0.00000000000E+00 0. -1.
         -1    1    6    6    0  503  0.36035238684E+03  0.18872658236E+03 -0.43333018713E+03  0.59434553642E+03  0.00000000000E+00 0.  1.
<mgrwt>
<rscale>  0 0.12992978E+04</rscale>
<asrwt>0</asrwt>
<pdfrwt beam="1">  1        1 0.22915581E+00 0.12992978E+04</pdfrwt>
<pdfrwt beam="2">  1       -2 0.43591303E-01 0.12992978E+04</pdfrwt>
<totfact> 0.28618702E+01</totfact>
</mgrwt>
</event>
<event>
12    5  0.5029243E-008  0.1774003E+04  0.7818608E-02  0.8720248E-01
         -2   -1    0    0    0  501 -0.00000000000E+00  0.00000000000E+00  0.81926011734E+03  0.81926011734E+03  0.00000000000E+00 0.  1.
          3   -1    0    0  501    0  0.00000000000E+00 -0.00000000000E+00 -0.96034371364E+03  0.96034371364E+03  0.00000000000E+00 0. -1.
        -24    2    1    2    0    0 -0.60297824180E+03 -0.10527578820E+03  0.19303777467E+03  0.64706042069E+03  0.82206167153E+02 0.  0.
        254    2    1    2    0    0  0.60297824180E+03  0.10527578820E+03 -0.33412137097E+03  0.11325434103E+04  0.89238541784E+03 0.  0.
         23    2    4    4    0    0 -0.17393491596E+03  0.19047740380E+03 -0.18946058748E+03  0.33256958799E+03  0.90400333503E+02 0.  0.
         23    2    4    4    0    0  0.77691315776E+03 -0.85201615597E+02 -0.14466078349E+03  0.79997382229E+03  0.90432317601E+02 0.  0.
          3    1    3    3  502    0 -0.65672964121E+02 -0.36914953586E+02  0.14203184370E+02  0.76664088469E+02  0.00000000000E+00 0. -1.
         -2    1    3    3    0  502 -0.53730527768E+03 -0.68360834619E+02  0.17883459030E+03  0.57039633223E+03  0.00000000000E+00 0.  1.
         13    1    5    5    0    0 -0.13513740310E+02 -0.98159494245E+01 -0.11032193860E+02  0.20017076251E+02  0.00000000000E+00 0.  1.
        -13    1    5    5    0    0 -0.16042117565E+03  0.20029335323E+03 -0.17842839362E+03  0.31255251174E+03  0.00000000000E+00 0. -1.
          3    1    6    6  503    0  0.69256354900E+03 -0.76393636012E+02 -0.15710782723E+03  0.71425704504E+03  0.00000000000E+00 0. -1.
         -3    1    6    6    0  503  0.84349608764E+02 -0.88079795854E+01  0.12447043741E+02  0.85716777243E+02  0.00000000000E+00 0.  1.
<mgrwt>
<rscale>  0 0.17740026E+04</rscale>
<asrwt>0</asrwt>
<pdfrwt beam="1">  1        3 0.14774519E+00 0.17740026E+04</pdfrwt>
<pdfrwt beam="2">  1       -2 0.12604002E+00 0.17740026E+04</pdfrwt>
<totfact> 0.61838166E-01</totfact>
</mgrwt>
</event>
<event>
12    5  0.5029243E-008  0.1181657E+04  0.7818608E-02  0.9129065E-01
          1   -1    0    0  501    0  0.00000000000E+00  0.00000000000E+00  0.19855028311E+04  0.19855028311E+04  0.00000000000E+00 0. -1.
         -2   -1    0    0    0  501 -0.00000000000E+00 -0.00000000000E+00 -0.17581364401E+03  0.17581364401E+03  0.00000000000E+00 0.  1.
        -24    2    1    2    0    0  0.56798537080E+02 -0.22385276400E+03  0.29578995961E+03  0.38360533443E+03  0.79531243103E+02 0.  0.
        254    2    1    2    0    0 -0.56798537080E+02  0.22385276400E+03  0.15138992275E+04  0.17777111407E+04  0.90279006142E+03 0.  0.
         23    2    4    4    0    0 -0.31591368476E+03  0.34713620058E+03  0.13549292716E+04  0.14368693814E+04  0.91952651985E+02 0.  0.
         23    2    4    4    0    0  0.25911514768E+03 -0.12328343657E+03  0.15896995593E+03  0.34084175933E+03  0.92532116190E+02 0.  0.
          1    1    3    3  502    0  0.16216228488E+02 -0.41475235388E+02  0.11624030235E+03  0.12447878979E+03  0.00000000000E+00 0. -1.
         -2    1    3    3    0  502  0.40582308591E+02 -0.18237752862E+03  0.17954965726E+03  0.25912654464E+03  0.00000000000E+00 0.  1.
         13    1    5    5    0    0 -0.83141050430E+02  0.14896776229E+03  0.54966978466E+03  0.57553514284E+03  0.00000000000E+00 0.  1.
        -13    1    5    5    0    0 -0.23277263433E+03  0.19816843829E+03  0.80525948692E+03  0.86133423855E+03  0.00000000000E+00 0. -1.
          3    1    6    6  503    0  0.50411601010E+02  0.58475859414E+01  0.53425041307E+02  0.73686897183E+02  0.00000000000E+00 0. -1.
         -3    1    6    6    0  503  0.20870354667E+03 -0.12913102251E+03  0.10554491462E+03  0.26715486215E+03  0.00000000000E+00 0.  1.
<mgrwt>
<rscale>  0 0.11816573E+04</rscale>
<asrwt>0</asrwt>
<pdfrwt beam="1">  1        1 0.30546196E+00 0.11816573E+04</pdfrwt>
<pdfrwt beam="2">  1       -2 0.27048254E-01 0.11816573E+04</pdfrwt>
<totfact> 0.33011454E+01</totfact>
</mgrwt>
</event>
<event>
12    5  0.5029243E-008  0.1815146E+04  0.7818608E-02  0.8698286E-01
         -4   -1    0    0    0  501 -0.00000000000E+00  0.00000000000E+00  0.11783033590E+04  0.11783033590E+04  0.00000000000E+00 0.  1.
          1   -1    0    0  501    0  0.00000000000E+00 -0.00000000000E+00 -0.69904645787E+03  0.69904645787E+03  0.00000000000E+00 0. -1.
        -24    2    1    2    0    0  0.10874257052E+03 -0.53407580510E+03  0.60965184834E+03  0.82173587342E+03  0.80700416583E+02 0.  0.
        254    2    1    2    0    0 -0.10874257052E+03  0.53407580510E+03 -0.13039494726E+03  0.10556139434E+04  0.89457031193E+03 0.  0.
         23    2    4    4    0    0 -0.10164048484E+03  0.72881213962E+03 -0.28168091235E+03  0.79289528743E+03  0.88548729179E+02 0.  0.
         23    2    4    4    0    0 -0.71020856841E+01 -0.19473633452E+03  0.15128596509E+03  0.26271865597E+03  0.90338083654E+02 0.  0.
          1    1    3    3  502    0  0.50459235077E+00 -0.70581003728E+02  0.47145002517E+02  0.84879820706E+02  0.00000000000E+00 0. -1.
         -2    1    3    3    0  502  0.10823797817E+03 -0.46349480138E+03  0.56250684582E+03  0.73685605271E+03  0.00000000000E+00 0.  1.
         13    1    5    5    0    0 -0.63635734379E+02  0.21628159105E+03 -0.60807332716E+02  0.23350538544E+03  0.00000000000E+00 0. -1.
        -13    1    5    5    0    0 -0.38004750457E+02  0.51253054857E+03 -0.22087357963E+03  0.55938990199E+03  0.00000000000E+00 0.  1.
          1    1    6    6  503    0  0.37239014884E+02 -0.10757117874E+03  0.10358770439E+03  0.15391138757E+03  0.00000000000E+00 0. -1.
         -1    1    6    6    0  503 -0.44341100568E+02 -0.87165155778E+02  0.47698260705E+02  0.10880726840E+03  0.00000000000E+00 0.  1.
<mgrwt>
<rscale>  0 0.18151460E+04</rscale>
<asrwt>0</asrwt>
<pdfrwt beam="1">  1        1 0.10754561E+00 0.18151460E+04</pdfrwt>
<pdfrwt beam="2">  1       -4 0.18127744E+00 0.18151460E+04</pdfrwt>
<totfact> 0.21795678E+00</totfact>
</mgrwt>
</event>
<event>
12    5  0.5029243E-008  0.1612120E+04  0.7818608E-02  0.8813137E-01
         -2   -1    0    0    0  501 -0.00000000000E+00  0.00000000000E+00  0.50116585437E+03  0.50116585437E+03  0.00000000000E+00 0.  1.
          1   -1    0    0  501    0  0.00000000000E+00 -0.00000000000E+00 -0.12964419497E+04  0.12964419497E+04  0.00000000000E+00 0. -1.
        -24    2    1    2    0    0  0.41964696999E+03 -0.35381929744E+03 -0.35251878183E+03  0.65766724661E+03  0.83456821522E+02 0.  0.
        254    2    1    2    0    0 -0.41964696999E+03  0.35381929744E+03 -0.44275731347E+03  0.11399405574E+04  0.89562199683E+03 0.  0.
         23    2    4    4    0    0 -0.35605249932E+03 -0.23465541504E+03 -0.98661969460E+02  0.44799207800E+03  0.95530998406E+02 0.  0.
         23    2    4    4    0    0 -0.63594470663E+02  0.58847471247E+03 -0.34409534401E+03  0.69194847944E+03  0.10022149723E+03 0.  0.
          3    1    3    3  502    0  0.20354069349E+03 -0.17390704240E+03 -0.22140004876E+03  0.34740531788E+03  0.00000000000E+00 0. -1.
         -4    1    3    3    0  502  0.21610627650E+03 -0.17991225504E+03 -0.13111873308E+03  0.31026192873E+03  0.00000000000E+00 0.  1.
         13    1    5    5    0    0 -0.14545202796E+02  0.91598572219E+01 -0.65177089900E+01  0.18383319591E+02  0.00000000000E+00 0.  1.
        -13    1    5    5    0    0 -0.34150729653E+03 -0.24381527226E+03 -0.92144260469E+02  0.42960875841E+03  0.00000000000E+00 0. -1.
          3    1    6    6  503    0 -0.69470080007E+02  0.58973889118E+03 -0.34323324844E+03  0.68587689466E+03  0.00000000000E+00 0. -1.
         -3    1    6    6    0  503  0.58756093442E+01 -0.12641787087E+01 -0.86209556635E+00  0.60715847799E+01  0.00000000000E+00 0.  1.
<mgrwt>
<rscale>  0 0.16121196E+04</rscale>
<asrwt>0</asrwt>
<pdfrwt beam="1">  1        1 0.19945260E+00 0.16121196E+04</pdfrwt>
<pdfrwt beam="2">  1       -2 0.77102440E-01 0.16121196E+04</pdfrwt>
<totfact> 0.11488097E+01</totfact>
</mgrwt>
</event>
<event>
12    5  0.5029243E-008  0.1570361E+04  0.7818608E-02  0.8838966E-01
          1   -1    0    0  501    0  0.00000000000E+00  0.00000000000E+00  0.19096322062E+04  0.19096322062E+04  0.00000000000E+00 0. -1.
         -2   -1    0    0    0  501 -0.00000000000E+00 -0.00000000000E+00 -0.32284156804E+03  0.32284156804E+03  0.00000000000E+00 0.  1.
        -24    2    1    2    0    0 -0.26503328943E+02 -0.26449401046E+03 -0.10244193390E+03  0.29574961861E+03  0.79460550400E+02 0.  0.
        254    2    1    2    0    0  0.26503328943E+02  0.26449401046E+03  0.16892325720E+04  0.19367241556E+04  0.90924928621E+03 0.  0.
         23    2    4    4    0    0 -0.92880568066E+02  0.57508697392E+03  0.90855603179E+03  0.10831333384E+04  0.91388939816E+02 0.  0.
         23    2    4    4    0    0  0.11938389701E+03 -0.31059296346E+03  0.78067654023E+03  0.85359081721E+03  0.91874473865E+02 0.  0.
          3    1    3    3  502    0 -0.11791930572E+02 -0.17240659349E+03 -0.25154820298E+02  0.17463060468E+03  0.00000000000E+00 0. -1.
         -4    1    3    3    0  502 -0.14711398371E+02 -0.92087416970E+02 -0.77287113602E+02  0.12111901393E+03  0.00000000000E+00 0.  1.
         13    1    5    5    0    0 -0.10781494648E+03  0.48536922477E+03  0.79454443301E+03  0.93728768426E+03  0.00000000000E+00 0.  1.
        -13    1    5    5    0    0  0.14934378410E+02  0.89717749142E+02  0.11401159879E+03  0.14584565413E+03  0.00000000000E+00 0. -1.
          1    1    6    6  503    0  0.10008194752E+02 -0.15238555821E+03  0.33309480892E+03  0.36643372394E+03  0.00000000000E+00 0. -1.
         -1    1    6    6    0  503  0.10937570226E+03 -0.15820740524E+03  0.44758173131E+03  0.48715709326E+03  0.00000000000E+00 0.  1.
<mgrwt>
<rscale>  0 0.15703613E+04</rscale>
<asrwt>0</asrwt>
<pdfrwt beam="1">  1        1 0.29378956E+00 0.15703613E+04</pdfrwt>
<pdfrwt beam="2">  1       -2 0.49667935E-01 0.15703613E+04</pdfrwt>
<totfact> 0.11120247E+01</totfact>
</mgrwt>
</event>
<event>
12    5  0.5029243E-008  0.1900440E+04  0.7818608E-02  0.8654637E-01
         -2   -1    0    0    0  501 -0.00000000000E+00  0.00000000000E+00  0.99016535048E+03  0.99016535048E+03  0.00000000000E+00 0.  1.
          1   -1    0    0  501    0  0.00000000000E+00 -0.00000000000E+00 -0.91188656871E+03  0.91188656871E+03  0.00000000000E+00 0. -1.
        -24    2    1    2    0    0 -0.71415543755E+03 -0.94726060227E+01 -0.11617105243E+03  0.72803804013E+03  0.80224405350E+02 0.  0.
        254    2    1    2    0    0  0.71415543755E+03  0.94726060227E+01  0.19444983420E+03  0.11740138791E+04  0.91125744493E+03 0.  0.
         23    2    4    4    0    0  0.17454337591E+03  0.24557095915E+03  0.43022636504E+03  0.53305298414E+03  0.90996003626E+02 0.  0.
         23    2    4    4    0    0  0.53961206163E+03 -0.23609835313E+03 -0.23577653084E+03  0.64096089491E+03  0.91195871096E+02 0.  0.
          3    1    3    3  502    0 -0.18557388619E+03  0.50972988108E+01 -0.65387622836E+02  0.19682273982E+03  0.00000000000E+00 0. -1.
         -4    1    3    3    0  502 -0.52858155136E+03 -0.14569904834E+02 -0.50783429590E+02  0.53121530031E+03  0.00000000000E+00 0.  1.
         13    1    5    5    0    0  0.28826948013E+02  0.45669118469E+01  0.69704492740E+02  0.75568286495E+02  0.00000000000E+00 0. -1.
        -13    1    5    5    0    0  0.14571642790E+03  0.24100404730E+03  0.36052187230E+03  0.45748469764E+03  0.00000000000E+00 0.  1.
          1    1    6    6  503    0  0.80617667442E+02 -0.21155059960E+02 -0.66449076990E+02  0.10659373668E+03  0.00000000000E+00 0. -1.
         -1    1    6    6    0  503  0.45899439419E+03 -0.21494329317E+03 -0.16932745385E+03  0.53436715824E+03  0.00000000000E+00 0.  1.
<mgrwt>
<rscale>  0 0.19004405E+04</rscale>
<asrwt>0</asrwt>
<pdfrwt beam="1">  1        1 0.14029024E+00 0.19004405E+04</pdfrwt>
<pdfrwt beam="2">  1       -2 0.15233313E+00 0.19004405E+04</pdfrwt>
<totfact> 0.41945083E+00</totfact>
</mgrwt>
</event>
<event>
12    5  0.5029243E-008  0.1499667E+04  0.7818608E-02  0.8884674E-01
          1   -1    0    0  501    0  0.00000000000E+00  0.00000000000E+00  0.56489499170E+03  0.56489499170E+03  0.00000000000E+00 0. -1.
         -2   -1    0    0    0  501 -0.00000000000E+00 -0.00000000000E+00 -0.99531812918E+03  0.99531812918E+03  0.00000000000E+00 0.  1.
        -24    2    1    2    0    0 -0.21062498294E+03 -0.63542198720E+02  0.29929858872E+03  0.38024921834E+03  0.81297776019E+02 0.  0.
        254    2    1    2    0    0  0.21062498294E+03  0.63542198720E+02 -0.72972172620E+03  0.11799639025E+04  0.90078883161E+03 0.  0.
         23    2    4    4    0    0  0.45302594907E+03 -0.11784095341E+03 -0.11811323425E+03  0.49140385789E+03  0.91695226809E+02 0.  0.
         23    2    4    4    0    0 -0.24240096613E+03  0.18138315213E+03 -0.61160849194E+03  0.68856004464E+03  0.91607376359E+02 0.  0.
          1    1    3    3  502    0 -0.16969849385E+03 -0.76939739147E+02  0.27042930277E+03  0.32840418705E+03  0.00000000000E+00 0. -1.
         -2    1    3    3    0  502 -0.40926489092E+02  0.13397540427E+02  0.28869285950E+02  0.51845031297E+02  0.00000000000E+00 0.  1.
         13    1    5    5    0    0  0.67318243178E+02  0.12297023468E+02 -0.35708025407E+01  0.68525274764E+02  0.00000000000E+00 0. -1.
        -13    1    5    5    0    0  0.38570770589E+03 -0.13013797687E+03 -0.11454243171E+03  0.42287858313E+03  0.00000000000E+00 0.  1.
          1    1    6    6  503    0 -0.22014346164E+03  0.12215945707E+03 -0.46253240980E+03  0.52661400169E+03  0.00000000000E+00 0.  1.
         -1    1    6    6    0  503 -0.22257504487E+02  0.59223695052E+02 -0.14907608214E+03  0.16194604295E+03  0.00000000000E+00 0. -1.
<mgrwt>
<rscale>  0 0.14996669E+04</rscale>
<asrwt>0</asrwt>
<pdfrwt beam="1">  1        1 0.86906922E-01 0.14996669E+04</pdfrwt>
<pdfrwt beam="2">  1       -2 0.15312587E+00 0.14996669E+04</pdfrwt>
<totfact> 0.89579804E+00</totfact>
</mgrwt>
</event>
<event>
12    5  0.5029243E-008  0.1331970E+04  0.7818608E-02  0.9004590E-01
         -2   -1    0    0    0  501 -0.00000000000E+00  0.00000000000E+00  0.30319286126E+03  0.30319286126E+03  0.00000000000E+00 0.  1.
          1   -1    0    0  501    0  0.00000000000E+00 -0.00000000000E+00 -0.14628838498E+04  0.14628838498E+04  0.00000000000E+00 0. -1.
        -24    2    1    2    0    0  0.22816779291E+03  0.47906685708E+02  0.39105062132E+02  0.25005050471E+03  0.81488997801E+02 0.  0.
        254    2    1    2    0    0 -0.22816779291E+03 -0.47906685708E+02 -0.11987960507E+04  0.15160262064E+04  0.89825825629E+03 0.  0.
         23    2    4    4    0    0 -0.23519598928E+03 -0.44061427626E+03 -0.52239424933E+03  0.72779237771E+03  0.85603151193E+02 0.  0.
         23    2    4    4    0    0  0.70281963679E+01  0.39270759055E+03 -0.67640180139E+03  0.78823382869E+03  0.97593670601E+02 0.  0.
          1    1    3    3  502    0 -0.61939426099E+01 -0.30948246171E+01 -0.55638291086E+00  0.69463966493E+01  0.00000000000E+00 0. -1.
         -2    1    3    3    0  502  0.23436173552E+03  0.51001510325E+02  0.39661445043E+02  0.24310410806E+03  0.00000000000E+00 0.  1.
         13    1    5    5    0    0 -0.11074265206E+03 -0.12871889919E+03 -0.19877565366E+03  0.26142733308E+03  0.00000000000E+00 0. -1.
        -13    1    5    5    0    0 -0.12445333722E+03 -0.31189537707E+03 -0.32361859567E+03  0.46636504462E+03  0.00000000000E+00 0.  1.
          4    1    6    6  503    0 -0.21695873543E+02  0.35951150988E+03 -0.58813598324E+03  0.68965438551E+03  0.00000000000E+00 0.  1.
         -4    1    6    6    0  503  0.28724069911E+02  0.33196080671E+02 -0.88265818149E+02  0.98579443180E+02  0.00000000000E+00 0. -1.
<mgrwt>
<rscale>  0 0.13319699E+04</rscale>
<asrwt>0</asrwt>
<pdfrwt beam="1">  1        1 0.22505905E+00 0.13319699E+04</pdfrwt>
<pdfrwt beam="2">  1       -2 0.46645057E-01 0.13319699E+04</pdfrwt>
<totfact> 0.26012428E+01</totfact>
</mgrwt>
</event>
<event>
12    5  0.5029243E-008  0.1745747E+04  0.7818608E-02  0.8735695E-01
         -2   -1    0    0    0  501 -0.00000000000E+00  0.00000000000E+00  0.20457586347E+04  0.20457586347E+04  0.00000000000E+00 0.  1.
          1   -1    0    0  501    0  0.00000000000E+00 -0.00000000000E+00 -0.37243303288E+03  0.37243303288E+03  0.00000000000E+00 0. -1.
        -24    2    1    2    0    0 -0.49565988231E+02 -0.30494816773E+03  0.13742229699E+04  0.14108701222E+04  0.81336083921E+02 0.  0.
        254    2    1    2    0    0  0.49565988231E+02  0.30494816773E+03  0.29910263188E+03  0.10073215453E+04  0.91092488116E+03 0.  0.
         23    2    4    4    0    0  0.19014525487E+03  0.86754754535E+02  0.57462039512E+03  0.61827370888E+03  0.91608816291E+02 0.  0.
         23    2    4    4    0    0 -0.14057926664E+03  0.21819341319E+03 -0.27551776323E+03  0.38904783646E+03  0.89873719362E+02 0.  0.
          1    1    3    3  502    0 -0.41923951855E+01 -0.11081106029E+03  0.34065411905E+03  0.35824837206E+03  0.00000000000E+00 0. -1.
         -2    1    3    3    0  502 -0.45373593045E+02 -0.19413710744E+03  0.10335688509E+04  0.10526217502E+04  0.00000000000E+00 0.  1.
         13    1    5    5    0    0  0.12370641403E+03  0.61112531313E+02  0.24626608489E+03  0.28228532183E+03  0.00000000000E+00 0.  1.
        -13    1    5    5    0    0  0.66438840835E+02  0.25642223222E+02  0.32835431023E+03  0.33598838704E+03  0.00000000000E+00 0. -1.
          1    1    6    6  503    0 -0.51836465372E+02  0.15422260920E+03 -0.19033966331E+03  0.25040131741E+03  0.00000000000E+00 0. -1.
         -1    1    6    6    0  503 -0.88742801264E+02  0.63970803989E+02 -0.85178099921E+02  0.13864651905E+03  0.00000000000E+00 0.  1.
<mgrwt>
<rscale>  0 0.17457469E+04</rscale>
<asrwt>0</asrwt>
<pdfrwt beam="1">  1        1 0.57297390E-01 0.17457469E+04</pdfrwt>
<pdfrwt beam="2">  1       -2 0.31473209E+00 0.17457469E+04</pdfrwt>
<totfact> 0.14148079E+00</totfact>
</mgrwt>
</event>
<event>
12    5  0.5029243E-008  0.1311477E+04  0.7818608E-02  0.9020513E-01
         -2   -1    0    0    0  501 -0.00000000000E+00  0.00000000000E+00  0.60627225369E+03  0.60627225369E+03  0.00000000000E+00 0.  1.
          1   -1    0    0  501    0  0.00000000000E+00 -0.00000000000E+00 -0.70924103244E+03  0.70924103244E+03  0.00000000000E+00 0. -1.
        -24    2    1    2    0    0 -0.44458328683E+02  0.33091972917E+03 -0.80721023092E+02  0.35248542759E+03  0.79029633354E+02 0.  0.
        254    2    1    2    0    0  0.44458328683E+02 -0.33091972917E+03 -0.22247755652E+02  0.96302785854E+03  0.90301898294E+03 0.  0.
         23    2    4    4    0    0  0.27581937005E+03  0.10496844695E+03 -0.26322385120E+03  0.40624936189E+03  0.93043261144E+02 0.  0.
         23    2    4    4    0    0 -0.23136104136E+03 -0.43588817612E+03  0.24097609555E+03  0.55677849666E+03  0.91686324880E+02 0.  0.
          1    1    3    3  502    0  0.27551533266E+01  0.11558074775E+03  0.55629944152E+01  0.11574734134E+03  0.00000000000E+00 0. -1.
         -2    1    3    3    0  502 -0.47213482009E+02  0.21533898143E+03 -0.86284017508E+02  0.23673808625E+03  0.00000000000E+00 0.  1.
         13    1    5    5    0    0  0.26927736686E+03  0.87001071810E+02 -0.26414304542E+03  0.38710597417E+03  0.00000000000E+00 0. -1.
        -13    1    5    5    0    0  0.65420031907E+01  0.17967375137E+02  0.91919422044E+00  0.19143387712E+02  0.00000000000E+00 0.  1.
          4    1    6    6  503    0 -0.62716268626E+01 -0.35122687119E+02  0.44138803528E+02  0.56755355967E+02  0.00000000000E+00 0.  1.
         -4    1    6    6    0  503 -0.22508941450E+03 -0.40076548900E+03  0.19683729202E+03  0.50002314069E+03  0.00000000000E+00 0. -1.
<mgrwt>
<rscale>  0 0.13114773E+04</rscale>
<asrwt>0</asrwt>
<pdfrwt beam="1">  1        1 0.10911400E+00 0.13114773E+04</pdfrwt>
<pdfrwt beam="2">  1       -2 0.93272655E-01 0.13114773E+04</pdfrwt>
<totfact> 0.22334912E+01</totfact>
</mgrwt>
</event>
<event>
12    5  0.5029243E-008  0.1507575E+04  0.7818608E-02  0.8879431E-01
          1   -1    0    0  501    0  0.00000000000E+00  0.00000000000E+00  0.61916019246E+03  0.61916019246E+03  0.00000000000E+00 0. -1.
         -2   -1    0    0    0  501 -0.00000000000E+00 -0.00000000000E+00 -0.91768706739E+03  0.91768706739E+03  0.00000000000E+00 0.  1.
        -24    2    1    2    0    0  0.45151927169E+02 -0.41875460752E+03  0.12126757856E+03  0.44457695813E+03  0.74489786140E+02 0.  0.
        254    2    1    2    0    0 -0.45151927169E+02  0.41875460752E+03 -0.41979445350E+03  0.10922703017E+04  0.91620571435E+03 0.  0.
         23    2    4    4    0    0 -0.28824287011E+03 -0.39446100291E+02 -0.47276292319E+03  0.56281143639E+03  0.92800777925E+02 0.  0.
         23    2    4    4    0    0  0.24309094295E+03  0.45820070781E+03  0.52968469697E+02  0.52945886534E+03  0.92086568639E+02 0.  0.
          1    1    3    3  502    0  0.36949132513E+02 -0.37934857665E+03  0.13124559544E+03  0.40310791027E+03  0.00000000000E+00 0. -1.
         -2    1    3    3    0  502  0.82027946558E+01 -0.39406030874E+02 -0.99780168800E+01  0.41469047858E+02  0.00000000000E+00 0.  1.
         13    1    5    5    0    0 -0.70611440723E+01 -0.12357337102E+02 -0.28309272581E+01  0.14511295084E+02  0.00000000000E+00 0. -1.
        -13    1    5    5    0    0 -0.28118172604E+03 -0.27088763189E+02 -0.46993199594E+03  0.54830014130E+03  0.00000000000E+00 0.  1.
          4    1    6    6  503    0  0.11280582407E+03  0.30040711966E+03  0.14292068476E+02  0.32120687214E+03  0.00000000000E+00 0. -1.
         -4    1    6    6    0  503  0.13028511887E+03  0.15779358815E+03  0.38676401221E+02  0.20825199320E+03  0.00000000000E+00 0.  1.
<mgrwt>
<rscale>  0 0.15075746E+04</rscale>
<asrwt>0</asrwt>
<pdfrwt beam="1">  1        1 0.95255416E-01 0.15075746E+04</pdfrwt>
<pdfrwt beam="2">  1       -2 0.14118262E+00 0.15075746E+04</pdfrwt>
<totfact> 0.97216744E+00</totfact>
</mgrwt>
</event>
<event>
12    5  0.5029243E-008  0.1921965E+04  0.7818608E-02  0.8644000E-01
          1   -1    0    0  501    0  0.00000000000E+00  0.00000000000E+00  0.14089434964E+04  0.14089434964E+04  0.00000000000E+00 0. -1.
         -2   -1    0    0    0  501 -0.00000000000E+00 -0.00000000000E+00 -0.65544643976E+03  0.65544643976E+03  0.00000000000E+00 0.  1.
        -24    2    1    2    0    0  0.20334748994E+03 -0.39007302550E+03 -0.35311078519E+03  0.56976688276E+03  0.80249032299E+02 0.  0.
        254    2    1    2    0    0 -0.20334748994E+03  0.39007302550E+03  0.11066078419E+04  0.14946230534E+04  0.90322200443E+03 0.  0.
         23    2    4    4    0    0  0.14795393001E+02  0.71570660337E+02  0.10919710161E+04  0.10975735839E+04  0.83221445443E+02 0.  0.
         23    2    4    4    0    0 -0.21814288294E+03  0.31850236516E+03  0.14636825728E+02  0.39704946950E+03  0.91673172600E+02 0.  0.
          3    1    3    3  502    0  0.25814173295E+02 -0.60354573589E+02 -0.92934883179E+02  0.11378022063E+03  0.00000000000E+00 0. -1.
         -4    1    3    3    0  502  0.17753331664E+03 -0.32971845191E+03 -0.26017590201E+03  0.45598666212E+03  0.00000000000E+00 0.  1.
         13    1    5    5    0    0  0.42599563692E+02  0.25057714488E+02  0.33027449317E+03  0.33395187186E+03  0.00000000000E+00 0. -1.
        -13    1    5    5    0    0 -0.27804170691E+02  0.46512945849E+02  0.76169652296E+03  0.76362171206E+03  0.00000000000E+00 0.  1.
          4    1    6    6  503    0 -0.17104996488E+03  0.26891107433E+03  0.45653441046E+02  0.32195573153E+03  0.00000000000E+00 0. -1.
         -4    1    6    6    0  503 -0.47092918056E+02  0.49591290830E+02 -0.31016615318E+02  0.75093737974E+02  0.00000000000E+00 0.  1.
<mgrwt>
<rscale>  0 0.19219646E+04</rscale>
<asrwt>0</asrwt>
<pdfrwt beam="1">  1        1 0.21676054E+00 0.19219646E+04</pdfrwt>
<pdfrwt beam="2">  1       -2 0.10083791E+00 0.19219646E+04</pdfrwt>
<totfact> 0.50253239E+00</totfact>
</mgrwt>
</event>
<event>
12    5  0.5029243E-008  0.1505131E+04  0.7818608E-02  0.8881048E-01
          1   -1    0    0  501    0  0.00000000000E+00  0.00000000000E+00  0.53152762394E+03  0.53152762394E+03  0.00000000000E+00 0. -1.
         -2   -1    0    0    0  501 -0.00000000000E+00 -0.00000000000E+00 -0.10655229467E+04  0.10655229467E+04  0.00000000000E+00 0.  1.
        -24    2    1    2    0    0 -0.30945336808E+03  0.13166629368E+02 -0.57027988916E+03  0.65384635282E+03  0.79756842826E+02 0.  0.
        254    2    1    2    0    0  0.30945336808E+03 -0.13166629368E+02  0.36284566429E+02  0.94320421778E+03  0.89015890690E+03 0.  0.
         23    2    4    4    0    0  0.42950739197E+03 -0.33356609846E+03 -0.10638494694E+03  0.56149037739E+03  0.90613162215E+02 0.  0.
         23    2    4    4    0    0 -0.12005402390E+03  0.32039946909E+03  0.14266951337E+03  0.38171384039E+03  0.91005919880E+02 0.  0.
          3    1    3    3  502    0 -0.30191608674E+02  0.19744233757E+02 -0.10644382260E+03  0.11239063738E+03  0.00000000000E+00 0. -1.
         -4    1    3    3    0  502 -0.27926175940E+03 -0.65776043890E+01 -0.46383606655E+03  0.54145571544E+03  0.00000000000E+00 0.  1.
         13    1    5    5    0    0  0.14891764883E+03 -0.15550489211E+03 -0.10287570749E+02  0.21555526371E+03  0.00000000000E+00 0. -1.
        -13    1    5    5    0    0  0.28058974315E+03 -0.17806120635E+03 -0.96097376190E+02  0.34593511368E+03  0.00000000000E+00 0.  1.
          4    1    6    6  503    0 -0.96669320245E+02  0.14920158043E+03  0.99024647063E+02  0.20349926242E+03  0.00000000000E+00 0. -1.
         -4    1    6    6    0  503 -0.23384703651E+02  0.17119788865E+03  0.43644866305E+02  0.17821457797E+03  0.00000000000E+00 0.  1.
<mgrwt>
<rscale>  0 0.15051311E+04</rscale>
<asrwt>0</asrwt>
<pdfrwt beam="1">  1        1 0.81773481E-01 0.15051311E+04</pdfrwt>
<pdfrwt beam="2">  1       -2 0.16392661E+00 0.15051311E+04</pdfrwt>
<totfact> 0.81082260E+00</totfact>
</mgrwt>
</event>
<event>
12    5  0.5029243E-008  0.1177187E+04  0.7818608E-02  0.9133063E-01
         -2   -1    0    0    0  501 -0.00000000000E+00  0.00000000000E+00  0.90539649400E+03  0.90539649400E+03  0.00000000000E+00 0.  1.
          1   -1    0    0  501    0  0.00000000000E+00 -0.00000000000E+00 -0.38264131313E+03  0.38264131313E+03  0.00000000000E+00 0. -1.
        -24    2    1    2    0    0  0.15689555194E+03  0.15061052493E+03  0.22018613318E+03  0.31916699443E+03  0.78012131430E+02 0.  0.
        254    2    1    2    0    0 -0.15689555194E+03 -0.15061052493E+03  0.30256904769E+03  0.96887081271E+03  0.89435053456E+03 0.  0.
         23    2    4    4    0    0  0.74829785463E+02 -0.41410758883E+03  0.40620471375E+03  0.59252852715E+03  0.94885162652E+02 0.  0.
         23    2    4    4    0    0 -0.23172533740E+03  0.26349706390E+03 -0.10363566606E+03  0.37634228556E+03  0.88123946459E+02 0.  0.
          1    1    3    3  502    0  0.10603606135E+03  0.55934666712E+02  0.87521551275E+02  0.14843299897E+03  0.00000000000E+00 0. -1.
         -2    1    3    3    0  502  0.50859490591E+02  0.94675858220E+02  0.13266458190E+03  0.17073399546E+03  0.00000000000E+00 0.  1.
         13    1    5    5    0    0  0.93396921657E+02 -0.35541978380E+03  0.32464512460E+03  0.49034749374E+03  0.00000000000E+00 0. -1.
        -13    1    5    5    0    0 -0.18567136194E+02 -0.58687805032E+02  0.81559589150E+02  0.10218103341E+03  0.00000000000E+00 0.  1.
          2    1    6    6  503    0 -0.53315384791E+02  0.82335240794E+02 -0.68551501147E+02  0.11967009000E+03  0.00000000000E+00 0. -1.
         -2    1    6    6    0  503 -0.17840995261E+03  0.18116182311E+03 -0.35084164912E+02  0.25667219555E+03  0.00000000000E+00 0.  1.
<mgrwt>
<rscale>  0 0.11771867E+04</rscale>
<asrwt>0</asrwt>
<pdfrwt beam="1">  1        1 0.58867895E-01 0.11771867E+04</pdfrwt>
<pdfrwt beam="2">  1       -2 0.13929177E+00 0.11771867E+04</pdfrwt>
<totfact> 0.20040177E+01</totfact>
</mgrwt>
</event>
<event>
12    5  0.5029243E-008  0.1344818E+04  0.7818608E-02  0.8994760E-01
         -2   -1    0    0    0  501 -0.00000000000E+00  0.00000000000E+00  0.38788442396E+03  0.38788442396E+03  0.00000000000E+00 0.  1.
          1   -1    0    0  501    0  0.00000000000E+00 -0.00000000000E+00 -0.11656404572E+04  0.11656404572E+04  0.00000000000E+00 0. -1.
        -24    2    1    2    0    0  0.11407093957E+03 -0.79166726552E+02  0.17160712734E+03  0.23506461807E+03  0.80788728588E+02 0.  0.
        254    2    1    2    0    0 -0.11407093957E+03  0.79166726552E+02 -0.94936316058E+03  0.13184602631E+04  0.90430498441E+03 0.  0.
         23    2    4    4    0    0  0.14451993327E+03 -0.12835269346E+03 -0.94972616331E+03  0.97396763753E+03  0.96295112335E+02 0.  0.
         23    2    4    4    0    0 -0.25859087284E+03  0.20751942001E+03  0.36300272763E+00  0.34449262556E+03  0.93495925560E+02 0.  0.
          3    1    3    3  502    0  0.97896169027E+02 -0.44821844286E+02  0.74860859562E+02  0.13113659264E+03  0.00000000000E+00 0. -1.
         -4    1    3    3    0  502  0.16174770539E+02 -0.34344882266E+02  0.96746267778E+02  0.10392802542E+03  0.00000000000E+00 0.  1.
         13    1    5    5    0    0  0.73094096707E+01  0.12392474037E+02 -0.27601209694E+02  0.31125996515E+02  0.00000000000E+00 0. -1.
        -13    1    5    5    0    0  0.13721052360E+03 -0.14074516750E+03 -0.92212495361E+03  0.94284164102E+03  0.00000000000E+00 0.  1.
          4    1    6    6  503    0 -0.10485823671E+03  0.10303800655E+03 -0.43887162750E+02  0.15342152279E+03  0.00000000000E+00 0. -1.
         -4    1    6    6    0  503 -0.15373263613E+03  0.10448141346E+03  0.44250165478E+02  0.19107110277E+03  0.00000000000E+00 0.  1.
<mgrwt>
<rscale>  0 0.13448179E+04</rscale>
<asrwt>0</asrwt>
<pdfrwt beam="1">  1        1 0.17932930E+00 0.13448179E+04</pdfrwt>
<pdfrwt beam="2">  1       -2 0.59674527E-01 0.13448179E+04</pdfrwt>
<totfact> 0.25482008E+01</totfact>
</mgrwt>
</event>
<event>
12    5  0.5029243E-008  0.2284694E+04  0.7818608E-02  0.8483981E-01
          1   -1    0    0  501    0  0.00000000000E+00  0.00000000000E+00  0.16244130873E+04  0.16244130873E+04  0.00000000000E+00 0. -1.
         -2   -1    0    0    0  501 -0.00000000000E+00 -0.00000000000E+00 -0.80334052082E+03  0.80334052082E+03  0.00000000000E+00 0.  1.
        -24    2    1    2    0    0 -0.11885562340E+03  0.72549371860E+02 -0.66806172913E+03  0.68709063332E+03  0.79981209679E+02 0.  0.
        254    2    1    2    0    0  0.11885562340E+03 -0.72549371860E+02  0.14891342956E+04  0.17406629748E+04  0.89050354905E+03 0.  0.
         23    2    4    4    0    0 -0.27737071522E+03 -0.17764282604E+02  0.13396031050E+03  0.32474994517E+03  0.10132659425E+03 0.  0.
         23    2    4    4    0    0  0.39622633862E+03 -0.54785089256E+02  0.13551739851E+04  0.14159130296E+04  0.91194627690E+02 0.  0.
          1    1    3    3  502    0 -0.43210576922E+01 -0.11972598986E+02 -0.12633503010E+03  0.12697462146E+03  0.00000000000E+00 0. -1.
         -2    1    3    3    0  502 -0.11453456571E+03  0.84521970845E+02 -0.54172669903E+03  0.56011601186E+03  0.00000000000E+00 0.  1.
         13    1    5    5    0    0 -0.19497442179E+02 -0.28635056689E+02  0.15801067844E+01  0.34678717689E+02  0.00000000000E+00 0. -1.
        -13    1    5    5    0    0 -0.25787327304E+03  0.10870774085E+02  0.13238020372E+03  0.29007122748E+03  0.00000000000E+00 0.  1.
          4    1    6    6  503    0  0.55450065824E+02 -0.36747610082E+02  0.28437164352E+03  0.29204850330E+03  0.00000000000E+00 0. -1.
         -4    1    6    6    0  503  0.34077627279E+03 -0.18037479174E+02  0.10708023416E+04  0.11238645263E+04  0.00000000000E+00 0.  1.
<mgrwt>
<rscale>  0 0.22846942E+04</rscale>
<asrwt>0</asrwt>
<pdfrwt beam="1">  1        1 0.24990971E+00 0.22846942E+04</pdfrwt>
<pdfrwt beam="2">  1       -2 0.12359085E+00 0.22846942E+04</pdfrwt>
<totfact> 0.21050439E+00</totfact>
</mgrwt>
</event>
<event>
12    5  0.5029243E-008  0.1081957E+04  0.7818608E-02  0.9222958E-01
          3   -1    0    0  501    0  0.00000000000E+00  0.00000000000E+00  0.19883353977E+03  0.19883353977E+03  0.00000000000E+00 0. -1.
         -4   -1    0    0    0  501 -0.00000000000E+00 -0.00000000000E+00 -0.14718729556E+04  0.14718729556E+04  0.00000000000E+00 0.  1.
        -24    2    1    2    0    0  0.90687348675E+02  0.10175833934E+03 -0.28255644132E+03  0.32178759883E+03  0.71625144976E+02 0.  0.
        254    2    1    2    0    0 -0.90687348675E+02 -0.10175833934E+03 -0.99048297454E+03  0.13489188966E+04  0.90550908985E+03 0.  0.
         23    2    4    4    0    0 -0.41118691722E+02  0.24364241487E+03 -0.95068572614E+03  0.98659183338E+03  0.92237317201E+02 0.  0.
         23    2    4    4    0    0 -0.49568656952E+02 -0.34540075421E+03 -0.39797248398E+02  0.36232706317E+03  0.89097401559E+02 0.  0.
          3    1    3    3  502    0  0.53319731532E+01  0.14841761172E+02 -0.19644411771E+01  0.15892351668E+02  0.00000000000E+00 0. -1.
         -4    1    3    3    0  502  0.85355375522E+02  0.86916578172E+02 -0.28059200014E+03  0.30589524716E+03  0.00000000000E+00 0.  1.
         13    1    5    5    0    0 -0.31333256774E+02  0.27471854065E+02 -0.24349780068E+03  0.24703775963E+03  0.00000000000E+00 0. -1.
        -13    1    5    5    0    0 -0.97854349486E+01  0.21617056081E+03 -0.70718792546E+03  0.73955407376E+03  0.00000000000E+00 0.  1.
          4    1    6    6  503    0 -0.44382338591E+02 -0.59724239592E+02 -0.77723117156E+01  0.74814340892E+02  0.00000000000E+00 0. -1.
         -4    1    6    6    0  503 -0.51863183613E+01 -0.28567651462E+03 -0.32024936683E+02  0.28751272228E+03  0.00000000000E+00 0.  1.
<mgrwt>
<rscale>  0 0.10819569E+04</rscale>
<asrwt>0</asrwt>
<pdfrwt beam="1">  1        3 0.30589775E-01 0.10819569E+04</pdfrwt>
<pdfrwt beam="2">  1       -4 0.22644200E+00 0.10819569E+04</pdfrwt>
<totfact> 0.21162034E+00</totfact>
</mgrwt>
</event>
<event>
12    5  0.5029243E-008  0.1688242E+04  0.7818608E-02  0.8768099E-01
          1   -1    0    0  501    0  0.00000000000E+00  0.00000000000E+00  0.10049089200E+04  0.10049089200E+04  0.00000000000E+00 0. -1.
         -2   -1    0    0    0  501 -0.00000000000E+00 -0.00000000000E+00 -0.70905990029E+03  0.70905990029E+03  0.00000000000E+00 0.  1.
        -24    2    1    2    0    0 -0.33783103823E+03 -0.49453343443E+03  0.13367198119E+03  0.61884850173E+03  0.80075847729E+02 0.  0.
        254    2    1    2    0    0  0.33783103823E+03  0.49453343443E+03  0.16217703849E+03  0.10951203185E+04  0.90238239792E+03 0.  0.
         23    2    4    4    0    0 -0.13749462317E+03  0.49616520757E+03  0.28487235862E+03  0.59560386507E+03  0.92233501363E+02 0.  0.
         23    2    4    4    0    0  0.47532566140E+03 -0.16317731456E+01 -0.12269532013E+03  0.49951645346E+03  0.92333085203E+02 0.  0.
          1    1    3    3  502    0 -0.33422248757E+01 -0.60103667596E+00  0.87356050368E+01  0.93724333855E+01  0.00000000000E+00 0. -1.
         -2    1    3    3    0  502 -0.33448881335E+03 -0.49393239775E+03  0.12493637615E+03  0.60947606835E+03  0.00000000000E+00 0.  1.
         13    1    5    5    0    0 -0.62793539809E+02  0.37836264270E+03  0.20601256973E+03  0.43536478603E+03  0.00000000000E+00 0. -1.
        -13    1    5    5    0    0 -0.74701083365E+02  0.11780256488E+03  0.78859788887E+02  0.16023907904E+03  0.00000000000E+00 0.  1.
          2    1    6    6  503    0  0.24705875301E+03  0.37047843061E+02 -0.36512477954E+02  0.25247520901E+03  0.00000000000E+00 0.  1.
         -2    1    6    6    0  503  0.22826690839E+03 -0.38679616207E+02 -0.86182842179E+02  0.24704124445E+03  0.00000000000E+00 0. -1.
<mgrwt>
<rscale>  0 0.16882424E+04</rscale>
<asrwt>0</asrwt>
<pdfrwt beam="1">  1        1 0.15460137E+00 0.16882424E+04</pdfrwt>
<pdfrwt beam="2">  1       -2 0.10908614E+00 0.16882424E+04</pdfrwt>
<totfact> 0.83964165E+00</totfact>
</mgrwt>
</event>
<event>
12    5  0.5029243E-008  0.1736106E+04  0.7818608E-02  0.8741035E-01
          3   -1    0    0  501    0  0.00000000000E+00  0.00000000000E+00  0.14644968864E+04  0.14644968864E+04  0.00000000000E+00 0. -1.
         -4   -1    0    0    0  501 -0.00000000000E+00 -0.00000000000E+00 -0.51452216349E+03  0.51452216349E+03  0.00000000000E+00 0.  1.
        -24    2    1    2    0    0 -0.22632187703E+03 -0.53647578044E+03  0.13590688618E+03  0.60243710781E+03  0.73701642671E+02 0.  0.
        254    2    1    2    0    0  0.22632187703E+03  0.53647578044E+03  0.81406783673E+03  0.13765819421E+04  0.94511562543E+03 0.  0.
         23    2    4    4    0    0  0.48352470564E+03  0.46841944429E+03  0.21199567720E+03  0.71154135325E+03  0.90199853031E+02 0.  0.
         23    2    4    4    0    0 -0.25720282861E+03  0.68056336151E+02  0.60207215954E+03  0.66504058883E+03  0.94884875324E+02 0.  0.
          3    1    3    3  502    0 -0.28420482932E+02 -0.75369863906E+02  0.45704859972E+02  0.92613576005E+02  0.00000000000E+00 0. -1.
         -4    1    3    3    0  502 -0.19790139410E+03 -0.46110591653E+03  0.90202026203E+02  0.50982353180E+03  0.00000000000E+00 0.  1.
         13    1    5    5    0    0  0.30374773655E+03  0.35174400712E+03  0.13781202458E+03  0.48474600372E+03  0.00000000000E+00 0. -1.
        -13    1    5    5    0    0  0.17977696909E+03  0.11667543717E+03  0.74183652620E+02  0.22679534953E+03  0.00000000000E+00 0.  1.
          3    1    6    6  503    0 -0.20295952225E+03  0.18005032712E+02  0.38234567610E+03  0.43324931034E+03  0.00000000000E+00 0. -1.
         -3    1    6    6    0  503 -0.54243306354E+02  0.50051303439E+02  0.21972648344E+03  0.23179127849E+03  0.00000000000E+00 0.  1.
<mgrwt>
<rscale>  0 0.17361061E+04</rscale>
<asrwt>0</asrwt>
<pdfrwt beam="1">  1        3 0.22530721E+00 0.17361061E+04</pdfrwt>
<pdfrwt beam="2">  1       -4 0.79157257E-01 0.17361061E+04</pdfrwt>
<totfact> 0.31873674E-01</totfact>
</mgrwt>
</event>
<event>
12    5  0.5029243E-008  0.1211119E+04  0.7818608E-02  0.9103179E-01
          1   -1    0    0  501    0  0.00000000000E+00  0.00000000000E+00  0.33611822349E+04  0.33611822349E+04  0.00000000000E+00 0. -1.
         -2   -1    0    0    0  501 -0.00000000000E+00 -0.00000000000E+00 -0.10909928722E+03  0.10909928722E+03  0.00000000000E+00 0.  1.
        -24    2    1    2    0    0 -0.70204826558E+02  0.24616303141E+03  0.55611564823E+03  0.61751896533E+03  0.80870900981E+02 0.  0.
        254    2    1    2    0    0  0.70204826558E+02 -0.24616303141E+03  0.26959672994E+04  0.28527625568E+04  0.89693342563E+03 0.  0.
         23    2    4    4    0    0 -0.61823641758E+02 -0.21297833774E+03  0.26750752410E+04  0.26859503482E+04  0.95497607205E+02 0.  0.
         23    2    4    4    0    0  0.13202846832E+03 -0.33184693670E+02  0.20892058427E+02  0.16681220856E+03  0.94112137794E+02 0.  0.
          1    1    3    3  502    0  0.48014544092E+01  0.46771880015E+01  0.99551342910E-01  0.67037275090E+01  0.00000000000E+00 0. -1.
         -2    1    3    3    0  502 -0.75006280967E+02  0.24148584340E+03  0.55601609689E+03  0.61081523782E+03  0.00000000000E+00 0.  1.
         13    1    5    5    0    0 -0.58993946185E+01 -0.15229281491E+03  0.20110390238E+04  0.20168058557E+04  0.00000000000E+00 0.  1.
        -13    1    5    5    0    0 -0.55924247139E+02 -0.60685522822E+02  0.66403621723E+03  0.66914449254E+03  0.00000000000E+00 0. -1.
          1    1    6    6  503    0  0.60362685892E+02 -0.20439950638E+02  0.57051432715E+02  0.85535439468E+02  0.00000000000E+00 0. -1.
         -1    1    6    6    0  503  0.71665782424E+02 -0.12744743031E+02 -0.36159374288E+02  0.81276769093E+02  0.00000000000E+00 0.  1.
<mgrwt>
<rscale>  0 0.12111195E+04</rscale>
<asrwt>0</asrwt>
<pdfrwt beam="1">  1        1 0.51710488E+00 0.12111195E+04</pdfrwt>
<pdfrwt beam="2">  1       -2 0.16784508E-01 0.12111195E+04</pdfrwt>
<totfact> 0.82245581E+00</totfact>
</mgrwt>
</event>
<event>
12    5  0.5029243E-008  0.1756281E+04  0.7818608E-02  0.8729901E-01
          1   -1    0    0  501    0  0.00000000000E+00  0.00000000000E+00  0.45732921121E+04  0.45732921121E+04  0.00000000000E+00 0. -1.
         -2   -1    0    0    0  501 -0.00000000000E+00 -0.00000000000E+00 -0.16861607941E+03  0.16861607941E+03  0.00000000000E+00 0.  1.
        -24    2    1    2    0    0 -0.48125356263E+03  0.34712001094E+03  0.93870586295E+03  0.11133270218E+04  0.78937106374E+02 0.  0.
        254    2    1    2    0    0  0.48125356263E+03 -0.34712001094E+03  0.34659701697E+04  0.36285811697E+04  0.89529592546E+03 0.  0.
         23    2    4    4    0    0  0.59455699298E+03  0.75240575395E+02  0.23366818320E+04  0.24139940314E+04  0.90144537069E+02 0.  0.
         23    2    4    4    0    0 -0.11330343035E+03 -0.42236058634E+03  0.11292883377E+04  0.12145871383E+04  0.93293271883E+02 0.  0.
          1    1    3    3  502    0 -0.13309721708E+03  0.11588101611E+03  0.22126027946E+03  0.28301835692E+03  0.00000000000E+00 0. -1.
         -4    1    3    3    0  502 -0.34815634555E+03  0.23123899484E+03  0.71744558349E+03  0.83030866486E+03  0.00000000000E+00 0.  1.
         13    1    5    5    0    0  0.44243240131E+03  0.38200503807E+02  0.15762427737E+04  0.16376040394E+04  0.00000000000E+00 0.  1.
        -13    1    5    5    0    0  0.15212459167E+03  0.37040071588E+02  0.76043905825E+03  0.77638999195E+03  0.00000000000E+00 0. -1.
          3    1    6    6  503    0  0.16097501138E+02 -0.68179066298E+02  0.17812878292E+03  0.19140892855E+03  0.00000000000E+00 0. -1.
         -3    1    6    6    0  503 -0.12940093149E+03 -0.35418152004E+03  0.95115955482E+03  0.10231782098E+04  0.00000000000E+00 0.  1.
<mgrwt>
<rscale>  0 0.17562808E+04</rscale>
<asrwt>0</asrwt>
<pdfrwt beam="1">  1        1 0.70358331E+00 0.17562808E+04</pdfrwt>
<pdfrwt beam="2">  1       -2 0.25940939E-01 0.17562808E+04</pdfrwt>
<totfact> 0.30803088E-01</totfact>
</mgrwt>
</event>
<event>
12    5  0.5029243E-008  0.2047130E+04  0.7818608E-02  0.8584897E-01
         -2   -1    0    0    0  501 -0.00000000000E+00  0.00000000000E+00  0.13400826615E+04  0.13400826615E+04  0.00000000000E+00 0.  1.
          3   -1    0    0  501    0  0.00000000000E+00 -0.00000000000E+00 -0.78180645243E+03  0.78180645243E+03  0.00000000000E+00 0. -1.
        -24    2    1    2    0    0  0.17109575193E+03  0.57890577214E+03  0.79765468270E+03  0.10038955359E+04  0.84543508293E+02 0.  0.
        254    2    1    2    0    0 -0.17109575193E+03 -0.57890577214E+03 -0.23937847361E+03  0.11179935781E+04  0.91005600795E+03 0.  0.
         23    2    4    4    0    0 -0.10142582466E+03 -0.77447730058E+03  0.22263822156E+01  0.78668005821E+03  0.93585630240E+02 0.  0.
         23    2    4    4    0    0 -0.69669927265E+02  0.19557152844E+03 -0.24160485583E+03  0.33131351985E+03  0.91069317405E+02 0.  0.
          3    1    3    3  502    0  0.73235806870E+01  0.13548454850E+02  0.50190393801E+02  0.52500200883E+02  0.00000000000E+00 0. -1.
         -4    1    3    3    0  502  0.16377217124E+03  0.56535731729E+03  0.74746428890E+03  0.95139533500E+03  0.00000000000E+00 0.  1.
         13    1    5    5    0    0 -0.89231265229E+02 -0.33766778642E+03 -0.12058014469E+02  0.34946694893E+03  0.00000000000E+00 0.  1.
        -13    1    5    5    0    0 -0.12194559433E+02 -0.43680951416E+03  0.14284396684E+02  0.43721310928E+03  0.00000000000E+00 0. -1.
          1    1    6    6  503    0 -0.51467112699E+02  0.19710039326E+03 -0.19819079640E+03  0.28421298438E+03  0.00000000000E+00 0. -1.
         -1    1    6    6    0  503 -0.18202814566E+02 -0.15288648128E+01 -0.43414059426E+02  0.47100535471E+02  0.00000000000E+00 0.  1.
<mgrwt>
<rscale>  0 0.20471300E+04</rscale>
<asrwt>0</asrwt>
<pdfrwt beam="1">  1        3 0.12027792E+00 0.20471300E+04</pdfrwt>
<pdfrwt beam="2">  1       -2 0.20616656E+00 0.20471300E+04</pdfrwt>
<totfact> 0.26279213E-01</totfact>
</mgrwt>
</event>
<event>
12    5  0.5029243E-008  0.2483867E+04  0.7818608E-02  0.8408756E-01
          1   -1    0    0  501    0  0.00000000000E+00  0.00000000000E+00  0.19966115718E+04  0.19966115718E+04  0.00000000000E+00 0. -1.
         -2   -1    0    0    0  501 -0.00000000000E+00 -0.00000000000E+00 -0.77250807831E+03  0.77250807831E+03  0.00000000000E+00 0.  1.
        -24    2    1    2    0    0  0.32293839952E+03  0.54364710098E+03  0.14993479383E+04  0.16292204830E+04  0.80459689375E+02 0.  0.
        254    2    1    2    0    0 -0.32293839952E+03 -0.54364710098E+03 -0.27524444488E+03  0.11398991671E+04  0.90761733482E+03 0.  0.
         23    2    4    4    0    0 -0.47296036115E+02 -0.27617323530E+03  0.31428105057E+03  0.43051346356E+03  0.89781360140E+02 0.  0.
         23    2    4    4    0    0 -0.27564236340E+03 -0.26747386568E+03 -0.58952549546E+03  0.70938570356E+03  0.90370267735E+02 0.  0.
          3    1    3    3  502    0  0.32111951816E+03  0.54524225359E+03  0.14985531137E+04  0.16266739976E+04  0.00000000000E+00 0. -1.
         -4    1    3    3    0  502  0.18188813596E+01 -0.15951526095E+01  0.79482463779E+00  0.25464853137E+01  0.00000000000E+00 0.  1.
         13    1    5    5    0    0 -0.14011881125E+02 -0.15066916593E+01  0.37034126743E+01  0.14571142640E+02  0.00000000000E+00 0.  1.
        -13    1    5    5    0    0 -0.33284154990E+02 -0.27466654364E+03  0.31057763790E+03  0.41594232092E+03  0.00000000000E+00 0. -1.
          2    1    6    6  503    0 -0.19076886454E+03 -0.12627185997E+03 -0.36801234759E+03  0.43332485537E+03  0.00000000000E+00 0. -1.
         -2    1    6    6    0  503 -0.84873498863E+02 -0.14120200571E+03 -0.22151314787E+03  0.27606084819E+03  0.00000000000E+00 0.  1.
<mgrwt>
<rscale>  0 0.24838668E+04</rscale>
<asrwt>0</asrwt>
<pdfrwt beam="1">  1        1 0.30717101E+00 0.24838668E+04</pdfrwt>
<pdfrwt beam="2">  1       -2 0.11884740E+00 0.24838668E+04</pdfrwt>
<totfact> 0.12737568E+00</totfact>
</mgrwt>
</event>
<event>
12    5  0.5029243E-008  0.1572893E+04  0.7818608E-02  0.8837376E-01
         -2   -1    0    0    0  501 -0.00000000000E+00  0.00000000000E+00  0.10216108923E+04  0.10216108923E+04  0.00000000000E+00 0.  1.
          1   -1    0    0  501    0  0.00000000000E+00 -0.00000000000E+00 -0.60541441190E+03  0.60541441190E+03  0.00000000000E+00 0. -1.
        -24    2    1    2    0    0  0.31349332912E+03 -0.52894247777E+02  0.56780418496E+03  0.65554401329E+03  0.79123271256E+02 0.  0.
        254    2    1    2    0    0 -0.31349332912E+03  0.52894247777E+02 -0.15160770459E+03  0.97148129087E+03  0.90538120897E+03 0.  0.
         23    2    4    4    0    0  0.24712691506E+03 -0.17548700946E+03  0.63980860826E+02  0.32290811298E+03  0.91152050106E+02 0.  0.
         23    2    4    4    0    0 -0.56062024419E+03  0.22838125724E+03 -0.21558856542E+03  0.64857317788E+03  0.87838947382E+02 0.  0.
          3    1    3    3  502    0  0.55829300690E+02  0.19458917194E+02  0.85295427815E+02  0.10378280339E+03  0.00000000000E+00 0. -1.
         -2    1    3    3    0  502  0.25766402844E+03 -0.72353164971E+02  0.48250875714E+03  0.55176120990E+03  0.00000000000E+00 0.  1.
         13    1    5    5    0    0  0.29921104170E+02 -0.40337454651E+02  0.43198226727E+02  0.66245524489E+02  0.00000000000E+00 0. -1.
        -13    1    5    5    0    0  0.21720581089E+03 -0.13514955481E+03  0.20782634100E+02  0.25666258849E+03  0.00000000000E+00 0.  1.
          3    1    6    6  503    0 -0.11923777666E+03  0.30267934341E+02 -0.77696583810E+02  0.14550104593E+03  0.00000000000E+00 0. -1.
         -3    1    6    6    0  503 -0.44138246753E+03  0.19811332290E+03 -0.13789198161E+03  0.50307213195E+03  0.00000000000E+00 0.  1.
<mgrwt>
<rscale>  0 0.15728928E+04</rscale>
<asrwt>0</asrwt>
<pdfrwt beam="1">  1        1 0.93140679E-01 0.15728928E+04</pdfrwt>
<pdfrwt beam="2">  1       -2 0.15717091E+00 0.15728928E+04</pdfrwt>
<totfact> 0.75169823E+00</totfact>
</mgrwt>
</event>
<event>
12    5  0.5029243E-008  0.1392751E+04  0.7818608E-02  0.8959082E-01
          1   -1    0    0  501    0  0.00000000000E+00  0.00000000000E+00  0.21452093871E+04  0.21452093871E+04  0.00000000000E+00 0. -1.
         -2   -1    0    0    0  501 -0.00000000000E+00 -0.00000000000E+00 -0.22605667257E+03  0.22605667257E+03  0.00000000000E+00 0.  1.
        -24    2    1    2    0    0 -0.16779360805E+03  0.31329486591E+03  0.25000117233E+03  0.44226789688E+03  0.82413218235E+02 0.  0.
        254    2    1    2    0    0  0.16779360805E+03 -0.31329486591E+03  0.16691515422E+04  0.19289981628E+04  0.89925450975E+03 0.  0.
         23    2    4    4    0    0  0.11096104858E+03  0.13425860137E+03  0.26514591216E-01  0.19741214375E+03  0.92918391361E+02 0.  0.
         23    2    4    4    0    0  0.56832559461E+02 -0.44755346728E+03  0.16691250276E+04  0.17315860190E+04  0.94221747221E+02 0.  0.
          3    1    3    3  502    0 -0.71378741029E+02  0.14217340999E+03  0.16196706531E+03  0.22702760498E+03  0.00000000000E+00 0. -1.
         -4    1    3    3    0  502 -0.96414867016E+02  0.17112145592E+03  0.88034107015E+02  0.21524029189E+03  0.00000000000E+00 0.  1.
         13    1    5    5    0    0  0.75988907918E+02  0.44888253117E+02  0.35454970285E+02  0.95112167005E+02  0.00000000000E+00 0. -1.
        -13    1    5    5    0    0  0.34972140666E+02  0.89370348256E+02 -0.35428455693E+02  0.10229997675E+03  0.00000000000E+00 0.  1.
          4    1    6    6  503    0  0.34911100082E+02 -0.43075507299E+03  0.15939700847E+04  0.16515172868E+04  0.00000000000E+00 0. -1.
         -4    1    6    6    0  503  0.21921459379E+02 -0.16798394290E+02  0.75154942892E+02  0.80068732181E+02  0.00000000000E+00 0.  1.
<mgrwt>
<rscale>  0 0.13927511E+04</rscale>
<asrwt>0</asrwt>
<pdfrwt beam="1">  1        1 0.33003220E+00 0.13927511E+04</pdfrwt>
<pdfrwt beam="2">  1       -2 0.34777951E-01 0.13927511E+04</pdfrwt>
<totfact> 0.15793698E+01</totfact>
</mgrwt>
</event>
<event>
12    5  0.5029243E-008  0.1249988E+04  0.7818608E-02  0.9070193E-01
          1   -1    0    0  501    0  0.00000000000E+00  0.00000000000E+00  0.33763505826E+03  0.33763505826E+03  0.00000000000E+00 0. -1.
         -2   -1    0    0    0  501 -0.00000000000E+00 -0.00000000000E+00 -0.11569227483E+04  0.11569227483E+04  0.00000000000E+00 0.  1.
        -24    2    1    2    0    0 -0.13255703925E+03  0.15382758417E+03  0.50480475909E+02  0.22424325464E+03  0.80637860205E+02 0.  0.
        254    2    1    2    0    0  0.13255703925E+03 -0.15382758417E+03 -0.86976816595E+03  0.12703145519E+04  0.90330952835E+03 0.  0.
         23    2    4    4    0    0 -0.28097940441E+03  0.23395645169E+02 -0.73479782626E+03  0.79187864815E+03  0.87448076022E+02 0.  0.
         23    2    4    4    0    0  0.41353644366E+03 -0.17722322934E+03 -0.13497033969E+03  0.47843590377E+03  0.90903565252E+02 0.  0.
          3    1    3    3  502    0 -0.91722078485E+02  0.74797859169E+02  0.63543191291E+02  0.13433315517E+03  0.00000000000E+00 0. -1.
         -4    1    3    3    0  502 -0.40834960762E+02  0.79029725000E+02 -0.13062715382E+02  0.89910099473E+02  0.00000000000E+00 0.  1.
         13    1    5    5    0    0 -0.28479296677E+03  0.21689845496E+02 -0.73401734843E+03  0.78762868861E+03  0.00000000000E+00 0.  1.
        -13    1    5    5    0    0  0.38135623658E+01  0.17057996724E+01 -0.78047782982E+00  0.42499595390E+01  0.00000000000E+00 0. -1.
          4    1    6    6  503    0  0.67270492966E+00 -0.13918094027E+02 -0.10140767584E+02  0.17233718126E+02  0.00000000000E+00 0. -1.
         -4    1    6    6    0  503  0.41286373873E+03 -0.16330513531E+03 -0.12482957211E+03  0.46120218565E+03  0.00000000000E+00 0.  1.
<mgrwt>
<rscale>  0 0.12499883E+04</rscale>
<asrwt>0</asrwt>
<pdfrwt beam="1">  1        1 0.51943856E-01 0.12499883E+04</pdfrwt>
<pdfrwt beam="2">  1       -2 0.17798811E+00 0.12499883E+04</pdfrwt>
<totfact> 0.12094238E+01</totfact>
</mgrwt>
</event>
<event>
12    5  0.5029243E-008  0.2413205E+04  0.7818608E-02  0.8434576E-01
          1   -1    0    0  501    0  0.00000000000E+00  0.00000000000E+00  0.15260566889E+04  0.15260566889E+04  0.00000000000E+00 0. -1.
         -2   -1    0    0    0  501 -0.00000000000E+00 -0.00000000000E+00 -0.95402029472E+03  0.95402029472E+03  0.00000000000E+00 0.  1.
        -24    2    1    2    0    0 -0.39462724902E+03  0.95910815902E+03  0.20544198847E+03  0.10603748722E+04  0.81051419665E+02 0.  0.
        254    2    1    2    0    0  0.39462724902E+03 -0.95910815902E+03  0.36659440574E+03  0.14197021114E+04  0.89752075214E+03 0.  0.
         23    2    4    4    0    0  0.58223896470E+03 -0.82224791064E+03  0.43814318119E+02  0.10128827296E+04  0.94434585693E+02 0.  0.
         23    2    4    4    0    0 -0.18761171568E+03 -0.13686024838E+03  0.32278008762E+03  0.40681938179E+03  0.85942661035E+02 0.  0.
          1    1    3    3  502    0 -0.10202260524E+02  0.76985965528E+02  0.22899674199E+02  0.80964931214E+02  0.00000000000E+00 0. -1.
         -2    1    3    3    0  502 -0.38442498850E+03  0.88212219350E+03  0.18254231427E+03  0.97940994101E+03  0.00000000000E+00 0.  1.
         13    1    5    5    0    0  0.58598963343E+02 -0.42249847338E+02 -0.23912940781E+01  0.72281438782E+02  0.00000000000E+00 0.  1.
        -13    1    5    5    0    0  0.52364000136E+03 -0.77999806331E+03  0.46205612197E+02  0.94060129087E+03  0.00000000000E+00 0. -1.
          3    1    6    6  503    0 -0.97127520953E+02 -0.74321963815E+02  0.98554607553E+02  0.15706852104E+03  0.00000000000E+00 0. -1.
         -3    1    6    6    0  503 -0.90484194726E+02 -0.62538284566E+02  0.22422548007E+03  0.24975086075E+03  0.00000000000E+00 0.  1.
<mgrwt>
<rscale>  0 0.24132046E+04</rscale>
<asrwt>0</asrwt>
<pdfrwt beam="1">  1        1 0.23477795E+00 0.24132046E+04</pdfrwt>
<pdfrwt beam="2">  1       -2 0.14677235E+00 0.24132046E+04</pdfrwt>
<totfact> 0.15653377E+00</totfact>
</mgrwt>
</event>
<event>
12    5  0.5029243E-008  0.1625529E+04  0.7818608E-02  0.8805016E-01
         -2   -1    0    0    0  501 -0.00000000000E+00  0.00000000000E+00  0.35937245727E+03  0.35937245727E+03  0.00000000000E+00 0.  1.
          1   -1    0    0  501    0  0.00000000000E+00 -0.00000000000E+00 -0.18381656596E+04  0.18381656596E+04  0.00000000000E+00 0. -1.
        -24    2    1    2    0    0  0.12881210949E+02  0.22715971448E+02 -0.12906517632E+04  0.12933965594E+04  0.80067128167E+02 0.  0.
        254    2    1    2    0    0 -0.12881210949E+02 -0.22715971448E+02 -0.18814143904E+03  0.90414155741E+03  0.88396426047E+03 0.  0.
         23    2    4    4    0    0  0.40963198232E+02 -0.32569731968E+03  0.20422798085E+03  0.39736169529E+03  0.91817869012E+02 0.  0.
         23    2    4    4    0    0 -0.53844409180E+02  0.30298134823E+03 -0.39236941989E+03  0.50677986212E+03  0.90416531708E+02 0.  0.
          3    1    3    3  502    0 -0.22050111681E+02  0.28546366409E+02 -0.99148935939E+03  0.99214527779E+03  0.00000000000E+00 0. -1.
         -4    1    3    3    0  502  0.34931322630E+02 -0.58303949609E+01 -0.29916240385E+03  0.30125128163E+03  0.00000000000E+00 0.  1.
         13    1    5    5    0    0  0.26476909948E+02 -0.23890127234E+03  0.98393316874E+02  0.25972310158E+03  0.00000000000E+00 0. -1.
        -13    1    5    5    0    0  0.14486288283E+02 -0.86796047333E+02  0.10583466398E+03  0.13763859371E+03  0.00000000000E+00 0.  1.
          1    1    6    6  503    0  0.50605093968E+00  0.19671037131E+03 -0.20102900663E+03  0.28126124471E+03  0.00000000000E+00 0. -1.
         -1    1    6    6    0  503 -0.54350460120E+02  0.10627097692E+03 -0.19134041326E+03  0.22551861741E+03  0.00000000000E+00 0.  1.
<mgrwt>
<rscale>  0 0.16255290E+04</rscale>
<asrwt>0</asrwt>
<pdfrwt beam="1">  1        1 0.28279472E+00 0.16255290E+04</pdfrwt>
<pdfrwt beam="2">  1       -2 0.55288071E-01 0.16255290E+04</pdfrwt>
<totfact> 0.99220196E+00</totfact>
</mgrwt>
</event>
<event>
12    5  0.5029243E-008  0.1799606E+04  0.7818608E-02  0.8706509E-01
         -2   -1    0    0    0  501 -0.00000000000E+00  0.00000000000E+00  0.66838651391E+03  0.66838651391E+03  0.00000000000E+00 0.  1.
          1   -1    0    0  501    0  0.00000000000E+00 -0.00000000000E+00 -0.12113436730E+04  0.12113436730E+04  0.00000000000E+00 0. -1.
        -24    2    1    2    0    0 -0.65274438924E+03 -0.16650913191E+02 -0.23682196122E+03  0.69944023654E+03  0.82337795566E+02 0.  0.
        254    2    1    2    0    0  0.65274438924E+03  0.16650913191E+02 -0.30613519792E+03  0.11802899504E+04  0.93435170949E+03 0.  0.
         23    2    4    4    0    0 -0.22214255655E+03  0.24223627597E+02  0.20553017224E+02  0.24182918702E+03  0.90137836731E+02 0.  0.
         23    2    4    4    0    0  0.87488694580E+03 -0.75727144062E+01 -0.32668821514E+03  0.93846076339E+03  0.92189481905E+02 0.  0.
          3    1    3    3  502    0 -0.13067167102E+02 -0.11572345460E+02 -0.42314387340E+00  0.17459928014E+02  0.00000000000E+00 0. -1.
         -4    1    3    3    0  502 -0.63967722214E+03 -0.50785677310E+01 -0.23639881735E+03  0.68198030853E+03  0.00000000000E+00 0.  1.
         13    1    5    5    0    0 -0.97648073527E+02  0.38687977103E+02  0.44774501199E+02  0.11417820192E+03  0.00000000000E+00 0. -1.
        -13    1    5    5    0    0 -0.12449448303E+03 -0.14464349506E+02 -0.24221483975E+02  0.12765098510E+03  0.00000000000E+00 0.  1.
          2    1    6    6  503    0  0.62265771013E+03 -0.26650668691E+02 -0.27020370304E+03  0.67928118130E+03  0.00000000000E+00 0. -1.
         -2    1    6    6    0  503  0.25222923567E+03  0.19077954285E+02 -0.56484512097E+02  0.25917958209E+03  0.00000000000E+00 0.  1.
<mgrwt>
<rscale>  0 0.17996064E+04</rscale>
<asrwt>0</asrwt>
<pdfrwt beam="1">  1        1 0.18636056E+00 0.17996064E+04</pdfrwt>
<pdfrwt beam="2">  1       -2 0.10282870E+00 0.17996064E+04</pdfrwt>
<totfact> 0.67064605E+00</totfact>
</mgrwt>
</event>
<event>
12    5  0.5029243E-008  0.1208605E+04  0.7818608E-02  0.9105358E-01
          1   -1    0    0  501    0  0.00000000000E+00  0.00000000000E+00  0.14259202686E+04  0.14259202686E+04  0.00000000000E+00 0. -1.
         -2   -1    0    0    0  501 -0.00000000000E+00 -0.00000000000E+00 -0.25610226772E+03  0.25610226772E+03  0.00000000000E+00 0.  1.
        -24    2    1    2    0    0  0.22088256565E+03 -0.84610307130E+02  0.45727131704E+03  0.52096083938E+03  0.79719049773E+02 0.  0.
        254    2    1    2    0    0 -0.22088256565E+03  0.84610307130E+02  0.71254668385E+03  0.11610616970E+04  0.88565990967E+03 0.  0.
         23    2    4    4    0    0 -0.12880982551E+03  0.18627937187E+03 -0.14798695930E+03  0.28527179035E+03  0.90486898031E+02 0.  0.
         23    2    4    4    0    0 -0.92072740139E+02 -0.10166906474E+03  0.86053364315E+03  0.87578990661E+03  0.87611764724E+02 0.  0.
          1    1    3    3  502    0  0.10219056108E+03 -0.38587190480E+02  0.29591783708E+03  0.31543501446E+03  0.00000000000E+00 0. -1.
         -2    1    3    3    0  502  0.11869200456E+03 -0.46023116650E+02  0.16135347996E+03  0.20552582492E+03  0.00000000000E+00 0.  1.
         13    1    5    5    0    0 -0.10468749230E+03  0.71932229910E+02 -0.76426880328E+02  0.14823894488E+03  0.00000000000E+00 0.  1.
        -13    1    5    5    0    0 -0.24122333208E+02  0.11434714196E+03 -0.71560078971E+02  0.13703284547E+03  0.00000000000E+00 0. -1.
          4    1    6    6  503    0 -0.95351873781E+02 -0.78482181997E+02  0.52047236447E+03  0.53492327945E+03  0.00000000000E+00 0. -1.
         -4    1    6    6    0  503  0.32791336415E+01 -0.23186882748E+02  0.34006127869E+03  0.34086662716E+03  0.00000000000E+00 0.  1.
<mgrwt>
<rscale>  0 0.12086048E+04</rscale>
<asrwt>0</asrwt>
<pdfrwt beam="1">  1        1 0.21937234E+00 0.12086048E+04</pdfrwt>
<pdfrwt beam="2">  1       -2 0.39400350E-01 0.12086048E+04</pdfrwt>
<totfact> 0.38942550E+01</totfact>
</mgrwt>
</event>
<event>
12    5  0.5029243E-008  0.2407535E+04  0.7818608E-02  0.8436688E-01
          1   -1    0    0  501    0  0.00000000000E+00  0.00000000000E+00  0.12864190434E+04  0.12864190434E+04  0.00000000000E+00 0. -1.
         -2   -1    0    0    0  501 -0.00000000000E+00 -0.00000000000E+00 -0.11264265487E+04  0.11264265487E+04  0.00000000000E+00 0.  1.
        -24    2    1    2    0    0  0.35639078970E+03  0.76687541060E+02 -0.89015654071E+03  0.96792534972E+03  0.10772855579E+03 0.  0.
        254    2    1    2    0    0 -0.35639078970E+03 -0.76687541060E+02  0.10501490354E+04  0.14449202425E+04  0.92308511879E+03 0.  0.
         23    2    4    4    0    0 -0.63651763757E+03 -0.19892144391E+03  0.73420303196E+03  0.99609922652E+03  0.91842980875E+02 0.  0.
         23    2    4    4    0    0  0.28012684788E+03  0.12223390285E+03  0.31594600345E+03  0.44882101594E+03  0.90588351038E+02 0.  0.
          3    1    3    3  502    0  0.86165175639E+02  0.10172043482E+02 -0.11315279007E+03  0.14258843523E+03  0.00000000000E+00 0. -1.
         -4    1    3    3    0  502  0.27022561406E+03  0.66515497578E+02 -0.77700375064E+03  0.82533691449E+03  0.00000000000E+00 0.  1.
         13    1    5    5    0    0 -0.52509846598E+03 -0.19840225441E+03  0.62539056207E+03  0.84036016603E+03  0.00000000000E+00 0.  1.
        -13    1    5    5    0    0 -0.11141917160E+03 -0.51918950207E+00  0.10881246989E+03  0.15573906048E+03  0.00000000000E+00 0. -1.
          3    1    6    6  503    0  0.85613865981E+02  0.68124292855E+02  0.15942330803E+03  0.19335574589E+03  0.00000000000E+00 0. -1.
         -3    1    6    6    0  503  0.19451298189E+03  0.54109609993E+02  0.15652269542E+03  0.25546527005E+03  0.00000000000E+00 0.  1.
<mgrwt>
<rscale>  0 0.24075353E+04</rscale>
<asrwt>0</asrwt>
<pdfrwt beam="1">  1        1 0.19791062E+00 0.24075353E+04</pdfrwt>
<pdfrwt beam="2">  1       -2 0.17329639E+00 0.24075353E+04</pdfrwt>
<totfact> 0.14684694E+00</totfact>
</mgrwt>
</event>
<event>
12    5  0.5029243E-008  0.1495378E+04  0.7818608E-02  0.8887532E-01
         -2   -1    0    0    0  501 -0.00000000000E+00  0.00000000000E+00  0.45611232631E+03  0.45611232631E+03  0.00000000000E+00 0.  1.
          1   -1    0    0  501    0  0.00000000000E+00 -0.00000000000E+00 -0.12256610584E+04  0.12256610584E+04  0.00000000000E+00 0. -1.
        -24    2    1    2    0    0 -0.73974916936E+02  0.45129856874E+03 -0.29655599595E+03  0.55054541424E+03  0.77537783871E+02 0.  0.
        254    2    1    2    0    0  0.73974916936E+02 -0.45129856874E+03 -0.47299273616E+03  0.11312279705E+04  0.92022383489E+03 0.  0.
         23    2    4    4    0    0  0.28152881223E+03 -0.58747381634E+03 -0.54925022821E+03  0.85718539889E+03  0.93311509952E+02 0.  0.
         23    2    4    4    0    0 -0.20755389529E+03  0.13617524760E+03  0.76257492055E+02  0.27404257160E+03  0.87531756781E+02 0.  0.
          1    1    3    3  502    0  0.13823919219E+02  0.53467113613E+02 -0.48966150008E+02  0.73807295217E+02  0.00000000000E+00 0. -1.
         -2    1    3    3    0  502 -0.87798836155E+02  0.39783145512E+03 -0.24758984595E+03  0.47673811903E+03  0.00000000000E+00 0.  1.
         13    1    5    5    0    0  0.27797504030E+03 -0.59017003910E+03 -0.53978730956E+03  0.84672376702E+03  0.00000000000E+00 0. -1.
        -13    1    5    5    0    0  0.35537719271E+01  0.26962227560E+01 -0.94629186520E+01  0.10461631874E+02  0.00000000000E+00 0.  1.
          4    1    6    6  503    0 -0.19329973564E+02  0.54811134871E+02  0.18878895597E+02  0.61109091654E+02  0.00000000000E+00 0. -1.
         -4    1    6    6    0  503 -0.18822392173E+03  0.81364112732E+02  0.57378596458E+02  0.21293347995E+03  0.00000000000E+00 0.  1.
<mgrwt>
<rscale>  0 0.14953784E+04</rscale>
<asrwt>0</asrwt>
<pdfrwt beam="1">  1        1 0.18856324E+00 0.14953784E+04</pdfrwt>
<pdfrwt beam="2">  1       -2 0.70171126E-01 0.14953784E+04</pdfrwt>
<totfact> 0.16062292E+01</totfact>
</mgrwt>
</event>
<event>
12    5  0.5029243E-008  0.1993557E+04  0.7818608E-02  0.8609639E-01
          3   -1    0    0  501    0  0.00000000000E+00  0.00000000000E+00  0.14100948684E+04  0.14100948684E+04  0.00000000000E+00 0. -1.
         -4   -1    0    0    0  501 -0.00000000000E+00 -0.00000000000E+00 -0.70461055992E+03  0.70461055992E+03  0.00000000000E+00 0.  1.
        -24    2    1    2    0    0 -0.67207500704E+03 -0.38895567089E+03  0.48189934214E+03  0.91761000807E+03  0.82521645354E+02 0.  0.
        254    2    1    2    0    0  0.67207500704E+03  0.38895567089E+03  0.22358496633E+03  0.11970954202E+04  0.88321904361E+03 0.  0.
         23    2    4    4    0    0  0.25005896906E+03  0.56987702047E+03  0.33927548932E+03  0.71471635985E+03  0.91773149192E+02 0.  0.
         23    2    4    4    0    0  0.42201603798E+03 -0.18092134958E+03 -0.11569052299E+03  0.48237906040E+03  0.92060793799E+02 0.  0.
          1    1    3    3  502    0 -0.66749822050E+03 -0.38906809953E+03  0.48486765657E+03  0.91215377258E+03  0.00000000000E+00 0. -1.
         -2    1    3    3    0  502 -0.45767865369E+01  0.11242863738E+00 -0.29683144277E+01  0.54562354921E+01  0.00000000000E+00 0.  1.
         13    1    5    5    0    0  0.14334333334E+03  0.35649448360E+03  0.15967172166E+03  0.41608975804E+03  0.00000000000E+00 0. -1.
        -13    1    5    5    0    0  0.10671563572E+03  0.21338253687E+03  0.17960376766E+03  0.29862660181E+03  0.00000000000E+00 0.  1.
          2    1    6    6  503    0  0.17281429650E+03 -0.72741466867E+02 -0.10264884152E+01  0.18750241534E+03  0.00000000000E+00 0. -1.
         -2    1    6    6    0  503  0.24920174147E+03 -0.10817988271E+03 -0.11466403458E+03  0.29487664506E+03  0.00000000000E+00 0.  1.
<mgrwt>
<rscale>  0 0.19935574E+04</rscale>
<asrwt>0</asrwt>
<pdfrwt beam="1">  1        3 0.21693767E+00 0.19935574E+04</pdfrwt>
<pdfrwt beam="2">  1       -4 0.10840162E+00 0.19935574E+04</pdfrwt>
<totfact> 0.16743894E-01</totfact>
</mgrwt>
</event>
<event>
12    5  0.5029243E-008  0.1284069E+04  0.7818608E-02  0.9042295E-01
         -2   -1    0    0    0  501 -0.00000000000E+00  0.00000000000E+00  0.86001543656E+03  0.86001543656E+03  0.00000000000E+00 0.  1.
          1   -1    0    0  501    0  0.00000000000E+00 -0.00000000000E+00 -0.47930337417E+03  0.47930337417E+03  0.00000000000E+00 0. -1.
        -24    2    1    2    0    0 -0.20663175768E+03  0.11237881173E+03 -0.12270082264E+03  0.27735485854E+03  0.80898362589E+02 0.  0.
        254    2    1    2    0    0  0.20663175768E+03 -0.11237881173E+03  0.50341288503E+03  0.10619639522E+04  0.90499570294E+03 0.  0.
         23    2    4    4    0    0 -0.11444062851E+03  0.20750851108E+03  0.54034545902E+03  0.59804553688E+03  0.97615621039E+02 0.  0.
         23    2    4    4    0    0  0.32107238619E+03 -0.31988732281E+03 -0.36932573987E+02  0.46391841532E+03  0.91874395679E+02 0.  0.
          3    1    3    3  502    0 -0.11532049367E+03  0.10630225484E+03 -0.70011894682E+02  0.17175753561E+03  0.00000000000E+00 0. -1.
         -4    1    3    3    0  502 -0.91311264011E+02  0.60765568939E+01 -0.52688927961E+02  0.10559732292E+03  0.00000000000E+00 0.  1.
         13    1    5    5    0    0 -0.52696567690E+02  0.64881841457E+02  0.95922841986E+02  0.12723118019E+03  0.00000000000E+00 0.  1.
        -13    1    5    5    0    0 -0.61744060821E+02  0.14262666962E+03  0.44442261703E+03  0.47081435669E+03  0.00000000000E+00 0. -1.
          4    1    6    6  503    0  0.20709345145E+03 -0.24733027836E+03 -0.56185910300E+02  0.32743979713E+03  0.00000000000E+00 0. -1.
         -4    1    6    6    0  503  0.11397893474E+03 -0.72557044450E+02  0.19253336313E+02  0.13647861819E+03  0.00000000000E+00 0.  1.
<mgrwt>
<rscale>  0 0.12840690E+04</rscale>
<asrwt>0</asrwt>
<pdfrwt beam="1">  1        1 0.73738981E-01 0.12840690E+04</pdfrwt>
<pdfrwt beam="2">  1       -2 0.13231007E+00 0.12840690E+04</pdfrwt>
<totfact> 0.16771018E+01</totfact>
</mgrwt>
</event>
<event>
12    5  0.5029243E-008  0.2030123E+04  0.7818608E-02  0.8592665E-01
         -2   -1    0    0    0  501 -0.00000000000E+00  0.00000000000E+00  0.45809649617E+03  0.45809649617E+03  0.00000000000E+00 0.  1.
          1   -1    0    0  501    0  0.00000000000E+00 -0.00000000000E+00 -0.22491979667E+04  0.22491979667E+04  0.00000000000E+00 0. -1.
        -24    2    1    2    0    0  0.12036822908E+03  0.79837049732E+03 -0.60804261335E+03  0.10138440741E+04  0.79246611712E+02 0.  0.
        254    2    1    2    0    0 -0.12036822908E+03 -0.79837049732E+03 -0.11830588571E+04  0.16934503887E+04  0.90347218990E+03 0.  0.
         23    2    4    4    0    0 -0.45218514840E+03 -0.30788771594E+03 -0.82976114005E+03  0.99798327722E+03  0.90558368008E+02 0.  0.
         23    2    4    4    0    0  0.33181691932E+03 -0.49048278138E+03 -0.35329771709E+03  0.69546711146E+03  0.90440032337E+02 0.  0.
          3    1    3    3  502    0  0.39477878768E+02  0.36971462483E+03 -0.32506621458E+03  0.49387797135E+03  0.00000000000E+00 0. -1.
         -4    1    3    3    0  502  0.80890350310E+02  0.42865587249E+03 -0.28297639877E+03  0.51996610279E+03  0.00000000000E+00 0.  1.
         13    1    5    5    0    0 -0.24738107815E+03 -0.20285011720E+03 -0.54349962919E+03  0.63066426473E+03  0.00000000000E+00 0. -1.
        -13    1    5    5    0    0 -0.20480407025E+03 -0.10503759875E+03 -0.28626151086E+03  0.36731901250E+03  0.00000000000E+00 0.  1.
          3    1    6    6  503    0  0.22090367586E+03 -0.33928985345E+03 -0.19181973381E+03  0.44800764384E+03  0.00000000000E+00 0. -1.
         -3    1    6    6    0  503  0.11091324346E+03 -0.15119292793E+03 -0.16147798328E+03  0.24745946762E+03  0.00000000000E+00 0.  1.
<mgrwt>
<rscale>  0 0.20301229E+04</rscale>
<asrwt>0</asrwt>
<pdfrwt beam="1">  1        1 0.34603046E+00 0.20301229E+04</pdfrwt>
<pdfrwt beam="2">  1       -2 0.70476384E-01 0.20301229E+04</pdfrwt>
<totfact> 0.30017602E+00</totfact>
</mgrwt>
</event>
<event>
12    5  0.5029243E-008  0.1409839E+04  0.7818608E-02  0.8946727E-01
          1   -1    0    0  501    0  0.00000000000E+00  0.00000000000E+00  0.69039223263E+03  0.69039223263E+03  0.00000000000E+00 0. -1.
         -2   -1    0    0    0  501 -0.00000000000E+00 -0.00000000000E+00 -0.71975220778E+03  0.71975220778E+03  0.00000000000E+00 0.  1.
        -24    2    1    2    0    0 -0.23604442410E+03  0.12272543721E+03 -0.32415539850E+03  0.42662116860E+03  0.78424460691E+02 0.  0.
        254    2    1    2    0    0  0.23604442410E+03 -0.12272543721E+03  0.29479542335E+03  0.98352327180E+03  0.89979730021E+03 0.  0.
         23    2    4    4    0    0  0.13011654034E+03  0.35430134072E+03 -0.32109375773E+02  0.38866112715E+03  0.86986813032E+02 0.  0.
         23    2    4    4    0    0  0.10592788375E+03 -0.47702677793E+03  0.32690479912E+03  0.59486214465E+03  0.90658480210E+02 0.  0.
          1    1    3    3  502    0 -0.22647682162E+02  0.22580267015E+02 -0.85011273444E+02  0.90827873356E+02  0.00000000000E+00 0. -1.
         -2    1    3    3    0  502 -0.21339674193E+03  0.10014517020E+03 -0.23914412506E+03  0.33579329525E+03  0.00000000000E+00 0.  1.
         13    1    5    5    0    0  0.12718633301E+03  0.27215514888E+03  0.16684410995E-01  0.30040770403E+03  0.00000000000E+00 0. -1.
        -13    1    5    5    0    0  0.29302073312E+01  0.82146191841E+02 -0.32126060184E+02  0.88253423118E+02  0.00000000000E+00 0.  1.
          4    1    6    6  503    0  0.76852563063E+02 -0.19162156497E+03  0.10171711184E+03  0.23015540717E+03  0.00000000000E+00 0.  1.
         -4    1    6    6    0  503  0.29075320690E+02 -0.28540521296E+03  0.22518768729E+03  0.36470673748E+03  0.00000000000E+00 0. -1.
<mgrwt>
<rscale>  0 0.14098388E+04</rscale>
<asrwt>0</asrwt>
<pdfrwt beam="1">  1        1 0.10621419E+00 0.14098388E+04</pdfrwt>
<pdfrwt beam="2">  1       -2 0.11073111E+00 0.14098388E+04</pdfrwt>
<totfact> 0.15344342E+01</totfact>
</mgrwt>
</event>
<event>
12    5  0.5029243E-008  0.1359410E+04  0.7818608E-02  0.8983735E-01
          1   -1    0    0  501    0  0.00000000000E+00  0.00000000000E+00  0.12597299534E+04  0.12597299534E+04  0.00000000000E+00 0. -1.
         -2   -1    0    0    0  501 -0.00000000000E+00 -0.00000000000E+00 -0.36674452548E+03  0.36674452548E+03  0.00000000000E+00 0.  1.
        -24    2    1    2    0    0  0.12118221180E+03  0.28096614912E+02 -0.16653033086E+03  0.22220723206E+03  0.78543966401E+02 0.  0.
        254    2    1    2    0    0 -0.12118221180E+03 -0.28096614912E+02  0.10595157588E+04  0.14042672469E+04  0.91319127744E+03 0.  0.
         23    2    4    4    0    0 -0.51752263012E+02 -0.36804507823E+03  0.95723692941E+03  0.10310120878E+04  0.92454906715E+02 0.  0.
         23    2    4    4    0    0 -0.69429948784E+02  0.33994846332E+03  0.10227882942E+03  0.37325515909E+03  0.92048787836E+02 0.  0.
          1    1    3    3  502    0  0.17848913201E+02 -0.69029456574E+01 -0.81968965772E+02  0.84173307592E+02  0.00000000000E+00 0. -1.
         -2    1    3    3    0  502  0.10333329859E+03  0.34999560570E+02 -0.84561365090E+02  0.13803392447E+03  0.00000000000E+00 0.  1.
         13    1    5    5    0    0  0.76654260694E+01 -0.42783049216E+01  0.65743993294E+02  0.66327485284E+02  0.00000000000E+00 0. -1.
        -13    1    5    5    0    0 -0.59417689081E+02 -0.36376677331E+03  0.89149293612E+03  0.96468460249E+03  0.00000000000E+00 0.  1.
          4    1    6    6  503    0 -0.25844035664E+02  0.22874250043E+02 -0.66942061454E+01  0.35156192774E+02  0.00000000000E+00 0. -1.
         -4    1    6    6    0  503 -0.43585913120E+02  0.31707421327E+03  0.10897303556E+03  0.33809896632E+03  0.00000000000E+00 0.  1.
<mgrwt>
<rscale>  0 0.13594103E+04</rscale>
<asrwt>0</asrwt>
<pdfrwt beam="1">  1        1 0.19380461E+00 0.13594103E+04</pdfrwt>
<pdfrwt beam="2">  1       -2 0.56422236E-01 0.13594103E+04</pdfrwt>
<totfact> 0.24451240E+01</totfact>
</mgrwt>
</event>
<event>
12    5  0.5029243E-008  0.1590201E+04  0.7818608E-02  0.8826591E-01
          3   -1    0    0  501    0  0.00000000000E+00  0.00000000000E+00  0.10003506505E+04  0.10003506505E+04  0.00000000000E+00 0. -1.
         -4   -1    0    0    0  501 -0.00000000000E+00 -0.00000000000E+00 -0.63196312113E+03  0.63196312113E+03  0.00000000000E+00 0.  1.
        -24    2    1    2    0    0  0.11585652934E+03  0.51200656550E+03  0.23809149215E+03  0.58270920257E+03  0.85375626590E+02 0.  0.
        254    2    1    2    0    0 -0.11585652934E+03 -0.51200656550E+03  0.13029603723E+03  0.10496045691E+04  0.89951055337E+03 0.  0.
         23    2    4    4    0    0 -0.46948992922E+03 -0.29629283471E+03 -0.93344197130E+02  0.57025409304E+03  0.90919491630E+02 0.  0.
         23    2    4    4    0    0  0.35363339988E+03 -0.21571373079E+03  0.22364023436E+03  0.47935047604E+03  0.90404254838E+02 0.  0.
          1    1    3    3  502    0  0.49577695519E+02  0.38673104641E+03  0.18205162088E+03  0.43030412828E+03  0.00000000000E+00 0. -1.
         -2    1    3    3    0  502  0.66278833822E+02  0.12527551909E+03  0.56039871268E+02  0.15240507428E+03  0.00000000000E+00 0.  1.
         13    1    5    5    0    0 -0.19309625079E+03 -0.70208212840E+02 -0.31988683362E+02  0.20793900808E+03  0.00000000000E+00 0. -1.
        -13    1    5    5    0    0 -0.27639367843E+03 -0.22608462187E+03 -0.61355513768E+02  0.36231508496E+03  0.00000000000E+00 0.  1.
          1    1    6    6  503    0  0.31896554895E+03 -0.18975421105E+03  0.16428983814E+03  0.40587785471E+03  0.00000000000E+00 0. -1.
         -1    1    6    6    0  503  0.34667850931E+02 -0.25959519737E+02  0.59350396225E+02  0.73472621331E+02  0.00000000000E+00 0.  1.
<mgrwt>
<rscale>  0 0.15902009E+04</rscale>
<asrwt>0</asrwt>
<pdfrwt beam="1">  1        3 0.15390010E+00 0.15902009E+04</pdfrwt>
<pdfrwt beam="2">  1       -4 0.97225096E-01 0.15902009E+04</pdfrwt>
<totfact> 0.58735646E-01</totfact>
</mgrwt>
</event>
<event>
12    5  0.5029243E-008  0.3306940E+04  0.7818608E-02  0.8161132E-01
         -4   -1    0    0    0  501 -0.00000000000E+00  0.00000000000E+00  0.16159038010E+04  0.16159038010E+04  0.00000000000E+00 0.  1.
          3   -1    0    0  501    0  0.00000000000E+00 -0.00000000000E+00 -0.16919099653E+04  0.16919099653E+04  0.00000000000E+00 0. -1.
        -24    2    1    2    0    0  0.57238521991E+02  0.15245879109E+04  0.69827258034E+02  0.15297999371E+04  0.88133167073E+02 0.  0.
        254    2    1    2    0    0 -0.57238521991E+02 -0.15245879109E+04 -0.14583342232E+03  0.17780138293E+04  0.90134413174E+03 0.  0.
         23    2    4    4    0    0 -0.10508285789E+03 -0.12886484833E+04 -0.45630068744E+03  0.13741186594E+04  0.91293219943E+02 0.  0.
         23    2    4    4    0    0  0.47844335903E+02 -0.23593942752E+03  0.31046726511E+03  0.40389516995E+03  0.93727752915E+02 0.  0.
          1    1    3    3  502    0  0.30216917224E+02  0.70199832763E+03 -0.11637662891E+02  0.70274472554E+03  0.00000000000E+00 0. -1.
         -2    1    3    3    0  502  0.27021604768E+02  0.82258958323E+03  0.81464920925E+02  0.82705521152E+03  0.00000000000E+00 0.  1.
         13    1    5    5    0    0 -0.71394469504E+02 -0.11852092446E+04 -0.41832750953E+03  0.12588947649E+04  0.00000000000E+00 0. -1.
        -13    1    5    5    0    0 -0.33688388391E+02 -0.10343923874E+03 -0.37973177906E+02  0.11522389450E+03  0.00000000000E+00 0.  1.
          4    1    6    6  503    0  0.66690832336E+02 -0.18353767685E+03  0.27703439727E+03  0.33894218269E+03  0.00000000000E+00 0. -1.
         -4    1    6    6    0  503 -0.18846496432E+02 -0.52401750672E+02  0.33432867849E+02  0.64952987259E+02  0.00000000000E+00 0.  1.
<mgrwt>
<rscale>  0 0.33069404E+04</rscale>
<asrwt>0</asrwt>
<pdfrwt beam="1">  1        3 0.26029384E+00 0.33069404E+04</pdfrwt>
<pdfrwt beam="2">  1       -4 0.24860059E+00 0.33069404E+04</pdfrwt>
<totfact> 0.78522963E-03</totfact>
</mgrwt>
</event>
<event>
12    5  0.5029243E-008  0.1620882E+04  0.7818608E-02  0.8807821E-01
         -2   -1    0    0    0  501 -0.00000000000E+00  0.00000000000E+00  0.10023762255E+04  0.10023762255E+04  0.00000000000E+00 0.  1.
          1   -1    0    0  501    0  0.00000000000E+00 -0.00000000000E+00 -0.65525784375E+03  0.65525784375E+03  0.00000000000E+00 0. -1.
        -24    2    1    2    0    0  0.27561464685E+01 -0.25515288194E+03 -0.36280396265E+03  0.45093364212E+03  0.81264043560E+02 0.  0.
        254    2    1    2    0    0 -0.27561464685E+01  0.25515288194E+03  0.70992234440E+03  0.12067004271E+04  0.94182036305E+03 0.  0.
         23    2    4    4    0    0 -0.19576949185E+03 -0.19342852003E+03 -0.51331340131E+02  0.29781553378E+03  0.10158198355E+03 0.  0.
         23    2    4    4    0    0  0.19301334538E+03  0.44858140197E+03  0.76125368453E+03  0.90888489335E+03  0.89917470286E+02 0.  0.
          1    1    3    3  502    0  0.25161361052E+02 -0.23763318380E+03 -0.31625785330E+03  0.39638573878E+03  0.00000000000E+00 0. -1.
         -2    1    3    3    0  502 -0.22405214583E+02 -0.17519698140E+02 -0.46546109347E+02  0.54547903340E+02  0.00000000000E+00 0.  1.
         13    1    5    5    0    0 -0.13891106831E+03 -0.73395076978E+02 -0.50394621097E+02  0.16499315155E+03  0.00000000000E+00 0.  1.
        -13    1    5    5    0    0 -0.56858423539E+02 -0.12003344305E+03 -0.93671903398E+00  0.13282238223E+03  0.00000000000E+00 0. -1.
          4    1    6    6  503    0  0.18245908796E+03  0.35512864166E+03  0.65397979773E+03  0.76622271354E+03  0.00000000000E+00 0.  1.
         -4    1    6    6    0  503  0.10554257419E+02  0.93452760304E+02  0.10727388680E+03  0.14266217981E+03  0.00000000000E+00 0. -1.
<mgrwt>
<rscale>  0 0.16208823E+04</rscale>
<asrwt>0</asrwt>
<pdfrwt beam="1">  1        1 0.10080890E+00 0.16208823E+04</pdfrwt>
<pdfrwt beam="2">  1       -2 0.15421173E+00 0.16208823E+04</pdfrwt>
<totfact> 0.70185077E+00</totfact>
</mgrwt>
</event>
<event>
12    5  0.5029243E-008  0.1419731E+04  0.7818608E-02  0.8939659E-01
          1   -1    0    0  501    0  0.00000000000E+00  0.00000000000E+00  0.37941132938E+03  0.37941132938E+03  0.00000000000E+00 0. -1.
         -2   -1    0    0    0  501 -0.00000000000E+00 -0.00000000000E+00 -0.13281333333E+04  0.13281333333E+04  0.00000000000E+00 0.  1.
        -24    2    1    2    0    0 -0.13855096042E+03 -0.11337638391E+03 -0.75297696470E+03  0.77742285135E+03  0.73221631856E+02 0.  0.
        254    2    1    2    0    0  0.13855096042E+03  0.11337638391E+03 -0.19574503927E+03  0.93012181138E+03  0.89149306814E+03 0.  0.
         23    2    4    4    0    0  0.24230568708E+03 -0.14637206667E+03  0.25404881702E+03  0.39094981619E+03  0.90355572351E+02 0.  0.
         23    2    4    4    0    0 -0.10375472666E+03  0.25974845058E+03 -0.44979385630E+03  0.53917199519E+03  0.10078505026E+03 0.  0.
          3    1    3    3  502    0 -0.57857370758E+02 -0.50742011434E+01 -0.24617963522E+03  0.25293800755E+03  0.00000000000E+00 0. -1.
         -4    1    3    3    0  502 -0.80693589659E+02 -0.10830218277E+03 -0.50679732948E+03  0.52448484380E+03  0.00000000000E+00 0.  1.
         13    1    5    5    0    0  0.22396772305E+03 -0.10468172236E+03  0.18739099491E+03  0.31021797004E+03  0.00000000000E+00 0. -1.
        -13    1    5    5    0    0  0.18337964033E+02 -0.41690344305E+02  0.66657822118E+02  0.80731846149E+02  0.00000000000E+00 0.  1.
          1    1    6    6  503    0 -0.11472521028E+03  0.25020555597E+03 -0.44607501352E+03  0.52416372614E+03  0.00000000000E+00 0. -1.
         -1    1    6    6    0  503  0.10970483620E+02  0.95428946066E+01 -0.37188427739E+01  0.15008269051E+02  0.00000000000E+00 0.  1.
<mgrwt>
<rscale>  0 0.14197307E+04</rscale>
<asrwt>0</asrwt>
<pdfrwt beam="1">  1        1 0.58370974E-01 0.14197307E+04</pdfrwt>
<pdfrwt beam="2">  1       -2 0.20432821E+00 0.14197307E+04</pdfrwt>
<totfact> 0.68172469E+00</totfact>
</mgrwt>
</event>
<event>
12    5  0.5029243E-008  0.1970570E+04  0.7818608E-02  0.8620505E-01
          1   -1    0    0  501    0  0.00000000000E+00  0.00000000000E+00  0.24288263555E+04  0.24288263555E+04  0.00000000000E+00 0. -1.
         -2   -1    0    0    0  501 -0.00000000000E+00 -0.00000000000E+00 -0.39969361275E+03  0.39969361275E+03  0.00000000000E+00 0.  1.
        -24    2    1    2    0    0  0.35811960431E+03 -0.62016259981E+03  0.36719853954E+03  0.80865234745E+03  0.78946503422E+02 0.  0.
        254    2    1    2    0    0 -0.35811960431E+03  0.62016259981E+03  0.16619342032E+04  0.20198676208E+04  0.89721157402E+03 0.  0.
         23    2    4    4    0    0 -0.50257616699E+03  0.76779353323E+03  0.13335015305E+04  0.16213768423E+04  0.92449010119E+02 0.  0.
         23    2    4    4    0    0  0.14445656268E+03 -0.14763093342E+03  0.32843267268E+03  0.39849077852E+03  0.90908135361E+02 0.  0.
          3    1    3    3  502    0  0.19127839726E+03 -0.38670707353E+03  0.19007408550E+03  0.47144240789E+03  0.00000000000E+00 0. -1.
         -4    1    3    3    0  502  0.16684120705E+03 -0.23345552628E+03  0.17712445404E+03  0.33720993956E+03  0.00000000000E+00 0.  1.
         13    1    5    5    0    0 -0.47812071715E+02  0.72284900035E+02  0.83392933364E+02  0.12027253348E+03  0.00000000000E+00 0.  1.
        -13    1    5    5    0    0 -0.45476409527E+03  0.69550863320E+03  0.12501085971E+04  0.15011043088E+04  0.00000000000E+00 0. -1.
          1    1    6    6  503    0  0.10597757982E+03 -0.15371926077E+03  0.27229164087E+03  0.33015692670E+03  0.00000000000E+00 0. -1.
         -1    1    6    6    0  503  0.38478982862E+02  0.60883273530E+01  0.56141031810E+02  0.68333851822E+02  0.00000000000E+00 0.  1.
<mgrwt>
<rscale>  0 0.19705698E+04</rscale>
<asrwt>0</asrwt>
<pdfrwt beam="1">  1        1 0.37366558E+00 0.19705698E+04</pdfrwt>
<pdfrwt beam="2">  1       -2 0.61491327E-01 0.19705698E+04</pdfrwt>
<totfact> 0.30491366E+00</totfact>
</mgrwt>
</event>
<event>
12    5  0.5029243E-008  0.1001096E+04  0.7818608E-02  0.9307344E-01
          1   -1    0    0  501    0  0.00000000000E+00  0.00000000000E+00  0.55079983592E+03  0.55079983592E+03  0.00000000000E+00 0. -1.
         -2   -1    0    0    0  501 -0.00000000000E+00 -0.00000000000E+00 -0.45488040327E+03  0.45488040327E+03  0.00000000000E+00 0.  1.
        -24    2    1    2    0    0 -0.23088830900E+02 -0.34680830282E+02 -0.68420769712E+02  0.11198953841E+03  0.78258551503E+02 0.  0.
        254    2    1    2    0    0  0.23088830900E+02  0.34680830282E+02  0.16434020237E+03  0.89369070078E+03  0.87746197208E+03 0.  0.
         23    2    4    4    0    0 -0.19684815113E+03  0.29736616833E+03  0.33762087027E+03  0.49857487967E+03  0.86100092456E+02 0.  0.
         23    2    4    4    0    0  0.21993698203E+03 -0.26268533805E+03 -0.17328066790E+03  0.39511582112E+03  0.93351268536E+02 0.  0.
          3    1    3    3  502    0 -0.18146720121E+02 -0.49934102612E+02 -0.13558181882E+02  0.54831946443E+02  0.00000000000E+00 0. -1.
         -4    1    3    3    0  502 -0.49421107789E+01  0.15253272330E+02 -0.54862587830E+02  0.57157591964E+02  0.00000000000E+00 0.  1.
         13    1    5    5    0    0 -0.10957600816E+03  0.18460444635E+03  0.25666050443E+03  0.33460471860E+03  0.00000000000E+00 0.  1.
        -13    1    5    5    0    0 -0.87272142971E+02  0.11276172198E+03  0.80960365841E+02  0.16397016106E+03  0.00000000000E+00 0. -1.
          4    1    6    6  503    0  0.11177981220E+03 -0.69808230427E+02 -0.43857651950E+02  0.13889351707E+03  0.00000000000E+00 0. -1.
         -4    1    6    6    0  503  0.10815716983E+03 -0.19287710762E+03 -0.12942301595E+03  0.25622230404E+03  0.00000000000E+00 0.  1.
<mgrwt>
<rscale>  0 0.10010955E+04</rscale>
<asrwt>0</asrwt>
<pdfrwt beam="1">  1        1 0.84738436E-01 0.10010955E+04</pdfrwt>
<pdfrwt beam="2">  1       -2 0.69981600E-01 0.10010955E+04</pdfrwt>
<totfact> 0.63201283E+01</totfact>
</mgrwt>
</event>
<event>
12    5  0.5029243E-008  0.2100431E+04  0.7818608E-02  0.8561053E-01
         -2   -1    0    0    0  501 -0.00000000000E+00  0.00000000000E+00  0.13107227163E+04  0.13107227163E+04  0.00000000000E+00 0.  1.
          1   -1    0    0  501    0  0.00000000000E+00 -0.00000000000E+00 -0.84148468895E+03  0.84148468895E+03  0.00000000000E+00 0. -1.
        -24    2    1    2    0    0  0.10057101540E+03 -0.82906927228E+03  0.30235590562E+03  0.89227444778E+03  0.85230329804E+02 0.  0.
        254    2    1    2    0    0 -0.10057101540E+03  0.82906927228E+03  0.16688212176E+03  0.12599329575E+04  0.92849934166E+03 0.  0.
         23    2    4    4    0    0 -0.23555890147E+03 -0.10063841731E+03  0.16062800327E+03  0.31615214880E+03  0.92383649299E+02 0.  0.
         23    2    4    4    0    0  0.13498788607E+03  0.92970768959E+03  0.62541184960E+01  0.94378080871E+03  0.90027681408E+02 0.  0.
          1    1    3    3  502    0  0.77815097844E+02 -0.41200050153E+03  0.11698397170E+03  0.43529857839E+03  0.00000000000E+00 0. -1.
         -4    1    3    3    0  502  0.22755917552E+02 -0.41706877075E+03  0.18537193392E+03  0.45697586939E+03  0.00000000000E+00 0.  1.
         13    1    5    5    0    0 -0.93069658571E+02  0.63582036812E+01  0.43627640971E+02  0.10298426655E+03  0.00000000000E+00 0.  1.
        -13    1    5    5    0    0 -0.14248924289E+03 -0.10699662099E+03  0.11700036230E+03  0.21316788224E+03  0.00000000000E+00 0. -1.
          2    1    6    6  503    0  0.14847522160E+03  0.85029235592E+03  0.30201341140E+01  0.86316342785E+03  0.00000000000E+00 0. -1.
         -2    1    6    6    0  503 -0.13487335532E+02  0.79415333667E+02  0.32339843820E+01  0.80617380857E+02  0.00000000000E+00 0.  1.
<mgrwt>
<rscale>  0 0.21004315E+04</rscale>
<asrwt>0</asrwt>
<pdfrwt beam="1">  1        1 0.12945918E+00 0.21004315E+04</pdfrwt>
<pdfrwt beam="2">  1       -2 0.20164965E+00 0.21004315E+04</pdfrwt>
<totfact> 0.21282429E+00</totfact>
</mgrwt>
</event>
<event>
12    5  0.5029243E-008  0.1264394E+04  0.7818608E-02  0.9058287E-01
          1   -1    0    0  501    0  0.00000000000E+00  0.00000000000E+00  0.12674595377E+04  0.12674595377E+04  0.00000000000E+00 0. -1.
         -2   -1    0    0    0  501 -0.00000000000E+00 -0.00000000000E+00 -0.31533418972E+03  0.31533418972E+03  0.00000000000E+00 0.  1.
        -24    2    1    2    0    0  0.86428021399E+02  0.26477129077E+03  0.46246775578E+03  0.54567281517E+03  0.79427682736E+02 0.  0.
        254    2    1    2    0    0 -0.86428021399E+02 -0.26477129077E+03  0.48965759222E+03  0.10371209123E+04  0.87079365509E+03 0.  0.
         23    2    4    4    0    0  0.14584424081E+03  0.22510730805E+01 -0.19558292582E+03  0.26022031835E+03  0.90478302915E+02 0.  0.
         23    2    4    4    0    0 -0.23227226221E+03 -0.26702236386E+03  0.68524051804E+03  0.77690059392E+03  0.93640902820E+02 0.  0.
          3    1    3    3  502    0  0.89929919984E+02  0.26928262478E+03  0.45266116755E+03  0.53432448486E+03  0.00000000000E+00 0. -1.
         -4    1    3    3    0  502 -0.35018985841E+01 -0.45113340045E+01  0.98065882297E+01  0.11348330313E+02  0.00000000000E+00 0.  1.
         13    1    5    5    0    0  0.38949945109E+02  0.41249550598E+02 -0.51468168726E+02  0.76600235251E+02  0.00000000000E+00 0. -1.
        -13    1    5    5    0    0  0.10689429571E+03 -0.38998477517E+02 -0.14411475710E+03  0.18362008310E+03  0.00000000000E+00 0.  1.
          1    1    6    6  503    0 -0.51588783492E+02 -0.33255725849E+02  0.62357193365E+02  0.87497231089E+02  0.00000000000E+00 0. -1.
         -1    1    6    6    0  503 -0.18068347872E+03 -0.23376663801E+03  0.62288332467E+03  0.68940336283E+03  0.00000000000E+00 0.  1.
<mgrwt>
<rscale>  0 0.12643944E+04</rscale>
<asrwt>0</asrwt>
<pdfrwt beam="1">  1        1 0.19499377E+00 0.12643944E+04</pdfrwt>
<pdfrwt beam="2">  1       -2 0.48512953E-01 0.12643944E+04</pdfrwt>
<totfact> 0.33189250E+01</totfact>
</mgrwt>
</event>
<event>
12    5  0.5029243E-008  0.1407995E+04  0.7818608E-02  0.8948051E-01
          1   -1    0    0  501    0  0.00000000000E+00  0.00000000000E+00  0.24398510085E+04  0.24398510085E+04  0.00000000000E+00 0. -1.
         -2   -1    0    0    0  501 -0.00000000000E+00 -0.00000000000E+00 -0.20313236191E+03  0.20313236191E+03  0.00000000000E+00 0.  1.
        -24    2    1    2    0    0  0.22810130551E+03 -0.33904288222E+03  0.61419571920E+03  0.74203450767E+03  0.79990921550E+02 0.  0.
        254    2    1    2    0    0 -0.22810130551E+03  0.33904288222E+03  0.16225229274E+04  0.19009488627E+04  0.90224478237E+03 0.  0.
         23    2    4    4    0    0 -0.30951973520E+03  0.43347622772E+03  0.16576183311E+04  0.17434229163E+04  0.90115632586E+02 0.  0.
         23    2    4    4    0    0  0.81418429689E+02 -0.94433345503E+02 -0.35095403716E+02  0.15752594638E+03  0.89644402968E+02 0.  0.
          3    1    3    3  502    0  0.94846594948E+02 -0.15548504706E+03  0.34409869051E+03  0.38932683602E+03  0.00000000000E+00 0. -1.
         -4    1    3    3    0  502  0.13325471056E+03 -0.18355783516E+03  0.27009702869E+03  0.35270767165E+03  0.00000000000E+00 0.  1.
         13    1    5    5    0    0 -0.74606272910E+02  0.54480421325E+02  0.34408003766E+03  0.35626574995E+03  0.00000000000E+00 0. -1.
        -13    1    5    5    0    0 -0.23491346229E+03  0.37899580640E+03  0.13135382934E+04  0.13871571664E+04  0.00000000000E+00 0.  1.
          1    1    6    6  503    0  0.10038134306E+03 -0.75963857756E+02 -0.21293168757E+02  0.12767270952E+03  0.00000000000E+00 0.  1.
         -1    1    6    6    0  503 -0.18962913370E+02 -0.18469487747E+02 -0.13802234959E+02  0.29853236860E+02  0.00000000000E+00 0. -1.
<mgrwt>
<rscale>  0 0.14079953E+04</rscale>
<asrwt>0</asrwt>
<pdfrwt beam="1">  1        1 0.37536167E+00 0.14079953E+04</pdfrwt>
<pdfrwt beam="2">  1       -2 0.31251134E-01 0.14079953E+04</pdfrwt>
<totfact> 0.12155452E+01</totfact>
</mgrwt>
</event>
<event>
12    5  0.5029243E-008  0.1103000E+04  0.7818608E-02  0.9202273E-01
          1   -1    0    0  501    0  0.00000000000E+00  0.00000000000E+00  0.32734929188E+03  0.32734929188E+03  0.00000000000E+00 0. -1.
         -2   -1    0    0    0  501 -0.00000000000E+00 -0.00000000000E+00 -0.92913604307E+03  0.92913604307E+03  0.00000000000E+00 0.  1.
        -24    2    1    2    0    0 -0.93714340522E+02 -0.12572941979E+03 -0.19412679909E+03  0.26194597037E+03  0.79625452273E+02 0.  0.
        254    2    1    2    0    0  0.93714340522E+02  0.12572941979E+03 -0.40765995209E+03  0.99453936458E+03  0.89349406631E+03 0.  0.
         23    2    4    4    0    0 -0.20400564074E+03  0.11036089093E+03 -0.58404691502E+03  0.63511060202E+03  0.91961133920E+02 0.  0.
         23    2    4    4    0    0  0.29771998127E+03  0.15368528858E+02  0.17638696292E+03  0.35942876256E+03  0.95933809162E+02 0.  0.
          3    1    3    3  502    0 -0.67069648602E+02 -0.11798698582E+03 -0.19059102443E+03  0.23397479604E+03  0.00000000000E+00 0. -1.
         -4    1    3    3    0  502 -0.26644691921E+02 -0.77424339684E+01 -0.35357746584E+01  0.27971174336E+02  0.00000000000E+00 0.  1.
         13    1    5    5    0    0 -0.16120374538E+03  0.44798080278E+02 -0.44681710194E+03  0.47711532998E+03  0.00000000000E+00 0. -1.
        -13    1    5    5    0    0 -0.42801895365E+02  0.65562810652E+02 -0.13722981308E+03  0.15799527204E+03  0.00000000000E+00 0.  1.
          2    1    6    6  503    0  0.77646635508E+02  0.44019845661E+02  0.69366041080E+02  0.11304156082E+03  0.00000000000E+00 0. -1.
         -2    1    6    6    0  503  0.22007334576E+03 -0.28651316803E+02  0.10702092184E+03  0.24638720174E+03  0.00000000000E+00 0.  1.
<mgrwt>
<rscale>  0 0.11029996E+04</rscale>
<asrwt>0</asrwt>
<pdfrwt beam="1">  1        1 0.50361430E-01 0.11029996E+04</pdfrwt>
<pdfrwt beam="2">  1       -2 0.14294400E+00 0.11029996E+04</pdfrwt>
<totfact> 0.23115106E+01</totfact>
</mgrwt>
</event>
<event>
12    5  0.5029243E-008  0.1370819E+04  0.7818608E-02  0.8975216E-01
          1   -1    0    0  501    0  0.00000000000E+00  0.00000000000E+00  0.35667833016E+03  0.35667833016E+03  0.00000000000E+00 0. -1.
         -2   -1    0    0    0  501 -0.00000000000E+00 -0.00000000000E+00 -0.13171140680E+04  0.13171140680E+04  0.00000000000E+00 0.  1.
        -24    2    1    2    0    0 -0.15664436054E+02 -0.30189309820E+03 -0.56969185748E+03  0.64985433611E+03  0.79856298380E+02 0.  0.
        254    2    1    2    0    0  0.15664436054E+02  0.30189309820E+03 -0.39074388034E+03  0.10239380620E+04  0.89687432651E+03 0.  0.
         23    2    4    4    0    0  0.40615708037E+03 -0.69248141337E+01 -0.29209414461E+03  0.50811573591E+03  0.88606347321E+02 0.  0.
         23    2    4    4    0    0 -0.39049264431E+03  0.30881791233E+03 -0.98649735729E+02  0.51582232612E+03  0.92129764597E+02 0.  0.
          3    1    3    3  502    0 -0.69175740452E+01 -0.21846526330E+03 -0.32922387041E+03  0.39517500040E+03  0.00000000000E+00 0. -1.
         -4    1    3    3    0  502 -0.87468620093E+01 -0.83427834902E+02 -0.24046798707E+03  0.25467933571E+03  0.00000000000E+00 0.  1.
         13    1    5    5    0    0  0.37243079513E+03 -0.17044048204E+02 -0.23396384245E+03  0.44015256028E+03  0.00000000000E+00 0. -1.
        -13    1    5    5    0    0  0.33726285231E+02  0.10119234070E+02 -0.58130302156E+02  0.67963175636E+02  0.00000000000E+00 0.  1.
          2    1    6    6  503    0 -0.36537606307E+03  0.29729246001E+03 -0.11339374412E+03  0.48450037714E+03  0.00000000000E+00 0. -1.
         -2    1    6    6    0  503 -0.25116581239E+02  0.11525452326E+02  0.14744008390E+02  0.31321948979E+02  0.00000000000E+00 0.  1.
<mgrwt>
<rscale>  0 0.13708188E+04</rscale>
<asrwt>0</asrwt>
<pdfrwt beam="1">  1        1 0.54873588E-01 0.13708188E+04</pdfrwt>
<pdfrwt beam="2">  1       -2 0.20263294E+00 0.13708188E+04</pdfrwt>
<totfact> 0.76159056E+00</totfact>
</mgrwt>
</event>
<event>
12    5  0.5029243E-008  0.1165651E+04  0.7818608E-02  0.9143465E-01
          1   -1    0    0  501    0  0.00000000000E+00  0.00000000000E+00  0.70688040915E+03  0.70688040915E+03  0.00000000000E+00 0. -1.
         -2   -1    0    0    0  501 -0.00000000000E+00 -0.00000000000E+00 -0.48054172107E+03  0.48054172107E+03  0.00000000000E+00 0.  1.
        -24    2    1    2    0    0  0.16782016687E+03 -0.13423574136E+03  0.10869124981E+03  0.25355527077E+03  0.79332495757E+02 0.  0.
        254    2    1    2    0    0 -0.16782016687E+03  0.13423574136E+03  0.11764743826E+03  0.93386685945E+03  0.90115678369E+03 0.  0.
         23    2    4    4    0    0 -0.60945849827E+02  0.34895997842E+03  0.40618477959E+03  0.54649697335E+03  0.90473220157E+02 0.  0.
         23    2    4    4    0    0 -0.10687431704E+03 -0.21472423706E+03 -0.28853734133E+03  0.38736988610E+03  0.96296488486E+02 0.  0.
          3    1    3    3  502    0  0.68310055707E+02 -0.31868475421E+02  0.76113963266E+02  0.10712235453E+03  0.00000000000E+00 0. -1.
         -4    1    3    3    0  502  0.99510111163E+02 -0.10236726594E+03  0.32577286548E+02  0.14643291624E+03  0.00000000000E+00 0.  1.
         13    1    5    5    0    0  0.87262929355E+01  0.22390522147E+02  0.50301295667E+01  0.24551697983E+02  0.00000000000E+00 0.  1.
        -13    1    5    5    0    0 -0.69672142763E+02  0.32656945627E+03  0.40115465002E+03  0.52194527537E+03  0.00000000000E+00 0. -1.
          3    1    6    6  503    0 -0.95321821481E+02 -0.19259449256E+03 -0.19371697161E+03  0.28931842891E+03  0.00000000000E+00 0. -1.
         -3    1    6    6    0  503 -0.11552495560E+02 -0.22129744502E+02 -0.94820369714E+02  0.98051457195E+02  0.00000000000E+00 0.  1.
<mgrwt>
<rscale>  0 0.11656509E+04</rscale>
<asrwt>0</asrwt>
<pdfrwt beam="1">  1        1 0.10875083E+00 0.11656509E+04</pdfrwt>
<pdfrwt beam="2">  1       -2 0.73929496E-01 0.11656509E+04</pdfrwt>
<totfact> 0.38455572E+01</totfact>
</mgrwt>
</event>
<event>
12    5  0.5029243E-008  0.1615611E+04  0.7818608E-02  0.8811015E-01
          1   -1    0    0  501    0  0.00000000000E+00  0.00000000000E+00  0.20161985013E+04  0.20161985013E+04  0.00000000000E+00 0. -1.
         -2   -1    0    0    0  501 -0.00000000000E+00 -0.00000000000E+00 -0.32365355579E+03  0.32365355579E+03  0.00000000000E+00 0.  1.
        -24    2    1    2    0    0 -0.27966816309E+03  0.44323724051E+03  0.75716752213E+03  0.92392564150E+03  0.75248931099E+02 0.  0.
        254    2    1    2    0    0  0.27966816309E+03 -0.44323724051E+03  0.93537742343E+03  0.14159264156E+04  0.92479357557E+03 0.  0.
         23    2    4    4    0    0 -0.21636884797E+03 -0.30896200837E+03  0.78014560977E+03  0.87135954832E+03  0.91472886817E+02 0.  0.
         23    2    4    4    0    0  0.49603701106E+03 -0.13427523214E+03  0.15523181366E+03  0.54456686731E+03  0.91507391450E+02 0.  0.
          1    1    3    3  502    0 -0.10269834910E+03  0.21170334629E+03  0.38540533127E+03  0.45155567443E+03  0.00000000000E+00 0. -1.
         -2    1    3    3    0  502 -0.17696981399E+03  0.23153389422E+03  0.37176219086E+03  0.47236996707E+03  0.00000000000E+00 0.  1.
         13    1    5    5    0    0 -0.19535638311E+03 -0.27339534372E+03  0.61162671682E+03  0.69785125286E+03  0.00000000000E+00 0.  1.
        -13    1    5    5    0    0 -0.21012464867E+02 -0.35566664649E+02  0.16851889295E+03  0.17350829547E+03  0.00000000000E+00 0. -1.
          4    1    6    6  503    0  0.64766945348E+02 -0.25933634745E+02 -0.94046254905E+01  0.70397141997E+02  0.00000000000E+00 0. -1.
         -4    1    6    6    0  503  0.43127006571E+03 -0.10834159740E+03  0.16463643915E+03  0.47416972531E+03  0.00000000000E+00 0.  1.
<mgrwt>
<rscale>  0 0.16156111E+04</rscale>
<asrwt>0</asrwt>
<pdfrwt beam="1">  1        1 0.31018438E+00 0.16156111E+04</pdfrwt>
<pdfrwt beam="2">  1       -2 0.49792856E-01 0.16156111E+04</pdfrwt>
<totfact> 0.93334744E+00</totfact>
</mgrwt>
</event>
<event>
12    5  0.5029243E-008  0.1898646E+04  0.7818608E-02  0.8655531E-01
         -4   -1    0    0    0  501 -0.00000000000E+00  0.00000000000E+00  0.72187660859E+03  0.72187660859E+03  0.00000000000E+00 0.  1.
          3   -1    0    0  501    0  0.00000000000E+00 -0.00000000000E+00 -0.12484322787E+04  0.12484322787E+04  0.00000000000E+00 0. -1.
        -24    2    1    2    0    0  0.14646322379E+03  0.29292685099E+03  0.47973875775E+03  0.58621782877E+03  0.79021839538E+02 0.  0.
        254    2    1    2    0    0 -0.14646322379E+03 -0.29292685099E+03 -0.10062944278E+04  0.13840910585E+04  0.89208854201E+03 0.  0.
         23    2    4    4    0    0 -0.30625831161E+03 -0.37914700927E+03 -0.17095089621E+03  0.52441088098E+03  0.90752163086E+02 0.  0.
         23    2    4    4    0    0  0.15979508782E+03  0.86220158276E+02 -0.83534353162E+03  0.85968017752E+03  0.91009922630E+02 0.  0.
          3    1    3    3  502    0  0.58221279813E+02  0.46662438930E+02  0.91403764769E+02  0.11799046082E+03  0.00000000000E+00 0. -1.
         -4    1    3    3    0  502  0.88241943976E+02  0.24626441206E+03  0.38833499298E+03  0.46822736795E+03  0.00000000000E+00 0.  1.
         13    1    5    5    0    0 -0.62803331593E+02 -0.44704818237E+02 -0.74104524492E+00  0.77092985289E+02  0.00000000000E+00 0. -1.
        -13    1    5    5    0    0 -0.24345498002E+03 -0.33444219103E+03 -0.17020985096E+03  0.44731789569E+03  0.00000000000E+00 0.  1.
          4    1    6    6  503    0  0.12051261635E+03  0.64708258329E+02 -0.75851926779E+03  0.77075413006E+03  0.00000000000E+00 0.  1.
         -4    1    6    6    0  503  0.39282471467E+02  0.21511899946E+02 -0.76824263833E+02  0.88926047462E+02  0.00000000000E+00 0. -1.
<mgrwt>
<rscale>  0 0.18986459E+04</rscale>
<asrwt>0</asrwt>
<pdfrwt beam="1">  1        3 0.19206650E+00 0.18986459E+04</pdfrwt>
<pdfrwt beam="2">  1       -4 0.11105794E+00 0.18986459E+04</pdfrwt>
<totfact> 0.22745107E-01</totfact>
</mgrwt>
</event>
<event>
12    5  0.5029243E-008  0.2279403E+04  0.7818608E-02  0.8486087E-01
         -2   -1    0    0    0  501 -0.00000000000E+00  0.00000000000E+00  0.39739643344E+03  0.39739643344E+03  0.00000000000E+00 0.  1.
          1   -1    0    0  501    0  0.00000000000E+00 -0.00000000000E+00 -0.32685738478E+04  0.32685738478E+04  0.00000000000E+00 0. -1.
        -24    2    1    2    0    0 -0.69971449900E+03 -0.39539938341E+02 -0.16558898449E+03  0.72414969722E+03  0.76218668144E+02 0.  0.
        254    2    1    2    0    0  0.69971449900E+03  0.39539938341E+02 -0.27055884298E+04  0.29418205840E+04  0.91811535759E+03 0.  0.
         23    2    4    4    0    0 -0.96076317142E+02 -0.21223719176E+03 -0.11193964767E+04  0.11468876237E+04  0.89596121847E+02 0.  0.
         23    2    4    4    0    0  0.79579081614E+03  0.25177713010E+03 -0.15861919532E+04  0.17949329603E+04  0.95418412533E+02 0.  0.
          3    1    3    3  502    0 -0.57969311926E+01 -0.13465294491E+01 -0.10527548265E+02  0.12093255363E+02  0.00000000000E+00 0. -1.
         -4    1    3    3    0  502 -0.69391756780E+03 -0.38193408891E+02 -0.15506143623E+03  0.71205644186E+03  0.00000000000E+00 0.  1.
         13    1    5    5    0    0 -0.10744884609E+03 -0.19461873404E+03 -0.92391090001E+03  0.95028051507E+03  0.00000000000E+00 0.  1.
        -13    1    5    5    0    0  0.11372528952E+02 -0.17618457720E+02 -0.19548557665E+03  0.19660710858E+03  0.00000000000E+00 0. -1.
          3    1    6    6  503    0  0.85219914406E+02  0.34402499869E+02 -0.11955372344E+03  0.15079475653E+03  0.00000000000E+00 0. -1.
         -3    1    6    6    0  503  0.71057090173E+03  0.21737463023E+03 -0.14666382297E+04  0.16441382038E+04  0.00000000000E+00 0.  1.
<mgrwt>
<rscale>  0 0.22794031E+04</rscale>
<asrwt>0</asrwt>
<pdfrwt beam="1">  1        1 0.50285752E+00 0.22794031E+04</pdfrwt>
<pdfrwt beam="2">  1       -2 0.61137913E-01 0.22794031E+04</pdfrwt>
<totfact> 0.74841862E-01</totfact>
</mgrwt>
</event>
<event>
12    5  0.5029243E-008  0.2168892E+04  0.7818608E-02  0.8531489E-01
          1   -1    0    0  501    0  0.00000000000E+00  0.00000000000E+00  0.42428499619E+04  0.42428499619E+04  0.00000000000E+00 0. -1.
         -2   -1    0    0    0  501 -0.00000000000E+00 -0.00000000000E+00 -0.27717762897E+03  0.27717762897E+03  0.00000000000E+00 0.  1.
        -24    2    1    2    0    0  0.17903576334E+03 -0.72090009149E+03  0.60201234344E+03  0.95970156106E+03  0.82809891841E+02 0.  0.
        254    2    1    2    0    0 -0.17903576334E+03  0.72090009149E+03  0.33636599895E+04  0.35603260298E+04  0.89997898149E+03 0.  0.
         23    2    4    4    0    0  0.28377721430E+03  0.60924806164E+03  0.21104455857E+04  0.22165889848E+04  0.87025566096E+02 0.  0.
         23    2    4    4    0    0 -0.46281297764E+03  0.11165202985E+03  0.12532144038E+04  0.13437370450E+04  0.91765332947E+02 0.  0.
          1    1    3    3  502    0  0.10158656742E+03 -0.32139316098E+03  0.31844341063E+03  0.46370205992E+03  0.00000000000E+00 0. -1.
         -2    1    3    3    0  502  0.77449195925E+02 -0.39950693051E+03  0.28356893281E+03  0.49599950113E+03  0.00000000000E+00 0.  1.
         13    1    5    5    0    0  0.20895501279E+03  0.40458884031E+03  0.15411190575E+04  0.16069854624E+04  0.00000000000E+00 0.  1.
        -13    1    5    5    0    0  0.74822201510E+02  0.20465922133E+03  0.56932652821E+03  0.60960352233E+03  0.00000000000E+00 0. -1.
          1    1    6    6  503    0 -0.31557616776E+02  0.57714541654E+01  0.36897610259E+02  0.48894033404E+02  0.00000000000E+00 0. -1.
         -1    1    6    6    0  503 -0.43125536087E+03  0.10588057569E+03  0.12163167935E+04  0.12948430116E+04  0.00000000000E+00 0.  1.
<mgrwt>
<rscale>  0 0.21688920E+04</rscale>
<asrwt>0</asrwt>
<pdfrwt beam="1">  1        1 0.65274610E+00 0.21688920E+04</pdfrwt>
<pdfrwt beam="2">  1       -2 0.42642715E-01 0.21688920E+04</pdfrwt>
<totfact> 0.24341553E-01</totfact>
</mgrwt>
</event>
<event>
12    5  0.5029243E-008  0.3503098E+04  0.7818608E-02  0.8113056E-01
         -2   -1    0    0    0  501 -0.00000000000E+00  0.00000000000E+00  0.13764879483E+04  0.13764879483E+04  0.00000000000E+00 0.  1.
          1   -1    0    0  501    0  0.00000000000E+00 -0.00000000000E+00 -0.22288048586E+04  0.22288048586E+04  0.00000000000E+00 0. -1.
        -24    2    1    2    0    0  0.34568671764E+03 -0.75457545914E+02 -0.20408420508E+04  0.20728488088E+04  0.80453462550E+02 0.  0.
        254    2    1    2    0    0 -0.34568671764E+03  0.75457545914E+02  0.11885251404E+04  0.15324439982E+04  0.90033296623E+03 0.  0.
         23    2    4    4    0    0 -0.49292775085E+03 -0.12614313871E+03  0.11539043403E+04  0.12643548319E+04  0.90598318519E+02 0.  0.
         23    2    4    4    0    0  0.14724103321E+03  0.20160068462E+03  0.34620800118E+02  0.26808916628E+03  0.91380760412E+02 0.  0.
          3    1    3    3  502    0  0.30776440085E+03 -0.59026370747E+02 -0.19128559698E+04  0.19383552307E+04  0.00000000000E+00 0. -1.
         -4    1    3    3    0  502  0.37922316791E+02 -0.16431175168E+02 -0.12798608096E+03  0.13449357809E+03  0.00000000000E+00 0.  1.
         13    1    5    5    0    0 -0.33013064635E+03 -0.87720665912E+02  0.87259887972E+03  0.93707521778E+03  0.00000000000E+00 0. -1.
        -13    1    5    5    0    0 -0.16279710451E+03 -0.38422472798E+02  0.28130546058E+03  0.32727961410E+03  0.00000000000E+00 0.  1.
          2    1    6    6  503    0  0.63934083377E+02  0.12780101866E+03 -0.19688449097E+02  0.14425083160E+03  0.00000000000E+00 0. -1.
         -2    1    6    6    0  503  0.83306949833E+02  0.73799665962E+02  0.54309249215E+02  0.12383833468E+03  0.00000000000E+00 0.  1.
<mgrwt>
<rscale>  0 0.35030975E+04</rscale>
<asrwt>0</asrwt>
<pdfrwt beam="1">  1        1 0.34289305E+00 0.35030975E+04</pdfrwt>
<pdfrwt beam="2">  1       -2 0.21176738E+00 0.35030975E+04</pdfrwt>
<totfact> 0.16662190E-01</totfact>
</mgrwt>
</event>
<event>
12    5  0.5029243E-008  0.1296820E+04  0.7818608E-02  0.9032091E-01
          1   -1    0    0  501    0  0.00000000000E+00  0.00000000000E+00  0.11912369449E+04  0.11912369449E+04  0.00000000000E+00 0. -1.
         -4   -1    0    0    0  501 -0.00000000000E+00 -0.00000000000E+00 -0.35294029211E+03  0.35294029211E+03  0.00000000000E+00 0.  1.
        -24    2    1    2    0    0 -0.50529204174E+01 -0.11729752044E+03  0.60981259931E+03  0.62592551663E+03  0.78275831412E+02 0.  0.
        254    2    1    2    0    0  0.50529204174E+01  0.11729752044E+03  0.22848405348E+03  0.91825172039E+03  0.88158778292E+03 0.  0.
         23    2    4    4    0    0  0.16955255812E+03 -0.31810711917E+03 -0.35769604098E+02  0.37524093834E+03  0.97908569568E+02 0.  0.
         23    2    4    4    0    0 -0.16449963770E+03  0.43540463961E+03  0.26425365758E+03  0.54301078205E+03  0.91615407466E+02 0.  0.
          1    1    3    3  502    0 -0.16632031780E+02 -0.80925008934E+02  0.54067486188E+03  0.54695044366E+03  0.00000000000E+00 0. -1.
         -2    1    3    3    0  502  0.11579111362E+02 -0.36372511507E+02  0.69137737430E+02  0.78975072968E+02  0.00000000000E+00 0.  1.
         13    1    5    5    0    0  0.10078340168E+03 -0.27214738103E+03 -0.18895086444E+02  0.29082385622E+03  0.00000000000E+00 0. -1.
        -13    1    5    5    0    0  0.68769156435E+02 -0.45959738143E+02 -0.16874517654E+02  0.84417082116E+02  0.00000000000E+00 0.  1.
          3    1    6    6  503    0 -0.10456482064E+03  0.33532120537E+03  0.15773230915E+03  0.38503713306E+03  0.00000000000E+00 0. -1.
         -3    1    6    6    0  503 -0.59934817059E+02  0.10008343424E+03  0.10652134843E+03  0.15797364899E+03  0.00000000000E+00 0.  1.
<mgrwt>
<rscale>  0 0.12968200E+04</rscale>
<asrwt>0</asrwt>
<pdfrwt beam="1">  1        1 0.18326722E+00 0.12968200E+04</pdfrwt>
<pdfrwt beam="2">  1       -4 0.54298507E-01 0.12968200E+04</pdfrwt>
<totfact> 0.16917905E+01</totfact>
</mgrwt>
</event>
<event>
12    5  0.5029243E-008  0.1321769E+04  0.7818608E-02  0.9012478E-01
         -2   -1    0    0    0  501 -0.00000000000E+00  0.00000000000E+00  0.22728776814E+03  0.22728776814E+03  0.00000000000E+00 0.  1.
          1   -1    0    0  501    0  0.00000000000E+00 -0.00000000000E+00 -0.19216530180E+04  0.19216530180E+04  0.00000000000E+00 0. -1.
        -24    2    1    2    0    0 -0.11599798116E+03 -0.33379668392E+03 -0.49621658408E+03  0.61430617499E+03  0.79154409158E+02 0.  0.
        254    2    1    2    0    0  0.11599798116E+03  0.33379668392E+03 -0.11981486658E+04  0.15346346112E+04  0.89144119639E+03 0.  0.
         23    2    4    4    0    0  0.46459076702E+03  0.76561292360E+02 -0.41182603365E+03  0.63229357746E+03  0.92131828488E+02 0.  0.
         23    2    4    4    0    0 -0.34859278586E+03  0.25723539156E+03 -0.78632263214E+03  0.90234103370E+03  0.90714289228E+02 0.  0.
          3    1    3    3  502    0 -0.72320947168E+02 -0.12165924667E+03 -0.24187758022E+03  0.28024285096E+03  0.00000000000E+00 0. -1.
         -4    1    3    3    0  502 -0.43677033990E+02 -0.21213743725E+03 -0.25433900386E+03  0.33406332403E+03  0.00000000000E+00 0.  1.
         13    1    5    5    0    0  0.31197002282E+03  0.42386122437E+02 -0.21661547324E+03  0.38215722126E+03  0.00000000000E+00 0. -1.
        -13    1    5    5    0    0  0.15262074420E+03  0.34175169923E+02 -0.19521056041E+03  0.25013635620E+03  0.00000000000E+00 0.  1.
          3    1    6    6  503    0 -0.16057792625E+03  0.10756932952E+03 -0.44241476895E+03  0.48279111305E+03  0.00000000000E+00 0. -1.
         -3    1    6    6    0  503 -0.18801485961E+03  0.14966606204E+03 -0.34390786318E+03  0.41954992065E+03  0.00000000000E+00 0.  1.
<mgrwt>
<rscale>  0 0.13217689E+04</rscale>
<asrwt>0</asrwt>
<pdfrwt beam="1">  1        1 0.29563893E+00 0.13217689E+04</pdfrwt>
<pdfrwt beam="2">  1       -2 0.34967348E-01 0.13217689E+04</pdfrwt>
<totfact> 0.22277538E+01</totfact>
</mgrwt>
</event>
<event>
12    5  0.5029243E-008  0.2248141E+04  0.7818608E-02  0.8498654E-01
          3   -1    0    0  501    0  0.00000000000E+00  0.00000000000E+00  0.85862995669E+03  0.85862995669E+03  0.00000000000E+00 0. -1.
         -4   -1    0    0    0  501 -0.00000000000E+00 -0.00000000000E+00 -0.14715706826E+04  0.14715706826E+04  0.00000000000E+00 0.  1.
        -24    2    1    2    0    0  0.14006978247E+03 -0.54212005280E+02  0.70598782949E+03  0.72597598201E+03  0.77870569442E+02 0.  0.
        254    2    1    2    0    0 -0.14006978247E+03  0.54212005280E+02 -0.13189285554E+04  0.16042246573E+04  0.90078062331E+03 0.  0.
         23    2    4    4    0    0 -0.14813888383E+02 -0.73959544822E+02 -0.13869102663E+04  0.13919589812E+04  0.91324986175E+02 0.  0.
         23    2    4    4    0    0 -0.12525589409E+03  0.12817155010E+03  0.67981710850E+02  0.21226567610E+03  0.91204270640E+02 0.  0.
          3    1    3    3  502    0  0.66463477443E+02 -0.46375037889E+02  0.51144916168E+03  0.51783036118E+03  0.00000000000E+00 0. -1.
         -4    1    3    3    0  502  0.73606305026E+02 -0.78369673909E+01  0.19453866781E+03  0.20814562083E+03  0.00000000000E+00 0.  1.
         13    1    5    5    0    0 -0.31220374586E+02 -0.59676871499E+02 -0.13174935246E+04  0.13192138675E+04  0.00000000000E+00 0. -1.
        -13    1    5    5    0    0  0.16406486204E+02 -0.14282673323E+02 -0.69416741716E+02  0.72745113769E+02  0.00000000000E+00 0.  1.
          3    1    6    6  503    0 -0.85315223724E+02  0.77868375863E+02  0.87751901550E+02  0.14506056523E+03  0.00000000000E+00 0. -1.
         -3    1    6    6    0  503 -0.39940670362E+02  0.50303174240E+02 -0.19770190700E+02  0.67205110876E+02  0.00000000000E+00 0.  1.
<mgrwt>
<rscale>  0 0.22481412E+04</rscale>
<asrwt>0</asrwt>
<pdfrwt beam="1">  1        3 0.13209692E+00 0.22481412E+04</pdfrwt>
<pdfrwt beam="2">  1       -4 0.22639549E+00 0.22481412E+04</pdfrwt>
<totfact> 0.82469013E-02</totfact>
</mgrwt>
</event>
<event>
12    5  0.5029243E-008  0.2043591E+04  0.7818608E-02  0.8586507E-01
         -2   -1    0    0    0  501 -0.00000000000E+00  0.00000000000E+00  0.44765250058E+03  0.44765250058E+03  0.00000000000E+00 0.  1.
          1   -1    0    0  501    0  0.00000000000E+00 -0.00000000000E+00 -0.23323129696E+04  0.23323129696E+04  0.00000000000E+00 0. -1.
        -24    2    1    2    0    0  0.43938954723E+03 -0.96253737956E+02 -0.16910635534E+04  0.17516666800E+04  0.79449730892E+02 0.  0.
        254    2    1    2    0    0 -0.43938954723E+03  0.96253737956E+02 -0.19359691560E+03  0.10282987902E+04  0.90420721072E+03 0.  0.
         23    2    4    4    0    0 -0.29535038588E+03  0.16533463363E+03  0.32504576208E+03  0.47796773983E+03  0.90724976469E+02 0.  0.
         23    2    4    4    0    0 -0.14403916135E+03 -0.69080895671E+02 -0.51864267768E+03  0.55033105037E+03  0.91403434011E+02 0.  0.
          1    1    3    3  502    0  0.28581662117E+03 -0.57727687427E+02 -0.12330601191E+04  0.12670678293E+04  0.00000000000E+00 0. -1.
         -2    1    3    3    0  502  0.15357292607E+03 -0.38526050529E+02 -0.45800343439E+03  0.48459885070E+03  0.00000000000E+00 0.  1.
         13    1    5    5    0    0 -0.26885974487E+03  0.11412000701E+03  0.28216217941E+03  0.40610889415E+03  0.00000000000E+00 0. -1.
        -13    1    5    5    0    0 -0.26490641010E+02  0.51214626621E+02  0.42883582666E+02  0.71858845686E+02  0.00000000000E+00 0.  1.
          2    1    6    6  503    0 -0.76790316629E+02 -0.19539762465E+01 -0.13728272326E+03  0.15731216373E+03  0.00000000000E+00 0. -1.
         -2    1    6    6    0  503 -0.67248844721E+02 -0.67126919425E+02 -0.38135995442E+03  0.39301888664E+03  0.00000000000E+00 0.  1.
<mgrwt>
<rscale>  0 0.20435907E+04</rscale>
<asrwt>0</asrwt>
<pdfrwt beam="1">  1        1 0.35881738E+00 0.20435907E+04</pdfrwt>
<pdfrwt beam="2">  1       -2 0.68869615E-01 0.20435907E+04</pdfrwt>
<totfact> 0.27660213E+00</totfact>
</mgrwt>
</event>
<event>
12    5  0.5029243E-008  0.1348121E+04  0.7818608E-02  0.8992252E-01
          1   -1    0    0  501    0  0.00000000000E+00  0.00000000000E+00  0.14586264289E+04  0.14586264289E+04  0.00000000000E+00 0. -1.
         -2   -1    0    0    0  501 -0.00000000000E+00 -0.00000000000E+00 -0.31149696927E+03  0.31149696927E+03  0.00000000000E+00 0.  1.
        -24    2    1    2    0    0  0.21327452581E+03 -0.15543155535E+03  0.61105693580E+03  0.67036319785E+03  0.79694708014E+02 0.  0.
        254    2    1    2    0    0 -0.21327452581E+03  0.15543155535E+03  0.53607252386E+03  0.10997602004E+04  0.92328422259E+03 0.  0.
         23    2    4    4    0    0 -0.12629330666E+03 -0.48029919236E+02 -0.23883583083E+03  0.28877135282E+03  0.89941468041E+02 0.  0.
         23    2    4    4    0    0 -0.86981219149E+02  0.20346147459E+03  0.77490835469E+03  0.81098884753E+03  0.90871604596E+02 0.  0.
          3    1    3    3  502    0  0.56167574006E+02 -0.81553261685E+02  0.27156308421E+03  0.28905404264E+03  0.00000000000E+00 0. -1.
         -4    1    3    3    0  502  0.15710695180E+03 -0.73878293669E+02  0.33949385159E+03  0.38130915521E+03  0.00000000000E+00 0.  1.
         13    1    5    5    0    0 -0.40671455606E+02  0.72749880110E+01 -0.14305131063E+03  0.14889852325E+03  0.00000000000E+00 0. -1.
        -13    1    5    5    0    0 -0.85621851054E+02 -0.55304907247E+02 -0.95784520197E+02  0.13987282957E+03  0.00000000000E+00 0.  1.
          1    1    6    6  503    0  0.44398724307E+01  0.10428966461E+02  0.57187596399E+01  0.12695669359E+02  0.00000000000E+00 0.  1.
         -1    1    6    6    0  503 -0.91421091580E+02  0.19303250813E+03  0.76918959505E+03  0.79829317817E+03  0.00000000000E+00 0. -1.
<mgrwt>
<rscale>  0 0.13481212E+04</rscale>
<asrwt>0</asrwt>
<pdfrwt beam="1">  1        1 0.22440406E+00 0.13481212E+04</pdfrwt>
<pdfrwt beam="2">  1       -2 0.47922612E-01 0.13481212E+04</pdfrwt>
<totfact> 0.24768223E+01</totfact>
</mgrwt>
</event>
<event>
12    5  0.5029243E-008  0.1243011E+04  0.7818608E-02  0.9076020E-01
         -4   -1    0    0    0  501 -0.00000000000E+00  0.00000000000E+00  0.90478055336E+03  0.90478055336E+03  0.00000000000E+00 0.  1.
          3   -1    0    0  501    0  0.00000000000E+00 -0.00000000000E+00 -0.42692023194E+03  0.42692023194E+03  0.00000000000E+00 0. -1.
        -24    2    1    2    0    0  0.26985725014E+03 -0.17203668629E+02  0.21913684564E+03  0.35736217016E+03  0.81042346170E+02 0.  0.
        254    2    1    2    0    0 -0.26985725014E+03  0.17203668629E+02  0.25872347578E+03  0.97433861514E+03  0.89959935436E+03 0.  0.
         23    2    4    4    0    0 -0.17450554986E+03 -0.31173107890E+03  0.44301408169E+03  0.57491563383E+03  0.81474271794E+02 0.  0.
         23    2    4    4    0    0 -0.95351700276E+02  0.32893474753E+03 -0.18429060591E+03  0.39942298131E+03  0.91025687000E+02 0.  0.
          1    1    3    3  502    0  0.56196261420E+02  0.91288998659E+01  0.11129758067E+02  0.58010586318E+02  0.00000000000E+00 0. -1.
         -2    1    3    3    0  502  0.21366098872E+03 -0.26332568495E+02  0.20800708757E+03  0.29935158384E+03  0.00000000000E+00 0.  1.
         13    1    5    5    0    0 -0.15535371304E+03 -0.20688945731E+03  0.33366276972E+03  0.42221898063E+03  0.00000000000E+00 0.  1.
        -13    1    5    5    0    0 -0.19151836820E+02 -0.10484162159E+03  0.10935131197E+03  0.15269665321E+03  0.00000000000E+00 0. -1.
          3    1    6    6  503    0  0.17975314058E+02  0.45862472224E+02 -0.30263856309E+02  0.57813313974E+02  0.00000000000E+00 0. -1.
         -3    1    6    6    0  503 -0.11332701433E+03  0.28307227531E+03 -0.15402674960E+03  0.34160966734E+03  0.00000000000E+00 0.  1.
<mgrwt>
<rscale>  0 0.12430111E+04</rscale>
<asrwt>0</asrwt>
<pdfrwt beam="1">  1        3 0.65680036E-01 0.12430111E+04</pdfrwt>
<pdfrwt beam="2">  1       -4 0.13919701E+00 0.12430111E+04</pdfrwt>
<totfact> 0.18280482E+00</totfact>
</mgrwt>
</event>
<event>
12    5  0.5029243E-008  0.9705000E+03  0.7818608E-02  0.9341505E-01
          1   -1    0    0  501    0  0.00000000000E+00  0.00000000000E+00  0.45685416540E+03  0.45685416540E+03  0.00000000000E+00 0. -1.
         -2   -1    0    0    0  501 -0.00000000000E+00 -0.00000000000E+00 -0.51541076844E+03  0.51541076844E+03  0.00000000000E+00 0.  1.
        -24    2    1    2    0    0 -0.48367145280E+02 -0.11577187219E+02  0.64856744922E+02  0.11463070976E+03  0.80376552876E+02 0.  0.
        254    2    1    2    0    0  0.48367145280E+02  0.11577187219E+02 -0.12341334796E+03  0.85763422407E+03  0.84724978361E+03 0.  0.
         23    2    4    4    0    0 -0.15858981559E+03 -0.27521729376E+03  0.18553623687E+03  0.37920601717E+03  0.92077249515E+02 0.  0.
         23    2    4    4    0    0  0.20695696087E+03  0.28679448097E+03 -0.30894958483E+03  0.47842820690E+03  0.91440938416E+02 0.  0.
          3    1    3    3  502    0 -0.61709147712E+02 -0.41307120827E+01  0.74297059877E+02  0.96670237405E+02  0.00000000000E+00 0. -1.
         -4    1    3    3    0  502  0.13342002432E+02 -0.74464751367E+01 -0.94403149543E+01  0.17960472357E+02  0.00000000000E+00 0.  1.
         13    1    5    5    0    0 -0.82714812521E+01 -0.54692835155E+02  0.67813365576E+02  0.87512148701E+02  0.00000000000E+00 0.  1.
        -13    1    5    5    0    0 -0.15031833434E+03 -0.22052445860E+03  0.11772287129E+03  0.29169386847E+03  0.00000000000E+00 0. -1.
          4    1    6    6  503    0  0.16439245520E+03  0.16643225623E+03 -0.16646523518E+03  0.28711539451E+03  0.00000000000E+00 0. -1.
         -4    1    6    6    0  503  0.42564505667E+02  0.12036222474E+03 -0.14248434965E+03  0.19131281238E+03  0.00000000000E+00 0.  1.
<mgrwt>
<rscale>  0 0.97049999E+03</rscale>
<asrwt>0</asrwt>
<pdfrwt beam="1">  1        1 0.70285257E-01 0.97049999E+03</pdfrwt>
<pdfrwt beam="2">  1       -2 0.79293964E-01 0.97049999E+03</pdfrwt>
<totfact> 0.62149199E+01</totfact>
</mgrwt>
</event>
<event>
12    5  0.5029243E-008  0.2343112E+04  0.7818608E-02  0.8461114E-01
          1   -1    0    0  501    0  0.00000000000E+00  0.00000000000E+00  0.10717885443E+04  0.10717885443E+04  0.00000000000E+00 0. -1.
         -2   -1    0    0    0  501 -0.00000000000E+00 -0.00000000000E+00 -0.12806099097E+04  0.12806099097E+04  0.00000000000E+00 0.  1.
        -24    2    1    2    0    0  0.80124537267E+03  0.11427507930E+03  0.49857224264E+03  0.95484775679E+03  0.90038972333E+02 0.  0.
        254    2    1    2    0    0 -0.80124537267E+03 -0.11427507930E+03 -0.70739360801E+03  0.13975506972E+04  0.89313453281E+03 0.  0.
         23    2    4    4    0    0 -0.62466589131E+03  0.17804343283E+03 -0.79759346160E+03  0.10327233335E+04  0.91952236474E+02 0.  0.
         23    2    4    4    0    0 -0.17657948135E+03 -0.29231851213E+03  0.90199853590E+02  0.36482736374E+03  0.91282889855E+02 0.  0.
          1    1    3    3  502    0  0.71594911642E+03  0.85114598524E+02  0.41484795766E+03  0.83182117078E+03  0.00000000000E+00 0. -1.
         -2    1    3    3    0  502  0.85296256247E+02  0.29160480773E+02  0.83724284978E+02  0.12302658600E+03  0.00000000000E+00 0.  1.
         13    1    5    5    0    0 -0.21226811551E+03  0.17957245825E+02 -0.23857296771E+03  0.31983945420E+03  0.00000000000E+00 0.  1.
        -13    1    5    5    0    0 -0.41239777580E+03  0.16008618700E+03 -0.55902049389E+03  0.71288387929E+03  0.00000000000E+00 0. -1.
          3    1    6    6  503    0 -0.17239296072E+03 -0.25240087766E+03  0.10324797243E+03  0.32262312342E+03  0.00000000000E+00 0. -1.
         -3    1    6    6    0  503 -0.41865206339E+01 -0.39917634462E+02 -0.13048118844E+02  0.42204240325E+02  0.00000000000E+00 0.  1.
<mgrwt>
<rscale>  0 0.23431116E+04</rscale>
<asrwt>0</asrwt>
<pdfrwt beam="1">  1        1 0.16489055E+00 0.23431116E+04</pdfrwt>
<pdfrwt beam="2">  1       -2 0.19701691E+00 0.23431116E+04</pdfrwt>
<totfact> 0.14637463E+00</totfact>
</mgrwt>
</event>
<event>
12    5  0.5029243E-008  0.1769675E+04  0.7818608E-02  0.8722594E-01
         -2   -1    0    0    0  501 -0.00000000000E+00  0.00000000000E+00  0.50606945244E+03  0.50606945244E+03  0.00000000000E+00 0.  1.
          1   -1    0    0  501    0  0.00000000000E+00 -0.00000000000E+00 -0.15470944309E+04  0.15470944309E+04  0.00000000000E+00 0. -1.
        -24    2    1    2    0    0 -0.98834454975E+02  0.24381218975E+03 -0.10869805765E+04  0.11211183096E+04  0.78529338823E+02 0.  0.
        254    2    1    2    0    0  0.98834454975E+02 -0.24381218975E+03  0.45955597959E+02  0.93204557382E+03  0.89296382980E+03 0.  0.
         23    2    4    4    0    0 -0.20784750470E+03 -0.47896560723E+03  0.72520086139E+02  0.53419322439E+03  0.86571357629E+02 0.  0.
         23    2    4    4    0    0  0.30668195968E+03  0.23515341749E+03 -0.26564488180E+02  0.39785234943E+03  0.90718607620E+02 0.  0.
          3    1    3    3  502    0 -0.50526496005E+02  0.11499358010E+03 -0.68026458703E+03  0.69176322440E+03  0.00000000000E+00 0. -1.
         -4    1    3    3    0  502 -0.48307958970E+02  0.12881860965E+03 -0.40671598944E+03  0.42935508516E+03  0.00000000000E+00 0.  1.
         13    1    5    5    0    0  0.16899735867E+01 -0.10214516967E+02  0.14005966035E+02  0.17417217119E+02  0.00000000000E+00 0.  1.
        -13    1    5    5    0    0 -0.20953747829E+03 -0.46875109027E+03  0.58514120103E+02  0.51677600727E+03  0.00000000000E+00 0. -1.
          3    1    6    6  503    0  0.15795278865E+03  0.12188868077E+03  0.31742172149E+02  0.20202351209E+03  0.00000000000E+00 0. -1.
         -3    1    6    6    0  503  0.14872917103E+03  0.11326473671E+03 -0.58306660329E+02  0.19582883735E+03  0.00000000000E+00 0.  1.
<mgrwt>
<rscale>  0 0.17696748E+04</rscale>
<asrwt>0</asrwt>
<pdfrwt beam="1">  1        1 0.23801453E+00 0.17696748E+04</pdfrwt>
<pdfrwt beam="2">  1       -2 0.77856838E-01 0.17696748E+04</pdfrwt>
<totfact> 0.74023233E+00</totfact>
</mgrwt>
</event>
<event>
12    5  0.5029243E-008  0.1624910E+04  0.7818608E-02  0.8805390E-01
         -2   -1    0    0    0  501 -0.00000000000E+00  0.00000000000E+00  0.80640932870E+03  0.80640932870E+03  0.00000000000E+00 0.  1.
          1   -1    0    0  501    0  0.00000000000E+00 -0.00000000000E+00 -0.81854559741E+03  0.81854559741E+03  0.00000000000E+00 0. -1.
        -24    2    1    2    0    0 -0.50827572065E+03  0.18747820058E+03 -0.14513958197E+03  0.56614753445E+03  0.77235021968E+02 0.  0.
        254    2    1    2    0    0  0.50827572065E+03 -0.18747820058E+03  0.13300331327E+03  0.10588073917E+04  0.89993940208E+03 0.  0.
         23    2    4    4    0    0  0.40108866334E+01 -0.10204228399E+03 -0.33294474211E+03  0.35961423768E+03  0.89674320239E+02 0.  0.
         23    2    4    4    0    0  0.50426483401E+03 -0.85435916586E+02  0.46594805538E+03  0.69919315398E+03  0.10090172250E+03 0.  0.
          1    1    3    3  502    0 -0.44830715163E+03  0.18300728680E+03 -0.11021580162E+03  0.49660697957E+03  0.00000000000E+00 0. -1.
         -2    1    3    3    0  502 -0.59968569015E+02  0.44709137742E+01 -0.34923780347E+02  0.69540554882E+02  0.00000000000E+00 0.  1.
         13    1    5    5    0    0  0.23458749619E+02 -0.64168081913E+02 -0.29426438215E+03  0.30209167859E+03  0.00000000000E+00 0. -1.
        -13    1    5    5    0    0 -0.19447862986E+02 -0.37874202080E+02 -0.38680359957E+02  0.57522559091E+02  0.00000000000E+00 0.  1.
          2    1    6    6  503    0  0.15166659418E+03 -0.72655613684E+02  0.16174032165E+03  0.23332707866E+03  0.00000000000E+00 0. -1.
         -2    1    6    6    0  503  0.35259823983E+03 -0.12780302902E+02  0.30420773372E+03  0.46586607532E+03  0.00000000000E+00 0.  1.
<mgrwt>
<rscale>  0 0.16249096E+04</rscale>
<asrwt>0</asrwt>
<pdfrwt beam="1">  1        1 0.12593009E+00 0.16249096E+04</pdfrwt>
<pdfrwt beam="2">  1       -2 0.12406297E+00 0.16249096E+04</pdfrwt>
<totfact> 0.87314517E+00</totfact>
</mgrwt>
</event>
<event>
12    5  0.5029243E-008  0.2153393E+04  0.7818608E-02  0.8538081E-01
          1   -1    0    0  501    0  0.00000000000E+00  0.00000000000E+00  0.33153393352E+04  0.33153393352E+04  0.00000000000E+00 0. -1.
         -2   -1    0    0    0  501 -0.00000000000E+00 -0.00000000000E+00 -0.34967033713E+03  0.34967033713E+03  0.00000000000E+00 0.  1.
        -24    2    1    2    0    0 -0.75418714665E+03 -0.18613751660E+03  0.48817502093E+03  0.92094794124E+03  0.79905144681E+02 0.  0.
        254    2    1    2    0    0  0.75418714665E+03  0.18613751660E+03  0.24774939771E+04  0.27440617311E+04  0.88794873161E+03 0.  0.
         23    2    4    4    0    0 -0.39061162162E+02 -0.72907013371E+02  0.12547850915E+04  0.12608937999E+04  0.92338192706E+02 0.  0.
         23    2    4    4    0    0  0.79324830882E+03  0.25904452997E+03  0.12227088857E+04  0.14831679312E+04  0.91777693847E+02 0.  0.
          3    1    3    3  502    0 -0.35991624443E+02 -0.38368587368E+01  0.54454559638E+01  0.36602889308E+02  0.00000000000E+00 0. -1.
         -4    1    3    3    0  502 -0.71819552221E+03 -0.18230065787E+03  0.48272956497E+03  0.88434505193E+03  0.00000000000E+00 0.  1.
         13    1    5    5    0    0 -0.59848711450E+02 -0.16008272563E+02  0.72995307616E+03  0.73257738598E+03  0.00000000000E+00 0. -1.
        -13    1    5    5    0    0  0.20787549288E+02 -0.56898740808E+02  0.52483201529E+03  0.52831641388E+03  0.00000000000E+00 0.  1.
          1    1    6    6  503    0  0.31801620624E+03  0.10734872675E+03  0.41389978238E+03  0.53288937540E+03  0.00000000000E+00 0.  1.
         -1    1    6    6    0  503  0.47523210258E+03  0.15169580322E+03  0.80880910328E+03  0.95027855579E+03  0.00000000000E+00 0. -1.
<mgrwt>
<rscale>  0 0.21533934E+04</rscale>
<asrwt>0</asrwt>
<pdfrwt beam="1">  1        1 0.51005218E+00 0.21533934E+04</pdfrwt>
<pdfrwt beam="2">  1       -2 0.53795439E-01 0.21533934E+04</pdfrwt>
<totfact> 0.91240045E-01</totfact>
</mgrwt>
</event>
<event>
12    5  0.5029243E-008  0.1784869E+04  0.7818608E-02  0.8714387E-01
         -2   -1    0    0    0  501 -0.00000000000E+00  0.00000000000E+00  0.81458862066E+03  0.81458862066E+03  0.00000000000E+00 0.  1.
          1   -1    0    0  501    0  0.00000000000E+00 -0.00000000000E+00 -0.97772019389E+03  0.97772019389E+03  0.00000000000E+00 0. -1.
        -24    2    1    2    0    0 -0.58059903222E+02  0.28206943727E+03 -0.69576026195E+03  0.75735063433E+03  0.81015562821E+02 0.  0.
        254    2    1    2    0    0  0.58059903222E+02 -0.28206943727E+03  0.53262868871E+03  0.10349581802E+04  0.83935153240E+03 0.  0.
         23    2    4    4    0    0 -0.16459567437E+03 -0.20314131210E+03 -0.14448787746E+03  0.31190920882E+03  0.89735606692E+02 0.  0.
         23    2    4    4    0    0  0.22265557759E+03 -0.78928125176E+02  0.67711656617E+03  0.72304897140E+03  0.92237821287E+02 0.  0.
          3    1    3    3  502    0 -0.60496204430E+02  0.15494134879E+03 -0.31978746225E+03  0.36045892045E+03  0.00000000000E+00 0. -1.
         -4    1    3    3    0  502  0.24363012084E+01  0.12712808849E+03 -0.37597279969E+03  0.39689171389E+03  0.00000000000E+00 0.  1.
         13    1    5    5    0    0 -0.19541847828E+02 -0.82949654391E+02 -0.24925441912E+02  0.88790802647E+02  0.00000000000E+00 0. -1.
        -13    1    5    5    0    0 -0.14505382654E+03 -0.12019165771E+03 -0.11956243555E+03  0.22311840617E+03  0.00000000000E+00 0.  1.
          1    1    6    6  503    0  0.20867996018E+03 -0.87172764173E+02  0.66607600154E+03  0.70342281483E+03  0.00000000000E+00 0.  1.
         -1    1    6    6    0  503  0.13975617414E+02  0.82446389970E+01  0.11040564636E+02  0.19626156572E+02  0.00000000000E+00 0. -1.
<mgrwt>
<rscale>  0 0.17848695E+04</rscale>
<asrwt>0</asrwt>
<pdfrwt beam="1">  1        1 0.15041849E+00 0.17848695E+04</pdfrwt>
<pdfrwt beam="2">  1       -2 0.12532133E+00 0.17848695E+04</pdfrwt>
<totfact> 0.62154741E+00</totfact>
</mgrwt>
</event>
<event>
12    5  0.5029243E-008  0.1459161E+04  0.7818608E-02  0.8912074E-01
          1   -1    0    0  501    0  0.00000000000E+00  0.00000000000E+00  0.13835960257E+04  0.13835960257E+04  0.00000000000E+00 0. -1.
         -2   -1    0    0    0  501 -0.00000000000E+00 -0.00000000000E+00 -0.38471336309E+03  0.38471336309E+03  0.00000000000E+00 0.  1.
        -24    2    1    2    0    0  0.19918133188E+03 -0.24317351792E+03  0.69652856087E+03  0.76840321030E+03  0.80528843906E+02 0.  0.
        254    2    1    2    0    0 -0.19918133188E+03  0.24317351792E+03  0.30235410174E+03  0.99990617850E+03  0.89977097095E+03 0.  0.
         23    2    4    4    0    0  0.13478890560E+03 -0.11313490851E+03  0.44171906258E+03  0.48412150791E+03  0.91051345852E+02 0.  0.
         23    2    4    4    0    0 -0.33397023749E+03  0.35630842642E+03 -0.13936496084E+03  0.51578467059E+03  0.90107823386E+02 0.  0.
          3    1    3    3  502    0  0.88992135423E+02 -0.16233861840E+03  0.44872069234E+03  0.48541084344E+03  0.00000000000E+00 0. -1.
         -4    1    3    3    0  502  0.11018919646E+03 -0.80834899514E+02  0.24780786853E+03  0.28299236686E+03  0.00000000000E+00 0.  1.
         13    1    5    5    0    0  0.99830415020E+02 -0.55100449097E+02  0.36183252166E+03  0.37937441266E+03  0.00000000000E+00 0.  1.
        -13    1    5    5    0    0  0.34958490585E+02 -0.58034459409E+02  0.79886540916E+02  0.10474709525E+03  0.00000000000E+00 0. -1.
          3    1    6    6  503    0 -0.97800693394E+02  0.96814877655E+02  0.16708556746E+01  0.13762589844E+03  0.00000000000E+00 0. -1.
         -3    1    6    6    0  503 -0.23616954409E+03  0.25949354877E+03 -0.14103581651E+03  0.37815877214E+03  0.00000000000E+00 0.  1.
<mgrwt>
<rscale>  0 0.14591612E+04</rscale>
<asrwt>0</asrwt>
<pdfrwt beam="1">  1        1 0.21286093E+00 0.14591612E+04</pdfrwt>
<pdfrwt beam="2">  1       -2 0.59186672E-01 0.14591612E+04</pdfrwt>
<totfact> 0.17907869E+01</totfact>
</mgrwt>
</event>
<event>
12    5  0.5029243E-008  0.1699192E+04  0.7818608E-02  0.8761825E-01
         -4   -1    0    0    0  501 -0.00000000000E+00  0.00000000000E+00  0.39890514082E+03  0.39890514082E+03  0.00000000000E+00 0.  1.
          3   -1    0    0  501    0  0.00000000000E+00 -0.00000000000E+00 -0.18094869277E+04  0.18094869277E+04  0.00000000000E+00 0. -1.
        -24    2    1    2    0    0  0.25637693545E+03 -0.16081949973E+03 -0.11879657852E+04  0.12290293234E+04  0.87511865109E+02 0.  0.
        254    2    1    2    0    0 -0.25637693545E+03  0.16081949973E+03 -0.22261600166E+03  0.97936274506E+03  0.90443433023E+03 0.  0.
         23    2    4    4    0    0 -0.55209038440E+03  0.10131865518E+03  0.38151770343E+02  0.56883326082E+03  0.83943186748E+02 0.  0.
         23    2    4    4    0    0  0.29571344896E+03  0.59500844554E+02 -0.26076777200E+03  0.41052948424E+03  0.97713008928E+02 0.  0.
          1    1    3    3  502    0  0.13029107986E+03 -0.11805033857E+03 -0.79193837861E+03  0.81122009556E+03  0.00000000000E+00 0. -1.
         -2    1    3    3    0  502  0.12608585559E+03 -0.42769161157E+02 -0.39602740658E+03  0.41780922786E+03  0.00000000000E+00 0.  1.
         13    1    5    5    0    0 -0.43021646733E+03  0.10444183637E+03  0.53596391666E+02  0.44594492838E+03  0.00000000000E+00 0. -1.
        -13    1    5    5    0    0 -0.12187391707E+03 -0.31231811917E+01 -0.15444621324E+02  0.12288833245E+03  0.00000000000E+00 0.  1.
          4    1    6    6  503    0  0.28261169918E+03  0.30501308703E+02 -0.22401658390E+03  0.36191591870E+03  0.00000000000E+00 0. -1.
         -4    1    6    6    0  503  0.13101749774E+02  0.28999535851E+02 -0.36751188108E+02  0.48613565536E+02  0.00000000000E+00 0.  1.
<mgrwt>
<rscale>  0 0.16991923E+04</rscale>
<asrwt>0</asrwt>
<pdfrwt beam="1">  1        3 0.27838260E+00 0.16991923E+04</pdfrwt>
<pdfrwt beam="2">  1       -4 0.61370022E-01 0.16991923E+04</pdfrwt>
<totfact> 0.27848327E-01</totfact>
</mgrwt>
</event>
<event>
12    5  0.5029243E-008  0.1642973E+04  0.7818608E-02  0.8794574E-01
          1   -1    0    0  501    0  0.00000000000E+00  0.00000000000E+00  0.35547792819E+04  0.35547792819E+04  0.00000000000E+00 0. -1.
         -2   -1    0    0    0  501 -0.00000000000E+00 -0.00000000000E+00 -0.18984027782E+03  0.18984027782E+03  0.00000000000E+00 0.  1.
        -24    2    1    2    0    0  0.33074441340E+03  0.66312692594E+02  0.22462905107E+04  0.22728324689E+04  0.78467400317E+02 0.  0.
        254    2    1    2    0    0 -0.33074441340E+03 -0.66312692594E+02  0.11186484933E+04  0.14717870908E+04  0.89498242933E+03 0.  0.
         23    2    4    4    0    0  0.26264354101E+03  0.15312457498E+03  0.35897156705E+03  0.47922526395E+03  0.91474054045E+02 0.  0.
         23    2    4    4    0    0 -0.59338795441E+03 -0.21943726758E+03  0.75967692628E+03  0.99256182684E+03  0.88362712398E+02 0.  0.
          3    1    3    3  502    0  0.26977478874E+03  0.68848703358E+02  0.19897033190E+04  0.20090888179E+04  0.00000000000E+00 0. -1.
         -4    1    3    3    0  502  0.60969624664E+02 -0.25360107647E+01  0.25658719174E+03  0.26374365101E+03  0.00000000000E+00 0.  1.
         13    1    5    5    0    0  0.70679629197E+01  0.34806847803E+02  0.33565416044E+02  0.48868291437E+02  0.00000000000E+00 0. -1.
        -13    1    5    5    0    0  0.25557557809E+03  0.11831772718E+03  0.32540615101E+03  0.43035697252E+03  0.00000000000E+00 0.  1.
          1    1    6    6  503    0 -0.28456995804E+02  0.81219078484E+01  0.40202322714E+02  0.49919863270E+02  0.00000000000E+00 0. -1.
         -1    1    6    6    0  503 -0.56493095860E+03 -0.22755917543E+03  0.71947460356E+03  0.94264196357E+03  0.00000000000E+00 0.  1.
<mgrwt>
<rscale>  0 0.16429733E+04</rscale>
<asrwt>0</asrwt>
<pdfrwt beam="1">  1        1 0.54688907E+00 0.16429733E+04</pdfrwt>
<pdfrwt beam="2">  1       -2 0.29206199E-01 0.16429733E+04</pdfrwt>
<totfact> 0.20664513E+00</totfact>
</mgrwt>
</event>
<event>
12    5  0.5029243E-008  0.1923552E+04  0.7818608E-02  0.8643221E-01
          1   -1    0    0  501    0  0.00000000000E+00  0.00000000000E+00  0.26883041483E+04  0.26883041483E+04  0.00000000000E+00 0. -1.
         -2   -1    0    0    0  501 -0.00000000000E+00 -0.00000000000E+00 -0.34408783900E+03  0.34408783900E+03  0.00000000000E+00 0.  1.
        -24    2    1    2    0    0  0.22541268370E+03  0.45322851592E+03  0.48705749199E+02  0.51480177836E+03  0.80135231794E+02 0.  0.
        254    2    1    2    0    0 -0.22541268370E+03 -0.45322851592E+03  0.22955105601E+04  0.25175902090E+04  0.90147920831E+03 0.  0.
         23    2    4    4    0    0  0.17016996560E+02  0.43309297822E+02  0.16891662944E+04  0.16922210495E+04  0.90355059080E+02 0.  0.
         23    2    4    4    0    0 -0.24242968026E+03 -0.49653781375E+03  0.60634426570E+03  0.82536915947E+03  0.90878658122E+02 0.  0.
          1    1    3    3  502    0  0.96367447284E+02  0.23856097991E+03  0.59574547775E+02  0.26409686248E+03  0.00000000000E+00 0. -1.
         -2    1    3    3    0  502  0.12904523642E+03  0.21466753602E+03 -0.10868798576E+02  0.25070491588E+03  0.00000000000E+00 0.  1.
         13    1    5    5    0    0  0.30596482251E+02 -0.56841616660E+01  0.22160895285E+03  0.22378333808E+03  0.00000000000E+00 0.  1.
        -13    1    5    5    0    0 -0.13579485692E+02  0.48993459488E+02  0.14675573416E+04  0.14684377114E+04  0.00000000000E+00 0. -1.
          3    1    6    6  503    0 -0.23723741685E+03 -0.42110054135E+03  0.50628219102E+03  0.69994922303E+03  0.00000000000E+00 0. -1.
         -3    1    6    6    0  503 -0.51922634048E+01 -0.75437272398E+02  0.10006207468E+03  0.12541993643E+03  0.00000000000E+00 0.  1.
<mgrwt>
<rscale>  0 0.19235517E+04</rscale>
<asrwt>0</asrwt>
<pdfrwt beam="1">  1        1 0.41358524E+00 0.19235517E+04</pdfrwt>
<pdfrwt beam="2">  1       -2 0.52936593E-01 0.19235517E+04</pdfrwt>
<totfact> 0.27644145E+00</totfact>
</mgrwt>
</event>
<event>
12    5  0.5029243E-008  0.1394607E+04  0.7818608E-02  0.8957732E-01
         -2   -1    0    0    0  501 -0.00000000000E+00  0.00000000000E+00  0.94088793339E+03  0.94088793339E+03  0.00000000000E+00 0.  1.
          1   -1    0    0  501    0  0.00000000000E+00 -0.00000000000E+00 -0.51677980557E+03  0.51677980557E+03  0.00000000000E+00 0. -1.
        -24    2    1    2    0    0 -0.32862751649E+03  0.21312879987E+03  0.11479718562E+03  0.41628509328E+03  0.81822705433E+02 0.  0.
        254    2    1    2    0    0  0.32862751649E+03 -0.21312879987E+03  0.30931094219E+03  0.10413826457E+04  0.91399377779E+03 0.  0.
         23    2    4    4    0    0 -0.28001651648E+03 -0.64206450469E+02 -0.62288899491E+02  0.30721847010E+03  0.89283613216E+02 0.  0.
         23    2    4    4    0    0  0.60864403298E+03 -0.14892234941E+03  0.37159984168E+03  0.73416417558E+03  0.91022905571E+02 0.  0.
          3    1    3    3  502    0 -0.96265955126E+02  0.32125583374E+02  0.56080262457E+02  0.11594905373E+03  0.00000000000E+00 0. -1.
         -4    1    3    3    0  502 -0.23236156137E+03  0.18100321650E+03  0.58716923167E+02  0.30033603955E+03  0.00000000000E+00 0.  1.
         13    1    5    5    0    0 -0.99769527413E+02 -0.20651819885E+02  0.20855213609E+02  0.10399709707E+03  0.00000000000E+00 0.  1.
        -13    1    5    5    0    0 -0.18024698907E+03 -0.43554630584E+02 -0.83144113100E+02  0.20322137303E+03  0.00000000000E+00 0. -1.
          4    1    6    6  503    0  0.35948774403E+03 -0.69710982829E+02  0.16845504557E+03  0.40307339482E+03  0.00000000000E+00 0. -1.
         -4    1    6    6    0  503  0.24915628894E+03 -0.79211366577E+02  0.20314479611E+03  0.33109078076E+03  0.00000000000E+00 0.  1.
<mgrwt>
<rscale>  0 0.13946066E+04</rscale>
<asrwt>0</asrwt>
<pdfrwt beam="1">  1        1 0.79504585E-01 0.13946066E+04</pdfrwt>
<pdfrwt beam="2">  1       -2 0.14475199E+00 0.13946066E+04</pdfrwt>
<totfact> 0.11880098E+01</totfact>
</mgrwt>
</event>
<event>
12    5  0.5029243E-008  0.2124450E+04  0.7818608E-02  0.8550549E-01
         -2   -1    0    0    0  501 -0.00000000000E+00  0.00000000000E+00  0.19107453693E+04  0.19107453693E+04  0.00000000000E+00 0.  1.
          1   -1    0    0  501    0  0.00000000000E+00 -0.00000000000E+00 -0.59051412561E+03  0.59051412561E+03  0.00000000000E+00 0. -1.
        -24    2    1    2    0    0  0.27095746927E+03 -0.52661585015E+03  0.13003867136E+04  0.14311461070E+04  0.80195828144E+02 0.  0.
        254    2    1    2    0    0 -0.27095746927E+03  0.52661585015E+03  0.19844530095E+02  0.10701133879E+04  0.89107051003E+03 0.  0.
         23    2    4    4    0    0 -0.40750159437E+02  0.51675554195E+03 -0.34334701885E+03  0.62806210463E+03  0.88757908263E+02 0.  0.
         23    2    4    4    0    0 -0.23020730984E+03  0.98603082013E+01  0.36319154895E+03  0.44205128330E+03  0.10202256934E+03 0.  0.
          3    1    3    3  502    0  0.13004728324E+02 -0.28789248927E+02  0.12420531428E+03  0.12815968129E+03  0.00000000000E+00 0. -1.
         -2    1    3    3    0  502  0.25795274095E+03 -0.49782660123E+03  0.11761813994E+04  0.13029864257E+04  0.00000000000E+00 0.  1.
         13    1    5    5    0    0 -0.37494907567E+02  0.36240461623E+03 -0.28668676031E+03  0.46360788658E+03  0.00000000000E+00 0. -1.
        -13    1    5    5    0    0 -0.32552518694E+01  0.15435092572E+03 -0.56660258542E+02  0.16445421805E+03  0.00000000000E+00 0.  1.
          3    1    6    6  503    0 -0.14116130163E+03  0.14574001976E+02  0.13024354026E+03  0.19261955869E+03  0.00000000000E+00 0. -1.
         -3    1    6    6    0  503 -0.89046008212E+02 -0.47136937743E+01  0.23294800869E+03  0.24943172461E+03  0.00000000000E+00 0.  1.
<mgrwt>
<rscale>  0 0.21244502E+04</rscale>
<asrwt>0</asrwt>
<pdfrwt beam="1">  1        1 0.90848328E-01 0.21244502E+04</pdfrwt>
<pdfrwt beam="2">  1       -2 0.29396082E+00 0.21244502E+04</pdfrwt>
<totfact> 0.97541963E-01</totfact>
</mgrwt>
</event>
<event>
12    5  0.5029243E-008  0.1252056E+04  0.7818608E-02  0.9068474E-01
         -2   -1    0    0    0  501 -0.00000000000E+00  0.00000000000E+00  0.38726266693E+03  0.38726266693E+03  0.00000000000E+00 0.  1.
          1   -1    0    0  501    0  0.00000000000E+00 -0.00000000000E+00 -0.10120035214E+04  0.10120035214E+04  0.00000000000E+00 0. -1.
        -24    2    1    2    0    0 -0.15746396408E+03  0.10467782380E+03  0.95767874478E+02  0.22743879058E+03  0.82489822999E+02 0.  0.
        254    2    1    2    0    0  0.15746396408E+03 -0.10467782380E+03 -0.72050872897E+03  0.11718273978E+04  0.90459619436E+03 0.  0.
         23    2    4    4    0    0 -0.13238988468E+03  0.27128411334E+03 -0.13636144576E+02  0.31570411936E+03  0.91438475651E+02 0.  0.
         23    2    4    4    0    0  0.28985384876E+03 -0.37596193713E+03 -0.70687258439E+03  0.85612327840E+03  0.88969575900E+02 0.  0.
          1    1    3    3  502    0 -0.58754387449E+02  0.38230580107E+02  0.81651884034E+02  0.10761359331E+03  0.00000000000E+00 0. -1.
         -2    1    3    3    0  502 -0.98709576635E+02  0.66447243692E+02  0.14115990445E+02  0.11982519727E+03  0.00000000000E+00 0.  1.
         13    1    5    5    0    0 -0.55053009814E+02  0.17812341203E+03  0.26138087994E+02  0.18826041392E+03  0.00000000000E+00 0. -1.
        -13    1    5    5    0    0 -0.77336874865E+02  0.93160701301E+02 -0.39774232570E+02  0.12744370544E+03  0.00000000000E+00 0.  1.
          3    1    6    6  503    0  0.68456582119E+01  0.43400350134E+01 -0.19680199015E+02  0.21284012158E+02  0.00000000000E+00 0. -1.
         -3    1    6    6    0  503  0.28300819055E+03 -0.38030197215E+03 -0.68719238538E+03  0.83483926624E+03  0.00000000000E+00 0.  1.
<mgrwt>
<rscale>  0 0.12520562E+04</rscale>
<asrwt>0</asrwt>
<pdfrwt beam="1">  1        1 0.15569285E+00 0.12520562E+04</pdfrwt>
<pdfrwt beam="2">  1       -2 0.59578872E-01 0.12520562E+04</pdfrwt>
<totfact> 0.33651336E+01</totfact>
</mgrwt>
</event>
<event>
12    5  0.5029243E-008  0.1863198E+04  0.7818608E-02  0.8673395E-01
          1   -1    0    0  501    0  0.00000000000E+00  0.00000000000E+00  0.17083690920E+04  0.17083690920E+04  0.00000000000E+00 0. -1.
         -2   -1    0    0    0  501 -0.00000000000E+00 -0.00000000000E+00 -0.50801448520E+03  0.50801448520E+03  0.00000000000E+00 0.  1.
        -24    2    1    2    0    0 -0.94065394961E+02  0.41716554117E+03 -0.21519190013E+03  0.48519935135E+03  0.78964988436E+02 0.  0.
        254    2    1    2    0    0  0.94065394961E+02 -0.41716554117E+03  0.14155465069E+04  0.17311842259E+04  0.90019526954E+03 0.  0.
         23    2    4    4    0    0  0.13246446894E+03 -0.54578010199E+03  0.14546426474E+04  0.15619633144E+04  0.91221754483E+02 0.  0.
         23    2    4    4    0    0 -0.38399073974E+02  0.12861456083E+03 -0.39096140518E+02  0.16922091146E+03  0.95346811860E+02 0.  0.
          1    1    3    3  502    0  0.79591262198E+01  0.11263511959E+03 -0.43360257430E+02  0.12095507340E+03  0.00000000000E+00 0. -1.
         -2    1    3    3    0  502 -0.10202452118E+03  0.30453042158E+03 -0.17183164270E+03  0.36424427795E+03  0.00000000000E+00 0.  1.
         13    1    5    5    0    0  0.51234525327E+02 -0.16782434588E+03  0.57357431726E+03  0.59981454223E+03  0.00000000000E+00 0. -1.
        -13    1    5    5    0    0  0.81229943609E+02 -0.37795575611E+03  0.88106833019E+03  0.96214877216E+03  0.00000000000E+00 0.  1.
          1    1    6    6  503    0 -0.82549466191E+01  0.95518553660E+01 -0.44526405148E+02  0.46281560476E+02  0.00000000000E+00 0. -1.
         -1    1    6    6    0  503 -0.30144127355E+02  0.11906270546E+03  0.54302646301E+01  0.12293935098E+03  0.00000000000E+00 0.  1.
<mgrwt>
<rscale>  0 0.18631975E+04</rscale>
<asrwt>0</asrwt>
<pdfrwt beam="1">  1        1 0.26282601E+00 0.18631975E+04</pdfrwt>
<pdfrwt beam="2">  1       -2 0.78156075E-01 0.18631975E+04</pdfrwt>
<totfact> 0.56447579E+00</totfact>
</mgrwt>
</event>
<event>
12    5  0.5029243E-008  0.1205823E+04  0.7818608E-02  0.9107775E-01
         -2   -1    0    0    0  501 -0.00000000000E+00  0.00000000000E+00  0.15932417947E+04  0.15932417947E+04  0.00000000000E+00 0.  1.
          1   -1    0    0  501    0  0.00000000000E+00 -0.00000000000E+00 -0.22815263630E+03  0.22815263630E+03  0.00000000000E+00 0. -1.
        -24    2    1    2    0    0 -0.14626480381E+03 -0.18998656188E+03  0.18499765054E+03  0.31318743193E+03  0.79837023255E+02 0.  0.
        254    2    1    2    0    0  0.14626480381E+03  0.18998656188E+03  0.11800915079E+04  0.15082069991E+04  0.90806613120E+03 0.  0.
         23    2    4    4    0    0  0.30075006051E+03 -0.23666074890E+03  0.23978120031E+03  0.46032465165E+03  0.89133898834E+02 0.  0.
         23    2    4    4    0    0 -0.15448525670E+03  0.42664731079E+03  0.94031030757E+03  0.10478823475E+04  0.89332621422E+02 0.  0.
          3    1    3    3  502    0 -0.14971747013E+03 -0.19335416351E+03  0.18711758829E+03  0.30791905634E+03  0.00000000000E+00 0. -1.
         -4    1    3    3    0  502  0.34526663148E+01  0.33676016228E+01 -0.21199377469E+01  0.52683755961E+01  0.00000000000E+00 0.  1.
         13    1    5    5    0    0  0.27074578436E+03 -0.24049331090E+03  0.21442291782E+03  0.42085329989E+03  0.00000000000E+00 0. -1.
        -13    1    5    5    0    0  0.30004276148E+02  0.38325620019E+01  0.25358282491E+02  0.39471351757E+02  0.00000000000E+00 0.  1.
          3    1    6    6  503    0 -0.86547058317E+01  0.10350737904E+01  0.51438510407E+01  0.10120993741E+02  0.00000000000E+00 0.  1.
         -3    1    6    6    0  503 -0.14583055086E+03  0.42561223700E+03  0.93516645653E+03  0.10377613537E+04  0.00000000000E+00 0. -1.
<mgrwt>
<rscale>  0 0.12058231E+04</rscale>
<asrwt>0</asrwt>
<pdfrwt beam="1">  1        1 0.35100407E-01 0.12058231E+04</pdfrwt>
<pdfrwt beam="2">  1       -2 0.24511412E+00 0.12058231E+04</pdfrwt>
<totfact> 0.74608699E+00</totfact>
</mgrwt>
</event>
<event>
12    5  0.5029243E-008  0.3418185E+04  0.7818608E-02  0.8133458E-01
          1   -1    0    0  501    0  0.00000000000E+00  0.00000000000E+00  0.36355736363E+04  0.36355736363E+04  0.00000000000E+00 0. -1.
         -2   -1    0    0    0  501 -0.00000000000E+00 -0.00000000000E+00 -0.80344877552E+03  0.80344877552E+03  0.00000000000E+00 0.  1.
        -24    2    1    2    0    0 -0.56127928694E+03 -0.16594093058E+03  0.32389100559E+04  0.32923576213E+04  0.80681633038E+02 0.  0.
        254    2    1    2    0    0  0.56127928694E+03  0.16594093058E+03 -0.40678519520E+03  0.11466647905E+04  0.89821774434E+03 0.  0.
         23    2    4    4    0    0 -0.11255124788E+03 -0.21726385636E+03  0.11158206144E+02  0.26121667979E+03  0.90764979782E+02 0.  0.
         23    2    4    4    0    0  0.67383053482E+03  0.38320478694E+03 -0.41794340134E+03  0.88544811067E+03  0.91913935663E+02 0.  0.
          1    1    3    3  502    0 -0.54226831549E+03 -0.16143226734E+03  0.31881957751E+04  0.32380098214E+04  0.00000000000E+00 0. -1.
         -2    1    3    3    0  502 -0.19010971457E+02 -0.45086632406E+01  0.50714280805E+02  0.54347799933E+02  0.00000000000E+00 0.  1.
         13    1    5    5    0    0 -0.10075528888E+03 -0.20581658786E+03  0.35455319791E+02  0.23188181424E+03  0.00000000000E+00 0.  1.
        -13    1    5    5    0    0 -0.11795958998E+02 -0.11447268501E+02 -0.24297113648E+02  0.29334865543E+02  0.00000000000E+00 0. -1.
          3    1    6    6  503    0  0.38816389278E+02  0.57333506192E+01 -0.38467697212E+02  0.54948586103E+02  0.00000000000E+00 0. -1.
         -3    1    6    6    0  503  0.63501414554E+03  0.37747143632E+03 -0.37947570413E+03  0.83049952456E+03  0.00000000000E+00 0.  1.
<mgrwt>
<rscale>  0 0.34181850E+04</rscale>
<asrwt>0</asrwt>
<pdfrwt beam="1">  1        1 0.55931901E+00 0.34181850E+04</pdfrwt>
<pdfrwt beam="2">  1       -2 0.12360751E+00 0.34181850E+04</pdfrwt>
<totfact> 0.69366554E-02</totfact>
</mgrwt>
</event>
<event>
12    5  0.5029243E-008  0.2306185E+04  0.7818608E-02  0.8475486E-01
          1   -1    0    0  501    0  0.00000000000E+00  0.00000000000E+00  0.58648941049E+03  0.58648941049E+03  0.00000000000E+00 0. -1.
         -2   -1    0    0    0  501 -0.00000000000E+00 -0.00000000000E+00 -0.22670867703E+04  0.22670867703E+04  0.00000000000E+00 0.  1.
        -24    2    1    2    0    0  0.96731540430E+03  0.91767358139E+02 -0.57678016210E+03  0.11329208113E+04  0.81938208252E+02 0.  0.
        254    2    1    2    0    0 -0.96731540430E+03 -0.91767358139E+02 -0.11038171977E+04  0.17206553694E+04  0.89337682696E+03 0.  0.
         23    2    4    4    0    0 -0.98979329068E+02 -0.35340504553E+03 -0.16576650649E+03  0.41277118051E+03  0.90606175280E+02 0.  0.
         23    2    4    4    0    0 -0.86833607523E+03  0.26163768739E+03 -0.93805069117E+03  0.13078841889E+04  0.90333456198E+02 0.  0.
          3    1    3    3  502    0  0.87553904911E+02 -0.70789302057E+01 -0.73731243571E+02  0.11468257844E+03  0.00000000000E+00 0. -1.
         -4    1    3    3    0  502  0.87976149939E+03  0.98846288345E+02 -0.50304891853E+03  0.10182382329E+04  0.00000000000E+00 0.  1.
         13    1    5    5    0    0 -0.20810069640E+02 -0.87767490237E+02 -0.85957702366E+02  0.12459902864E+03  0.00000000000E+00 0.  1.
        -13    1    5    5    0    0 -0.78169259428E+02 -0.26563755529E+03 -0.79808804126E+02  0.28817215188E+03  0.00000000000E+00 0. -1.
          2    1    6    6  503    0 -0.44201524944E+03  0.12331289734E+03 -0.53788009024E+03  0.70703503652E+03  0.00000000000E+00 0. -1.
         -2    1    6    6    0  503 -0.42632082580E+03  0.13832479005E+03 -0.40017060093E+03  0.60084915237E+03  0.00000000000E+00 0.  1.
<mgrwt>
<rscale>  0 0.23061851E+04</rscale>
<asrwt>0</asrwt>
<pdfrwt beam="1">  1        1 0.90229141E-01 0.23061851E+04</pdfrwt>
<pdfrwt beam="2">  1       -2 0.34878258E+00 0.23061851E+04</pdfrwt>
<totfact> 0.44405633E-01</totfact>
</mgrwt>
</event>
<event>
12    5  0.5029243E-008  0.1519006E+04  0.7818608E-02  0.8871912E-01
          1   -1    0    0  501    0  0.00000000000E+00  0.00000000000E+00  0.65311237298E+03  0.65311237298E+03  0.00000000000E+00 0. -1.
         -2   -1    0    0    0  501 -0.00000000000E+00 -0.00000000000E+00 -0.88322462889E+03  0.88322462889E+03  0.00000000000E+00 0.  1.
        -24    2    1    2    0    0  0.26105158790E+03 -0.93242807627E+02 -0.47620563259E+03  0.55744009935E+03  0.84412719023E+02 0.  0.
        254    2    1    2    0    0 -0.26105158790E+03  0.93242807627E+02  0.24609337668E+03  0.97889690252E+03  0.90599947185E+03 0.  0.
         23    2    4    4    0    0  0.16884508994E+03 -0.13513327310E+01 -0.24581678273E+03  0.31261559922E+03  0.93766367673E+02 0.  0.
         23    2    4    4    0    0 -0.42989667784E+03  0.94594140358E+02  0.49191015941E+03  0.66628130330E+03  0.90531570125E+02 0.  0.
          1    1    3    3  502    0  0.26708924979E+02  0.13173906227E+02 -0.75916299213E+02  0.81548776601E+02  0.00000000000E+00 0. -1.
         -2    1    3    3    0  502  0.23434266292E+03 -0.10641671385E+03 -0.40028933337E+03  0.47589132274E+03  0.00000000000E+00 0.  1.
         13    1    5    5    0    0 -0.90665243017E+01  0.51414724749E+01 -0.35840595371E+02  0.37325391876E+02  0.00000000000E+00 0.  1.
        -13    1    5    5    0    0  0.17791161424E+03 -0.64928052059E+01 -0.20997618736E+03  0.27529020735E+03  0.00000000000E+00 0. -1.
          2    1    6    6  503    0 -0.40695255660E+03  0.10475599188E+03  0.48158450354E+03  0.63914617672E+03  0.00000000000E+00 0. -1.
         -2    1    6    6    0  503 -0.22944121236E+02 -0.10161851517E+02  0.10325655865E+02  0.27135126581E+02  0.00000000000E+00 0.  1.
<mgrwt>
<rscale>  0 0.15190062E+04</rscale>
<asrwt>0</asrwt>
<pdfrwt beam="1">  1        1 0.10047883E+00 0.15190062E+04</pdfrwt>
<pdfrwt beam="2">  1       -2 0.13588071E+00 0.15190062E+04</pdfrwt>
<totfact> 0.99162146E+00</totfact>
</mgrwt>
</event>
<event>
12    5  0.5029243E-008  0.1382083E+04  0.7818608E-02  0.8966891E-01
         -2   -1    0    0    0  501 -0.00000000000E+00  0.00000000000E+00  0.14280639861E+04  0.14280639861E+04  0.00000000000E+00 0.  1.
          1   -1    0    0  501    0  0.00000000000E+00 -0.00000000000E+00 -0.33439573034E+03  0.33439573034E+03  0.00000000000E+00 0. -1.
        -24    2    1    2    0    0  0.15106849398E+03 -0.10560468283E+03 -0.11581376495E+03  0.22965300603E+03  0.73168545959E+02 0.  0.
        254    2    1    2    0    0 -0.15106849398E+03  0.10560468283E+03  0.12094820207E+04  0.15328067104E+04  0.92340436109E+03 0.  0.
         23    2    4    4    0    0 -0.35080990999E+03 -0.13947194855E+03  0.13914707549E+03  0.41290658891E+03  0.92789682422E+02 0.  0.
         23    2    4    4    0    0  0.19974141601E+03  0.24507663138E+03  0.10703349452E+04  0.11199001215E+04  0.92737255865E+02 0.  0.
          1    1    3    3  502    0  0.93169057597E+02 -0.20820368963E+02 -0.60652759551E+02  0.11310489953E+03  0.00000000000E+00 0. -1.
         -2    1    3    3    0  502  0.57899436384E+02 -0.84784313868E+02 -0.55161005403E+02  0.11654810650E+03  0.00000000000E+00 0.  1.
         13    1    5    5    0    0 -0.32403702604E+03 -0.96504197519E+02  0.12262514440E+03  0.35965258295E+03  0.00000000000E+00 0. -1.
        -13    1    5    5    0    0 -0.26772883956E+02 -0.42967751027E+02  0.16521931091E+02  0.53254005958E+02  0.00000000000E+00 0.  1.
          3    1    6    6  503    0  0.20890191140E+03  0.22661968070E+03  0.98405435559E+03  0.10311932229E+04  0.00000000000E+00 0. -1.
         -3    1    6    6    0  503 -0.91604953852E+01  0.18456950678E+02  0.86280589603E+02  0.88706898527E+02  0.00000000000E+00 0.  1.
<mgrwt>
<rscale>  0 0.13820832E+04</rscale>
<asrwt>0</asrwt>
<pdfrwt beam="1">  1        1 0.51445498E-01 0.13820832E+04</pdfrwt>
<pdfrwt beam="2">  1       -2 0.21970215E+00 0.13820832E+04</pdfrwt>
<totfact> 0.64356517E+00</totfact>
</mgrwt>
</event>
<event>
12    5  0.5029243E-008  0.2343108E+04  0.7818608E-02  0.8461116E-01
         -2   -1    0    0    0  501 -0.00000000000E+00  0.00000000000E+00  0.55274156065E+03  0.55274156065E+03  0.00000000000E+00 0.  1.
          1   -1    0    0  501    0  0.00000000000E+00 -0.00000000000E+00 -0.24831477660E+04  0.24831477660E+04  0.00000000000E+00 0. -1.
        -24    2    1    2    0    0 -0.87912132113E+03 -0.42992090365E+03 -0.10560584101E+04  0.14419602044E+04  0.79395118740E+02 0.  0.
        254    2    1    2    0    0  0.87912132113E+03  0.42992090365E+03 -0.87434779525E+03  0.15939291222E+04  0.90467657150E+03 0.  0.
         23    2    4    4    0    0  0.16424636476E+03  0.25797108823E+03 -0.78486877608E+03  0.84752357069E+03  0.93548150829E+02 0.  0.
         23    2    4    4    0    0  0.71487495637E+03  0.17194981542E+03 -0.89479019178E+02  0.74640555156E+03  0.92205261496E+02 0.  0.
          1    1    3    3  502    0 -0.78973759377E+03 -0.40912754360E+03 -0.97187849079E+03  0.13174287893E+04  0.00000000000E+00 0. -1.
         -2    1    3    3    0  502 -0.89383727355E+02 -0.20793360055E+02 -0.84179919262E+02  0.12453141509E+03  0.00000000000E+00 0.  1.
         13    1    5    5    0    0  0.89647157528E+02  0.13385631830E+03 -0.28816071485E+03  0.33013743257E+03  0.00000000000E+00 0.  1.
        -13    1    5    5    0    0  0.74599207230E+02  0.12411476992E+03 -0.49670806122E+03  0.51738613812E+03  0.00000000000E+00 0. -1.
          2    1    6    6  503    0  0.49708509948E+03  0.16270453150E+03 -0.63731218860E+02  0.52690419333E+03  0.00000000000E+00 0. -1.
         -2    1    6    6    0  503  0.21778985689E+03  0.92452839248E+01 -0.25747800318E+02  0.21950135822E+03  0.00000000000E+00 0.  1.
<mgrwt>
<rscale>  0 0.23431082E+04</rscale>
<asrwt>0</asrwt>
<pdfrwt beam="1">  1        1 0.38202274E+00 0.23431082E+04</pdfrwt>
<pdfrwt beam="2">  1       -2 0.85037162E-01 0.23431082E+04</pdfrwt>
<totfact> 0.13257806E+00</totfact>
</mgrwt>
</event>
<event>
12    5  0.5029243E-008  0.1280782E+04  0.7818608E-02  0.9044946E-01
          1   -1    0    0  501    0  0.00000000000E+00  0.00000000000E+00  0.66711965680E+03  0.66711965680E+03  0.00000000000E+00 0. -1.
         -2   -1    0    0    0  501 -0.00000000000E+00 -0.00000000000E+00 -0.61473326554E+03  0.61473326554E+03  0.00000000000E+00 0.  1.
        -24    2    1    2    0    0  0.12031318869E+03 -0.17857492371E+03 -0.21658186792E+03  0.31504052494E+03  0.77321149043E+02 0.  0.
        254    2    1    2    0    0 -0.12031318869E+03  0.17857492371E+03  0.26896825918E+03  0.96681239740E+03  0.90333715774E+03 0.  0.
         23    2    4    4    0    0  0.55757295145E+01  0.32455576990E+03 -0.24027942336E+03  0.41461808911E+03  0.93842538297E+02 0.  0.
         23    2    4    4    0    0 -0.12588891821E+03 -0.14598084620E+03  0.50924768254E+03  0.55219430828E+03  0.91798282904E+02 0.  0.
          1    1    3    3  502    0  0.26835847325E+02 -0.88418235397E+01 -0.60233437773E+01  0.28889811620E+02  0.00000000000E+00 0. -1.
         -2    1    3    3    0  502  0.93477341369E+02 -0.16973310017E+03 -0.21055852415E+03  0.28615071332E+03  0.00000000000E+00 0.  1.
         13    1    5    5    0    0  0.42915958269E+02  0.82875220960E+02 -0.68415369453E+02  0.11571838445E+03  0.00000000000E+00 0.  1.
        -13    1    5    5    0    0 -0.37340228754E+02  0.24168054894E+03 -0.17186405391E+03  0.29889970466E+03  0.00000000000E+00 0. -1.
          3    1    6    6  503    0 -0.28383603456E+02 -0.93299757392E+02  0.29934864031E+03  0.31483341965E+03  0.00000000000E+00 0. -1.
         -3    1    6    6    0  503 -0.97505314753E+02 -0.52681088804E+02  0.20989904223E+03  0.23736088863E+03  0.00000000000E+00 0.  1.
<mgrwt>
<rscale>  0 0.12807820E+04</rscale>
<asrwt>0</asrwt>
<pdfrwt beam="1">  1        1 0.10263379E+00 0.12807820E+04</pdfrwt>
<pdfrwt beam="2">  1       -2 0.94574348E-01 0.12807820E+04</pdfrwt>
<totfact> 0.23774213E+01</totfact>
</mgrwt>
</event>
<event>
12    5  0.5029243E-008  0.1396929E+04  0.7818608E-02  0.8956045E-01
         -2   -1    0    0    0  501 -0.00000000000E+00  0.00000000000E+00  0.34372012975E+03  0.34372012975E+03  0.00000000000E+00 0.  1.
          1   -1    0    0  501    0  0.00000000000E+00 -0.00000000000E+00 -0.14193309779E+04  0.14193309779E+04  0.00000000000E+00 0. -1.
        -24    2    1    2    0    0  0.40455395119E+03 -0.57144648861E+02 -0.39949113372E+03  0.57696818422E+03  0.79810458984E+02 0.  0.
        254    2    1    2    0    0 -0.40455395119E+03  0.57144648861E+02 -0.67611971444E+03  0.11860829234E+04  0.88471770791E+03 0.  0.
         23    2    4    4    0    0 -0.34449746541E+03 -0.31319485560E+03 -0.87751398987E+02  0.48229021924E+03  0.90188836886E+02 0.  0.
         23    2    4    4    0    0 -0.60056485784E+02  0.37033950446E+03 -0.58836831545E+03  0.70379270420E+03  0.91590205857E+02 0.  0.
          1    1    3    3  502    0  0.40013403652E+03 -0.50381818459E+02 -0.40102894976E+03  0.56874404907E+03  0.00000000000E+00 0. -1.
         -2    1    3    3    0  502  0.44199146723E+01 -0.67628304021E+01  0.15378160370E+01  0.82241351473E+01  0.00000000000E+00 0.  1.
         13    1    5    5    0    0 -0.28447543428E+03 -0.24872668865E+03 -0.10572992998E+03  0.39239018394E+03  0.00000000000E+00 0.  1.
        -13    1    5    5    0    0 -0.60022031130E+02 -0.64468166945E+02  0.17978530988E+02  0.89900035299E+02  0.00000000000E+00 0. -1.
          2    1    6    6  503    0 -0.57282826863E+02  0.13726694466E+03 -0.17916454641E+03  0.23285933745E+03  0.00000000000E+00 0. -1.
         -2    1    6    6    0  503 -0.27736589214E+01  0.23307255980E+03 -0.40920376904E+03  0.47093336675E+03  0.00000000000E+00 0.  1.
<mgrwt>
<rscale>  0 0.13969290E+04</rscale>
<asrwt>0</asrwt>
<pdfrwt beam="1">  1        1 0.21835861E+00 0.13969290E+04</pdfrwt>
<pdfrwt beam="2">  1       -2 0.52880021E-01 0.13969290E+04</pdfrwt>
<totfact> 0.21490941E+01</totfact>
</mgrwt>
</event>
<event>
12    5  0.5029243E-008  0.1796795E+04  0.7818608E-02  0.8708006E-01
          1   -1    0    0  501    0  0.00000000000E+00  0.00000000000E+00  0.16804510135E+04  0.16804510135E+04  0.00000000000E+00 0. -1.
         -2   -1    0    0    0  501 -0.00000000000E+00 -0.00000000000E+00 -0.48029838755E+03  0.48029838755E+03  0.00000000000E+00 0.  1.
        -24    2    1    2    0    0  0.16223028690E+03 -0.11805944200E+03 -0.31620968238E+03  0.38281044147E+03  0.79363549780E+02 0.  0.
        254    2    1    2    0    0 -0.16223028690E+03  0.11805944200E+03  0.15163623083E+04  0.17779389596E+04  0.90634187592E+03 0.  0.
         23    2    4    4    0    0 -0.15314472543E+03 -0.36052588202E+03  0.43906694712E+03  0.59560895377E+03  0.92401424372E+02 0.  0.
         23    2    4    4    0    0 -0.90855614609E+01  0.47858532402E+03  0.10772953612E+04  0.11823300058E+04  0.90622776242E+02 0.  0.
          1    1    3    3  502    0  0.19277087465E+02  0.20376554539E+01 -0.52119919162E+01  0.20072942002E+02  0.00000000000E+00 0. -1.
         -2    1    3    3    0  502  0.14295319943E+03 -0.12009709745E+03 -0.31099769046E+03  0.36273749946E+03  0.00000000000E+00 0.  1.
         13    1    5    5    0    0 -0.30624678829E+02 -0.18812425054E+03  0.22057227768E+03  0.29151455242E+03  0.00000000000E+00 0.  1.
        -13    1    5    5    0    0 -0.12252004660E+03 -0.17240163148E+03  0.21849466944E+03  0.30409440134E+03  0.00000000000E+00 0. -1.
          3    1    6    6  503    0  0.99629338256E+01  0.46004559588E+03  0.10290474229E+04  0.11272443430E+04  0.00000000000E+00 0. -1.
         -3    1    6    6    0  503 -0.19048495287E+02  0.18539728131E+02  0.48247938303E+02  0.55085662766E+02  0.00000000000E+00 0.  1.
<mgrwt>
<rscale>  0 0.17967948E+04</rscale>
<asrwt>0</asrwt>
<pdfrwt beam="1">  1        1 0.25853092E+00 0.17967948E+04</pdfrwt>
<pdfrwt beam="2">  1       -2 0.73892061E-01 0.17967948E+04</pdfrwt>
<totfact> 0.67200149E+00</totfact>
</mgrwt>
</event>
<event>
12    5  0.5029243E-008  0.1978780E+04  0.7818608E-02  0.8616606E-01
         -2   -1    0    0    0  501 -0.00000000000E+00  0.00000000000E+00  0.39213435545E+03  0.39213435545E+03  0.00000000000E+00 0.  1.
          1   -1    0    0  501    0  0.00000000000E+00 -0.00000000000E+00 -0.24963190291E+04  0.24963190291E+04  0.00000000000E+00 0. -1.
        -24    2    1    2    0    0 -0.26263402099E+03  0.60534339648E+03 -0.22703538669E+03  0.70305579228E+03  0.85586935918E+02 0.  0.
        254    2    1    2    0    0  0.26263402099E+03 -0.60534339648E+03 -0.18771492870E+04  0.21853975923E+04  0.90380082661E+03 0.  0.
         23    2    4    4    0    0  0.11490450125E+03 -0.62249673733E+03 -0.19048186286E+04  0.20093200447E+04  0.91256790668E+02 0.  0.
         23    2    4    4    0    0  0.14772951974E+03  0.17153340855E+02  0.27669341582E+02  0.17607754762E+03  0.90108058498E+02 0.  0.
          3    1    3    3  502    0 -0.31082944308E+02  0.68728147531E+02 -0.56493532136E+02  0.94240261370E+02  0.00000000000E+00 0. -1.
         -4    1    3    3    0  502 -0.23155107668E+03  0.53661524895E+03 -0.17054185455E+03  0.60881553091E+03  0.00000000000E+00 0.  1.
         13    1    5    5    0    0  0.64240353471E+02 -0.14138059987E+03 -0.42989278328E+03  0.45708106737E+03  0.00000000000E+00 0.  1.
        -13    1    5    5    0    0  0.50664147783E+02 -0.48111613747E+03 -0.14749258453E+04  0.15522389773E+04  0.00000000000E+00 0. -1.
          1    1    6    6  503    0  0.11954336813E+03 -0.24814238912E+02  0.99041643565E+01  0.12249267647E+03  0.00000000000E+00 0. -1.
         -1    1    6    6    0  503  0.28186151605E+02  0.41967579766E+02  0.17765177226E+02  0.53584871145E+02  0.00000000000E+00 0.  1.
<mgrwt>
<rscale>  0 0.19787799E+04</rscale>
<asrwt>0</asrwt>
<pdfrwt beam="1">  1        1 0.38404909E+00 0.19787799E+04</pdfrwt>
<pdfrwt beam="2">  1       -2 0.60328362E-01 0.19787799E+04</pdfrwt>
<totfact> 0.28497478E+00</totfact>
</mgrwt>
</event>
<event>
12    5  0.5029243E-008  0.1575341E+04  0.7818608E-02  0.8835842E-01
          1   -1    0    0  501    0  0.00000000000E+00  0.00000000000E+00  0.55146654863E+03  0.55146654863E+03  0.00000000000E+00 0. -1.
         -2   -1    0    0    0  501 -0.00000000000E+00 -0.00000000000E+00 -0.11250455465E+04  0.11250455465E+04  0.00000000000E+00 0.  1.
        -24    2    1    2    0    0  0.25633362660E+03 -0.37616466169E+03 -0.48286157351E+03  0.66905162255E+03  0.85252528625E+02 0.  0.
        254    2    1    2    0    0 -0.25633362660E+03  0.37616466169E+03 -0.90717424354E+02  0.10074604726E+04  0.89417010233E+03 0.  0.
         23    2    4    4    0    0 -0.39291929238E+03  0.23947429809E+03  0.30328101194E+03  0.55779619824E+03  0.86160993452E+02 0.  0.
         23    2    4    4    0    0  0.13658566579E+03  0.13669036360E+03 -0.39399843629E+03  0.44966427434E+03  0.98098380295E+02 0.  0.
          1    1    3    3  502    0  0.12379336815E+03 -0.20872674173E+03 -0.19901020815E+03  0.31384186091E+03  0.00000000000E+00 0. -1.
         -2    1    3    3    0  502  0.13254025845E+03 -0.16743791996E+03 -0.28385136535E+03  0.35520976164E+03  0.00000000000E+00 0.  1.
         13    1    5    5    0    0 -0.19936290816E+03  0.17115055728E+03  0.16373462771E+03  0.30959184536E+03  0.00000000000E+00 0. -1.
        -13    1    5    5    0    0 -0.19355638422E+03  0.68323740812E+02  0.13954638423E+03  0.24820435287E+03  0.00000000000E+00 0.  1.
          2    1    6    6  503    0  0.71500835888E+02  0.12504023427E+03 -0.21449738305E+03  0.25837290310E+03  0.00000000000E+00 0. -1.
         -2    1    6    6    0  503  0.65084829898E+02  0.11650129327E+02 -0.17950105325E+03  0.19129137124E+03  0.00000000000E+00 0.  1.
<mgrwt>
<rscale>  0 0.15753412E+04</rscale>
<asrwt>0</asrwt>
<pdfrwt beam="1">  1        1 0.84841008E-01 0.15753412E+04</pdfrwt>
<pdfrwt beam="2">  1       -2 0.17308393E+00 0.15753412E+04</pdfrwt>
<totfact> 0.65828436E+00</totfact>
</mgrwt>
</event>
<event>
12    5  0.5029243E-008  0.1586510E+04  0.7818608E-02  0.8828879E-01
          1   -1    0    0  501    0  0.00000000000E+00  0.00000000000E+00  0.14591294367E+04  0.14591294367E+04  0.00000000000E+00 0. -1.
         -2   -1    0    0    0  501 -0.00000000000E+00 -0.00000000000E+00 -0.43125266552E+03  0.43125266552E+03  0.00000000000E+00 0.  1.
        -24    2    1    2    0    0 -0.51168070777E+03  0.16276343797E+03  0.38964904917E+03  0.66830655422E+03  0.80611323405E+02 0.  0.
        254    2    1    2    0    0  0.51168070777E+03 -0.16276343797E+03  0.63822772201E+03  0.12220755480E+04  0.89321046591E+03 0.  0.
         23    2    4    4    0    0  0.54258334628E+03  0.25850618561E+03  0.40721442564E+03  0.73210804679E+03  0.94532894116E+02 0.  0.
         23    2    4    4    0    0 -0.30902638513E+02 -0.42126962359E+03  0.23101329637E+03  0.48996750120E+03  0.90983186943E+02 0.  0.
          1    1    3    3  502    0 -0.55393585577E+02 -0.44866355292E+01  0.26105602401E+02  0.61400991020E+02  0.00000000000E+00 0. -1.
         -2    1    3    3    0  502 -0.45628712219E+03  0.16725007350E+03  0.36354344676E+03  0.60690556320E+03  0.00000000000E+00 0.  1.
         13    1    5    5    0    0  0.35855864942E+03  0.12030884964E+03  0.24800095137E+03  0.45226429912E+03  0.00000000000E+00 0.  1.
        -13    1    5    5    0    0  0.18402469686E+03  0.13819733597E+03  0.15921347427E+03  0.27984374768E+03  0.00000000000E+00 0. -1.
          1    1    6    6  503    0 -0.39390578965E+02 -0.41268297216E+03  0.20762204924E+03  0.46364401059E+03  0.00000000000E+00 0. -1.
         -1    1    6    6    0  503  0.84879404526E+01 -0.85866514278E+01  0.23391247124E+02  0.26323490609E+02  0.00000000000E+00 0.  1.
<mgrwt>
<rscale>  0 0.15865100E+04</rscale>
<asrwt>0</asrwt>
<pdfrwt beam="1">  1        1 0.22448145E+00 0.15865100E+04</pdfrwt>
<pdfrwt beam="2">  1       -2 0.66346565E-01 0.15865100E+04</pdfrwt>
<totfact> 0.12295270E+01</totfact>
</mgrwt>
</event>
<event>
12    5  0.5029243E-008  0.1226114E+04  0.7818608E-02  0.9090301E-01
          1   -1    0    0  501    0  0.00000000000E+00  0.00000000000E+00  0.13431371377E+04  0.13431371377E+04  0.00000000000E+00 0. -1.
         -2   -1    0    0    0  501 -0.00000000000E+00 -0.00000000000E+00 -0.27982171354E+03  0.27982171354E+03  0.00000000000E+00 0.  1.
        -24    2    1    2    0    0 -0.16799230273E+03 -0.22869978195E+02  0.56693443553E+03  0.59713373709E+03  0.80059953136E+02 0.  0.
        254    2    1    2    0    0  0.16799230273E+03  0.22869978195E+02  0.49638098859E+03  0.10258251141E+04  0.88157735295E+03 0.  0.
         23    2    4    4    0    0  0.29551103853E+03  0.33301008982E+03  0.46531994448E+02  0.45712806261E+03  0.92619357059E+02 0.  0.
         23    2    4    4    0    0 -0.12751873580E+03 -0.31014011162E+03  0.44984899414E+03  0.56869705150E+03  0.92759377090E+02 0.  0.
          3    1    3    3  502    0 -0.11948237572E+03  0.35459175860E+01  0.47563614651E+03  0.49042670758E+03  0.00000000000E+00 0. -1.
         -4    1    3    3    0  502 -0.48509927006E+02 -0.26415895781E+02  0.91298289026E+02  0.10670702951E+03  0.00000000000E+00 0.  1.
         13    1    5    5    0    0  0.19884491441E+03  0.26163981433E+03  0.98549576662E+00  0.32862693686E+03  0.00000000000E+00 0. -1.
        -13    1    5    5    0    0  0.96666124127E+02  0.71370275490E+02  0.45546498681E+02  0.12850112575E+03  0.00000000000E+00 0.  1.
          1    1    6    6  503    0 -0.13343185091E+03 -0.26619012689E+03  0.35052477660E+03  0.45992266905E+03  0.00000000000E+00 0. -1.
         -1    1    6    6    0  503  0.59131151102E+01 -0.43949984732E+02  0.99324217542E+02  0.10877438246E+03  0.00000000000E+00 0.  1.
<mgrwt>
<rscale>  0 0.12261141E+04</rscale>
<asrwt>0</asrwt>
<pdfrwt beam="1">  1        1 0.20663648E+00 0.12261141E+04</pdfrwt>
<pdfrwt beam="2">  1       -2 0.43049495E-01 0.12261141E+04</pdfrwt>
<totfact> 0.37356132E+01</totfact>
</mgrwt>
</event>
<event>
12    5  0.5029243E-008  0.3458119E+04  0.7818608E-02  0.8123787E-01
          1   -1    0    0  501    0  0.00000000000E+00  0.00000000000E+00  0.28986758156E+04  0.28986758156E+04  0.00000000000E+00 0. -1.
         -2   -1    0    0    0  501 -0.00000000000E+00 -0.00000000000E+00 -0.10313837917E+04  0.10313837917E+04  0.00000000000E+00 0.  1.
        -24    2    1    2    0    0  0.13918737872E+03  0.12212170104E+04 -0.30989052044E+03  0.12701345028E+04  0.80407758662E+02 0.  0.
        254    2    1    2    0    0 -0.13918737872E+03 -0.12212170104E+04  0.21771825443E+04  0.26599251045E+04  0.90792820045E+03 0.  0.
         23    2    4    4    0    0  0.24836897502E+02 -0.13144517157E+04  0.18758100427E+04  0.22924370512E+04  0.90576669001E+02 0.  0.
         23    2    4    4    0    0 -0.16402427622E+03  0.93234705272E+02  0.30137250169E+03  0.36748805334E+03  0.92873091470E+02 0.  0.
          3    1    3    3  502    0  0.11939890694E+02  0.16810392604E+03 -0.70532764495E+02  0.18269198616E+03  0.00000000000E+00 0. -1.
         -4    1    3    3    0  502  0.12724748802E+03  0.10531130844E+04 -0.23935775595E+03  0.10874425167E+04  0.00000000000E+00 0.  1.
         13    1    5    5    0    0 -0.32994803333E+02 -0.32787873862E+03  0.47061738058E+03  0.57452053330E+03  0.00000000000E+00 0. -1.
        -13    1    5    5    0    0  0.57831700836E+02 -0.98657297710E+03  0.14051926621E+04  0.17179165179E+04  0.00000000000E+00 0.  1.
          1    1    6    6  503    0 -0.16927649579E+03  0.85018563331E+02  0.30325555121E+03  0.35755645356E+03  0.00000000000E+00 0.  1.
         -1    1    6    6    0  503  0.52522195714E+01  0.82161419416E+01 -0.18830495236E+01  0.99315997875E+01  0.00000000000E+00 0. -1.
<mgrwt>
<rscale>  0 0.34581193E+04</rscale>
<asrwt>0</asrwt>
<pdfrwt beam="1">  1        1 0.44595012E+00 0.34581193E+04</pdfrwt>
<pdfrwt beam="2">  1       -2 0.15867443E+00 0.34581193E+04</pdfrwt>
<totfact> 0.13142003E-01</totfact>
</mgrwt>
</event>
<event>
12    5  0.5029243E-008  0.2033419E+04  0.7818608E-02  0.8591154E-01
         -2   -1    0    0    0  501 -0.00000000000E+00  0.00000000000E+00  0.10675227415E+04  0.10675227415E+04  0.00000000000E+00 0.  1.
          1   -1    0    0  501    0  0.00000000000E+00 -0.00000000000E+00 -0.96831464511E+03  0.96831464511E+03  0.00000000000E+00 0. -1.
        -24    2    1    2    0    0  0.41269819673E+03 -0.96103443026E+02  0.73154416515E+03  0.84918312326E+03  0.79996486895E+02 0.  0.
        254    2    1    2    0    0 -0.41269819673E+03  0.96103443026E+02 -0.63233606872E+03  0.11866542634E+04  0.91035364757E+03 0.  0.
         23    2    4    4    0    0  0.14762130296E+03 -0.26934827097E+03 -0.13323787118E+03  0.34704579414E+03  0.91366912812E+02 0.  0.
         23    2    4    4    0    0 -0.56031949969E+03  0.36545171399E+03 -0.49909819755E+03  0.83960846924E+03  0.91271429450E+02 0.  0.
          1    1    3    3  502    0  0.32825629985E+02  0.76034605937E+01  0.32239625303E+02  0.46633979420E+02  0.00000000000E+00 0. -1.
         -2    1    3    3    0  502  0.37987256675E+03 -0.10370690362E+03  0.69930453985E+03  0.80254914384E+03  0.00000000000E+00 0.  1.
         13    1    5    5    0    0  0.14114329669E+03 -0.17970745734E+03 -0.77512810068E+02  0.24129740187E+03  0.00000000000E+00 0.  1.
        -13    1    5    5    0    0  0.64780062667E+01 -0.89640813628E+02 -0.55725061107E+02  0.10574839227E+03  0.00000000000E+00 0. -1.
          4    1    6    6  503    0 -0.10894441392E+03  0.11657335515E+03 -0.11018053195E+03  0.19390199090E+03  0.00000000000E+00 0. -1.
         -4    1    6    6    0  503 -0.45137508577E+03  0.24887835884E+03 -0.38891766560E+03  0.64570647834E+03  0.00000000000E+00 0.  1.
<mgrwt>
<rscale>  0 0.20334187E+04</rscale>
<asrwt>0</asrwt>
<pdfrwt beam="1">  1        1 0.14897148E+00 0.20334187E+04</pdfrwt>
<pdfrwt beam="2">  1       -2 0.16423427E+00 0.20334187E+04</pdfrwt>
<totfact> 0.30468719E+00</totfact>
</mgrwt>
</event>
<event>
12    5  0.5029243E-008  0.1682489E+04  0.7818608E-02  0.8771415E-01
         -2   -1    0    0    0  501 -0.00000000000E+00  0.00000000000E+00  0.13000078762E+04  0.13000078762E+04  0.00000000000E+00 0.  1.
          1   -1    0    0  501    0  0.00000000000E+00 -0.00000000000E+00 -0.54437567880E+03  0.54437567880E+03  0.00000000000E+00 0. -1.
        -24    2    1    2    0    0  0.20579575198E+03 -0.10489120700E+03 -0.33188745229E+03  0.41272729792E+03  0.82707222301E+02 0.  0.
        254    2    1    2    0    0 -0.20579575198E+03  0.10489120700E+03  0.10875196497E+04  0.14316562570E+04  0.90199035089E+03 0.  0.
         23    2    4    4    0    0 -0.43444594595E+03 -0.24320185938E+03  0.59583598790E+03  0.78215659986E+03  0.94116937187E+02 0.  0.
         23    2    4    4    0    0  0.22865019397E+03  0.34809306638E+03  0.49168366176E+03  0.64949965719E+03  0.81530898348E+02 0.  0.
          1    1    3    3  502    0  0.19411431890E+03 -0.71990362973E+02 -0.25635366076E+03  0.32951506877E+03  0.00000000000E+00 0. -1.
         -2    1    3    3    0  502  0.11681433080E+02 -0.32900844027E+02 -0.75533791534E+02  0.83212229149E+02  0.00000000000E+00 0.  1.
         13    1    5    5    0    0 -0.33327779004E+03 -0.17568968068E+03  0.38444931406E+03  0.53827708879E+03  0.00000000000E+00 0.  1.
        -13    1    5    5    0    0 -0.10116815591E+03 -0.67512178700E+02  0.21138667384E+03  0.24387951107E+03  0.00000000000E+00 0. -1.
          1    1    6    6  503    0  0.10538150348E+03  0.19041924748E+03  0.19880100519E+03  0.29476531470E+03  0.00000000000E+00 0. -1.
         -1    1    6    6    0  503  0.12326869049E+03  0.15767381890E+03  0.29288265657E+03  0.35473434249E+03  0.00000000000E+00 0.  1.
<mgrwt>
<rscale>  0 0.16824894E+04</rscale>
<asrwt>0</asrwt>
<pdfrwt beam="1">  1        1 0.83750105E-01 0.16824894E+04</pdfrwt>
<pdfrwt beam="2">  1       -2 0.20000121E+00 0.16824894E+04</pdfrwt>
<totfact> 0.43614302E+00</totfact>
</mgrwt>
</event>
<event>
12    5  0.5029243E-008  0.1674427E+04  0.7818608E-02  0.8776085E-01
          1   -1    0    0  501    0  0.00000000000E+00  0.00000000000E+00  0.14776273891E+04  0.14776273891E+04  0.00000000000E+00 0. -1.
         -2   -1    0    0    0  501 -0.00000000000E+00 -0.00000000000E+00 -0.47435945753E+03  0.47435945753E+03  0.00000000000E+00 0.  1.
        -24    2    1    2    0    0  0.56613254749E+03 -0.94317487681E+02  0.50866543779E+03  0.77126286707E+03  0.81878157724E+02 0.  0.
        254    2    1    2    0    0 -0.56613254749E+03  0.94317487681E+02  0.49460249375E+03  0.11807239795E+04  0.90558027760E+03 0.  0.
         23    2    4    4    0    0 -0.27208774965E+03  0.38633491007E+03 -0.57025437120E+02  0.48471940080E+03  0.91731078643E+02 0.  0.
         23    2    4    4    0    0 -0.29404479784E+03 -0.29201742239E+03  0.55162793087E+03  0.69600457872E+03  0.91610487208E+02 0.  0.
          3    1    3    3  502    0  0.35594732987E+03 -0.77380044247E+02  0.27424111353E+03  0.45595434118E+03  0.00000000000E+00 0. -1.
         -4    1    3    3    0  502  0.21018521762E+03 -0.16937443435E+02  0.23442432426E+03  0.31530852589E+03  0.00000000000E+00 0.  1.
         13    1    5    5    0    0 -0.89301845588E+02  0.20486097925E+03 -0.35057829903E+02  0.22621205070E+03  0.00000000000E+00 0. -1.
        -13    1    5    5    0    0 -0.18278590406E+03  0.18147393082E+03 -0.21967607217E+02  0.25850735010E+03  0.00000000000E+00 0.  1.
          1    1    6    6  503    0 -0.99962416821E+02 -0.45347188723E+02  0.16189769975E+03  0.19560091381E+03  0.00000000000E+00 0. -1.
         -1    1    6    6    0  503 -0.19408238102E+03 -0.24667023366E+03  0.38973023112E+03  0.50040366490E+03  0.00000000000E+00 0.  1.
<mgrwt>
<rscale>  0 0.16744271E+04</rscale>
<asrwt>0</asrwt>
<pdfrwt beam="1">  1        1 0.22732729E+00 0.16744271E+04</pdfrwt>
<pdfrwt beam="2">  1       -2 0.72978379E-01 0.16744271E+04</pdfrwt>
<totfact> 0.96242969E+00</totfact>
</mgrwt>
</event>
<event>
12    5  0.5029243E-008  0.2471237E+04  0.7818608E-02  0.8413305E-01
          1   -1    0    0  501    0  0.00000000000E+00  0.00000000000E+00  0.11743166911E+04  0.11743166911E+04  0.00000000000E+00 0. -1.
         -2   -1    0    0    0  501 -0.00000000000E+00 -0.00000000000E+00 -0.13001199436E+04  0.13001199436E+04  0.00000000000E+00 0.  1.
        -24    2    1    2    0    0 -0.42042341109E+03 -0.56922877945E+03 -0.91926666371E+03  0.11628352694E+04  0.79733410246E+02 0.  0.
        254    2    1    2    0    0  0.42042341109E+03  0.56922877945E+03  0.79346341124E+03  0.13116013653E+04  0.76807337450E+03 0.  0.
         23    2    4    4    0    0  0.32530624088E+03  0.21290250092E+03 -0.35003173432E+02  0.40097800655E+03  0.91687045632E+02 0.  0.
         23    2    4    4    0    0  0.95117170213E+02  0.35632627853E+03  0.82846658467E+03  0.91062335878E+03  0.82839162222E+02 0.  0.
          3    1    3    3  502    0 -0.16213725878E+03 -0.16578962483E+03 -0.26868514977E+03  0.35491745532E+03  0.00000000000E+00 0. -1.
         -4    1    3    3    0  502 -0.25828615231E+03 -0.40343915462E+03 -0.65058151394E+03  0.80791781403E+03  0.00000000000E+00 0.  1.
         13    1    5    5    0    0  0.10180443778E+03  0.32405810006E+02 -0.38811125457E+02  0.11366874475E+03  0.00000000000E+00 0.  1.
        -13    1    5    5    0    0  0.22350180309E+03  0.18049669091E+03  0.38079520246E+01  0.28730926180E+03  0.00000000000E+00 0. -1.
          2    1    6    6  503    0  0.14473714658E+02  0.16446868619E+03  0.43933387227E+03  0.46933323820E+03  0.00000000000E+00 0. -1.
         -2    1    6    6    0  503  0.80643455555E+02  0.19185759234E+03  0.38913271240E+03  0.44129012058E+03  0.00000000000E+00 0.  1.
<mgrwt>
<rscale>  0 0.24712366E+04</rscale>
<asrwt>0</asrwt>
<pdfrwt beam="1">  1        1 0.18066411E+00 0.24712366E+04</pdfrwt>
<pdfrwt beam="2">  1       -2 0.20001845E+00 0.24712366E+04</pdfrwt>
<totfact> 0.11594787E+00</totfact>
</mgrwt>
</event>
<event>
12    5  0.5029243E-008  0.2893858E+04  0.7818608E-02  0.8274707E-01
         -2   -1    0    0    0  501 -0.00000000000E+00  0.00000000000E+00  0.86517186668E+03  0.86517186668E+03  0.00000000000E+00 0.  1.
          1   -1    0    0  501    0  0.00000000000E+00 -0.00000000000E+00 -0.24198697363E+04  0.24198697363E+04  0.00000000000E+00 0. -1.
        -24    2    1    2    0    0 -0.18097526629E+03  0.60516066983E+03 -0.19934435510E+04  0.20927145350E+04  0.81642209584E+02 0.  0.
        254    2    1    2    0    0  0.18097526629E+03 -0.60516066983E+03  0.43874568144E+03  0.11923270680E+04  0.91113916651E+03 0.  0.
         23    2    4    4    0    0 -0.20936208284E+03 -0.21985448937E+03  0.54062505779E+03  0.62699083281E+03  0.93132019679E+02 0.  0.
         23    2    4    4    0    0  0.39033734913E+03 -0.38530618046E+03 -0.10187937635E+03  0.56533623518E+03  0.91659983928E+02 0.  0.
          3    1    3    3  502    0 -0.14253576910E+03  0.55869628448E+03 -0.18057531600E+04  0.18955744403E+04  0.00000000000E+00 0. -1.
         -4    1    3    3    0  502 -0.38439497183E+02  0.46464385359E+02 -0.18769039104E+03  0.19714009470E+03  0.00000000000E+00 0.  1.
         13    1    5    5    0    0  0.11856421182E+01 -0.26506685088E+02  0.85669797906E+02  0.89684582704E+02  0.00000000000E+00 0. -1.
        -13    1    5    5    0    0 -0.21054772496E+03 -0.19334780428E+03  0.45495525988E+03  0.53730625010E+03  0.00000000000E+00 0.  1.
          3    1    6    6  503    0  0.11960116499E+03 -0.17735658646E+03 -0.24674171741E+02  0.21533372281E+03  0.00000000000E+00 0. -1.
         -3    1    6    6    0  503  0.27073618414E+03 -0.20794959401E+03 -0.77205204607E+02  0.35000251237E+03  0.00000000000E+00 0.  1.
<mgrwt>
<rscale>  0 0.28938578E+04</rscale>
<asrwt>0</asrwt>
<pdfrwt beam="1">  1        1 0.37228765E+00 0.28938578E+04</pdfrwt>
<pdfrwt beam="2">  1       -2 0.13310337E+00 0.28938578E+04</pdfrwt>
<totfact> 0.47548283E-01</totfact>
</mgrwt>
</event>
<event>
12    5  0.5029243E-008  0.2340323E+04  0.7818608E-02  0.8462190E-01
         -2   -1    0    0    0  501 -0.00000000000E+00  0.00000000000E+00  0.16842702404E+04  0.16842702404E+04  0.00000000000E+00 0.  1.
          1   -1    0    0  501    0  0.00000000000E+00 -0.00000000000E+00 -0.81297987035E+03  0.81297987035E+03  0.00000000000E+00 0. -1.
        -24    2    1    2    0    0 -0.13222197958E+03  0.41789389194E+03  0.13177117188E+04  0.13911917024E+04  0.83259966739E+02 0.  0.
        254    2    1    2    0    0  0.13222197958E+03 -0.41789389194E+03 -0.44642134874E+03  0.11060584084E+04  0.91211579602E+03 0.  0.
         23    2    4    4    0    0  0.29064485795E+03 -0.41696292674E+03 -0.65153141059E+03  0.83151509679E+03  0.92691215725E+02 0.  0.
         23    2    4    4    0    0 -0.15842287838E+03 -0.93096520086E+00  0.20511006185E+03  0.27454331160E+03  0.90582654962E+02 0.  0.
          3    1    3    3  502    0  0.40849560683E+01  0.79218176788E+02  0.28579870520E+03  0.29660260669E+03  0.00000000000E+00 0. -1.
         -4    1    3    3    0  502 -0.13630693565E+03  0.33867571515E+03  0.10319130136E+04  0.10945890957E+04  0.00000000000E+00 0.  1.
         13    1    5    5    0    0  0.29133722385E+03 -0.41937202689E+03 -0.63524882754E+03  0.81504070318E+03  0.00000000000E+00 0. -1.
        -13    1    5    5    0    0 -0.69236589630E+00  0.24091001570E+01 -0.16282583052E+02  0.16474393614E+02  0.00000000000E+00 0.  1.
          2    1    6    6  503    0 -0.16701286124E+03 -0.13178831518E+02  0.18861389753E+03  0.25227401721E+03  0.00000000000E+00 0. -1.
         -2    1    6    6    0  503  0.85899828640E+01  0.12247866317E+02  0.16496164327E+02  0.22269294386E+02  0.00000000000E+00 0.  1.
<mgrwt>
<rscale>  0 0.23403229E+04</rscale>
<asrwt>0</asrwt>
<pdfrwt beam="1">  1        1 0.12507383E+00 0.23403229E+04</pdfrwt>
<pdfrwt beam="2">  1       -2 0.25911850E+00 0.23403229E+04</pdfrwt>
<totfact> 0.96081146E-01</totfact>
</mgrwt>
</event>
<event>
12    5  0.5291025E-008  0.1458970E+04  0.7818608E-02  0.8912205E-01
         -2   -1    0    0    0  501 -0.00000000000E+00  0.00000000000E+00  0.78750233393E+03  0.78750233393E+03  0.00000000000E+00 0.  1.
          1   -1    0    0  501    0  0.00000000000E+00 -0.00000000000E+00 -0.67574196612E+03  0.67574196612E+03  0.00000000000E+00 0. -1.
        -24    2    1    2    0    0  0.23236263651E+02  0.47713104899E+02 -0.40990600570E+03  0.42049314828E+03  0.77298705759E+02 0.  0.
        254    2    1    2    0    0 -0.23236263651E+02 -0.47713104899E+02  0.52166637351E+03  0.10427511518E+04  0.90131997367E+03 0.  0.
         23    2    4    4    0    0 -0.85016544461E+02  0.36070987732E+03  0.13249401233E+02  0.38139468282E+03  0.89145549661E+02 0.  0.
         23    2    4    4    0    0  0.61780280810E+02 -0.40842298221E+03  0.50841697228E+03  0.66135646895E+03  0.90985855083E+02 0.  0.
          3    1    3    3  502    0 -0.21924561287E+02  0.42630903091E+02 -0.22925948104E+03  0.23421782583E+03  0.00000000000E+00 0. -1.
         -4    1    3    3    0  502  0.45160824938E+02  0.50822018085E+01 -0.18064652466E+03  0.18627532245E+03  0.00000000000E+00 0.  1.
         13    1    5    5    0    0 -0.10056788992E+03  0.33584513469E+03  0.38590495025E+01  0.35060055226E+03  0.00000000000E+00 0. -1.
        -13    1    5    5    0    0  0.15551345463E+02  0.24864742625E+02  0.93903517307E+01  0.30794130563E+02  0.00000000000E+00 0.  1.
          3    1    6    6  503    0  0.52482654267E+02 -0.40960815130E+03  0.49094860178E+03  0.64153238125E+03  0.00000000000E+00 0. -1.
         -3    1    6    6    0  503  0.92976265436E+01  0.11851690840E+01  0.17468370503E+02  0.19824087700E+02  0.00000000000E+00 0.  1.
<mgrwt>
<rscale>  0 0.14589700E+04</rscale>
<asrwt>0</asrwt>
<pdfrwt beam="1">  1        1 0.10396030E+00 0.14589700E+04</pdfrwt>
<pdfrwt beam="2">  1       -2 0.12115420E+00 0.14589700E+04</pdfrwt>
<totfact> 0.12657926E+01</totfact>
</mgrwt>
</event>
<event>
12    5  0.5029243E-008  0.1659458E+04  0.7818608E-02  0.8784831E-01
          1   -1    0    0  501    0  0.00000000000E+00  0.00000000000E+00  0.67702344726E+03  0.67702344726E+03  0.00000000000E+00 0. -1.
         -2   -1    0    0    0  501 -0.00000000000E+00 -0.00000000000E+00 -0.10168774424E+04  0.10168774424E+04  0.00000000000E+00 0.  1.
        -24    2    1    2    0    0 -0.22032273919E+03  0.21181543827E+03 -0.62511693380E+03  0.70040943690E+03  0.79964423841E+02 0.  0.
        254    2    1    2    0    0  0.22032273919E+03 -0.21181543827E+03  0.28526293869E+03  0.99349145273E+03  0.90124493517E+03 0.  0.
         23    2    4    4    0    0  0.30151665803E+03  0.49420354452E+02  0.52743277577E+03  0.61607717608E+03  0.89504678262E+02 0.  0.
         23    2    4    4    0    0 -0.81193918841E+02 -0.26123579272E+03 -0.24216983709E+03  0.37741427665E+03  0.94650485292E+02 0.  0.
          1    1    3    3  502    0 -0.10948334808E+01  0.56575791471E+01  0.88506431604E+00  0.58301115770E+01  0.00000000000E+00 0. -1.
         -2    1    3    3    0  502 -0.21922790571E+03  0.20615785913E+03 -0.62600199812E+03  0.69457932532E+03  0.00000000000E+00 0.  1.
         13    1    5    5    0    0 -0.65017538981E+00 -0.10273551311E+02  0.19612533252E+02  0.22149944585E+02  0.00000000000E+00 0.  1.
        -13    1    5    5    0    0  0.30216683342E+03  0.59693905762E+02  0.50782024252E+03  0.59392723150E+03  0.00000000000E+00 0. -1.
          3    1    6    6  503    0 -0.44843665004E+02 -0.24085702942E+03 -0.22396362075E+03  0.33193789529E+03  0.00000000000E+00 0. -1.
         -3    1    6    6    0  503 -0.36350253837E+02 -0.20378763308E+02 -0.18206216331E+02  0.45476381354E+02  0.00000000000E+00 0.  1.
<mgrwt>
<rscale>  0 0.16594576E+04</rscale>
<asrwt>0</asrwt>
<pdfrwt beam="1">  1        1 0.10415745E+00 0.16594576E+04</pdfrwt>
<pdfrwt beam="2">  1       -2 0.15644268E+00 0.16594576E+04</pdfrwt>
<totfact> 0.64103117E+00</totfact>
</mgrwt>
</event>
<event>
12    5  0.5029243E-008  0.2197196E+04  0.7818608E-02  0.8519596E-01
         -2   -1    0    0    0  501 -0.00000000000E+00  0.00000000000E+00  0.17678938249E+04  0.17678938249E+04  0.00000000000E+00 0.  1.
          1   -1    0    0  501    0  0.00000000000E+00 -0.00000000000E+00 -0.68268664547E+03  0.68268664547E+03  0.00000000000E+00 0. -1.
        -24    2    1    2    0    0 -0.30862846674E+03  0.64652303150E+03  0.10397318283E+04  0.12650859143E+04  0.78463589742E+02 0.  0.
        254    2    1    2    0    0  0.30862846674E+03 -0.64652303150E+03  0.45475351077E+02  0.11854945561E+04  0.94344357234E+03 0.  0.
         23    2    4    4    0    0  0.50651633895E+03 -0.18958450083E+03 -0.24621474735E+03  0.60130499796E+03  0.91896214169E+02 0.  0.
         23    2    4    4    0    0 -0.19788787221E+03 -0.45693853068E+03  0.29169009843E+03  0.58418955812E+03  0.90784885917E+02 0.  0.
          3    1    3    3  502    0 -0.17467714951E+03  0.39264441668E+03  0.55783725684E+03  0.70417622058E+03  0.00000000000E+00 0. -1.
         -4    1    3    3    0  502 -0.13395131723E+03  0.25387861482E+03  0.48189457149E+03  0.56090969370E+03  0.00000000000E+00 0.  1.
         13    1    5    5    0    0  0.43376630565E+03 -0.15029134381E+03 -0.24094343532E+03  0.51845388895E+03  0.00000000000E+00 0. -1.
        -13    1    5    5    0    0  0.72750033296E+02 -0.39293157016E+02 -0.52713120290E+01  0.82851109005E+02  0.00000000000E+00 0.  1.
          1    1    6    6  503    0 -0.19879858789E+03 -0.45081576975E+03  0.27041460492E+03  0.56203184550E+03  0.00000000000E+00 0. -1.
         -1    1    6    6    0  503  0.91071567647E+00 -0.61227609217E+01  0.21275493512E+02  0.22157712619E+02  0.00000000000E+00 0.  1.
<mgrwt>
<rscale>  0 0.21971959E+04</rscale>
<asrwt>0</asrwt>
<pdfrwt beam="1">  1        1 0.10502872E+00 0.21971959E+04</pdfrwt>
<pdfrwt beam="2">  1       -2 0.27198366E+00 0.21971959E+04</pdfrwt>
<totfact> 0.10658531E+00</totfact>
</mgrwt>
</event>
<event>
12    5  0.5029243E-008  0.1506188E+04  0.7818608E-02  0.8880348E-01
          1   -1    0    0  501    0  0.00000000000E+00  0.00000000000E+00  0.21741962534E+04  0.21741962534E+04  0.00000000000E+00 0. -1.
         -2   -1    0    0    0  501 -0.00000000000E+00 -0.00000000000E+00 -0.26085537701E+03  0.26085537701E+03  0.00000000000E+00 0.  1.
        -24    2    1    2    0    0 -0.17212587989E+03  0.15740136687E+03 -0.59149736417E+02  0.25316431031E+03  0.78682703812E+02 0.  0.
        254    2    1    2    0    0  0.17212587989E+03 -0.15740136687E+03  0.19724906128E+04  0.21818873200E+04  0.90305622812E+03 0.  0.
         23    2    4    4    0    0  0.48386776358E+03 -0.57943136917E+02  0.65483622066E+03  0.82109528567E+03  0.88890789828E+02 0.  0.
         23    2    4    4    0    0 -0.31174188369E+03 -0.99458229954E+02  0.13176543921E+04  0.13607920344E+04  0.92015880430E+02 0.  0.
          3    1    3    3  502    0 -0.25488979230E+02 -0.61309996801E+00  0.90615327390E+01  0.27058738502E+02  0.00000000000E+00 0. -1.
         -4    1    3    3    0  502 -0.14663690066E+03  0.15801446684E+03 -0.68211269156E+02  0.22610557181E+03  0.00000000000E+00 0.  1.
         13    1    5    5    0    0  0.28328831169E+03 -0.50685233677E+02  0.45124038540E+03  0.53520009891E+03  0.00000000000E+00 0. -1.
        -13    1    5    5    0    0  0.20057945189E+03 -0.72579032394E+01  0.20359583525E+03  0.28589518676E+03  0.00000000000E+00 0.  1.
          4    1    6    6  503    0 -0.52686229813E+02  0.47960354823E+01  0.12227595723E+03  0.13323006599E+03  0.00000000000E+00 0. -1.
         -4    1    6    6    0  503 -0.25905565388E+03 -0.10425426544E+03  0.11953784349E+04  0.12275619684E+04  0.00000000000E+00 0.  1.
<mgrwt>
<rscale>  0 0.15061883E+04</rscale>
<asrwt>0</asrwt>
<pdfrwt beam="1">  1        1 0.33449172E+00 0.15061883E+04</pdfrwt>
<pdfrwt beam="2">  1       -2 0.40131598E-01 0.15061883E+04</pdfrwt>
<totfact> 0.11329544E+01</totfact>
</mgrwt>
</event>
<event>
12    5  0.5029243E-008  0.2217838E+04  0.7818608E-02  0.8511040E-01
          1   -1    0    0  501    0  0.00000000000E+00  0.00000000000E+00  0.12357985872E+04  0.12357985872E+04  0.00000000000E+00 0. -1.
         -2   -1    0    0    0  501 -0.00000000000E+00 -0.00000000000E+00 -0.99506596001E+03  0.99506596001E+03  0.00000000000E+00 0.  1.
        -24    2    1    2    0    0  0.29223473465E+03  0.74257473086E+03  0.56211148515E+03  0.97986800744E+03  0.85753246183E+02 0.  0.
        254    2    1    2    0    0 -0.29223473465E+03 -0.74257473086E+03 -0.32137885795E+03  0.12509965398E+04  0.90823433164E+03 0.  0.
         23    2    4    4    0    0  0.75906344137E+02  0.16839692871E+03  0.18599291108E+02  0.20733545060E+03  0.92318777969E+02 0.  0.
         23    2    4    4    0    0 -0.36814107878E+03 -0.91097165957E+03 -0.33997814905E+03  0.10436610892E+04  0.90808087765E+02 0.  0.
          1    1    3    3  502    0  0.21889641874E+03  0.63720829713E+03  0.48420361309E+03  0.82970066590E+03  0.00000000000E+00 0. -1.
         -2    1    3    3    0  502  0.73338315910E+02  0.10536643373E+03  0.77907872062E+02  0.15016734154E+03  0.00000000000E+00 0.  1.
         13    1    5    5    0    0  0.12742163431E+01  0.89987667230E+02 -0.20391371831E+02  0.92277905947E+02  0.00000000000E+00 0.  1.
        -13    1    5    5    0    0  0.74632127794E+02  0.78409261483E+02  0.38990662939E+02  0.11505754465E+03  0.00000000000E+00 0. -1.
          2    1    6    6  503    0 -0.25665758857E+03 -0.73014264557E+03 -0.27830841620E+03  0.82245788657E+03  0.00000000000E+00 0. -1.
         -2    1    6    6    0  503 -0.11148349022E+03 -0.18082901400E+03 -0.61669732852E+02  0.22120320261E+03  0.00000000000E+00 0.  1.
<mgrwt>
<rscale>  0 0.22178378E+04</rscale>
<asrwt>0</asrwt>
<pdfrwt beam="1">  1        1 0.19012286E+00 0.22178378E+04</pdfrwt>
<pdfrwt beam="2">  1       -2 0.15308707E+00 0.22178378E+04</pdfrwt>
<totfact> 0.22808631E+00</totfact>
</mgrwt>
</event>
<event>
12    5  0.5029243E-008  0.2145709E+04  0.7818608E-02  0.8541371E-01
         -2   -1    0    0    0  501 -0.00000000000E+00  0.00000000000E+00  0.62993285687E+03  0.62993285687E+03  0.00000000000E+00 0.  1.
          1   -1    0    0  501    0  0.00000000000E+00 -0.00000000000E+00 -0.18272058811E+04  0.18272058811E+04  0.00000000000E+00 0. -1.
        -24    2    1    2    0    0  0.87061150872E+03  0.32093339653E+02 -0.64311598248E+03  0.10858212323E+04  0.80094944061E+02 0.  0.
        254    2    1    2    0    0 -0.87061150872E+03 -0.32093339653E+02 -0.55415704174E+03  0.13713175056E+04  0.90245625533E+03 0.  0.
         23    2    4    4    0    0 -0.63549739291E+03  0.13099063526E+03  0.89298572772E+02  0.66126916990E+03  0.91034043286E+02 0.  0.
         23    2    4    4    0    0 -0.23511411581E+03 -0.16308397492E+03 -0.64345561451E+03  0.71004833574E+03  0.90876184531E+02 0.  0.
          3    1    3    3  502    0  0.20178496963E+03  0.20085097203E+02 -0.11182856639E+03  0.23157334337E+03  0.00000000000E+00 0. -1.
         -4    1    3    3    0  502  0.66882653909E+03  0.12008242450E+02 -0.53128741609E+03  0.85424788895E+03  0.00000000000E+00 0.  1.
         13    1    5    5    0    0 -0.48303645792E+03  0.11494623323E+03  0.31813579560E+02  0.49754292283E+03  0.00000000000E+00 0. -1.
        -13    1    5    5    0    0 -0.15246093499E+03  0.16044402035E+02  0.57484993212E+02  0.16372624707E+03  0.00000000000E+00 0.  1.
          1    1    6    6  503    0 -0.22300658173E+03 -0.15619541851E+03 -0.53099492512E+03  0.59672820845E+03  0.00000000000E+00 0. -1.
         -1    1    6    6    0  503 -0.12107534084E+02 -0.68885564082E+01 -0.11246068939E+03  0.11332012729E+03  0.00000000000E+00 0.  1.
<mgrwt>
<rscale>  0 0.21457092E+04</rscale>
<asrwt>0</asrwt>
<pdfrwt beam="1">  1        1 0.28110859E+00 0.21457092E+04</pdfrwt>
<pdfrwt beam="2">  1       -2 0.96912749E-01 0.21457092E+04</pdfrwt>
<totfact> 0.27935452E+00</totfact>
</mgrwt>
</event>
<event>
12    5  0.5029243E-008  0.1610266E+04  0.7818608E-02  0.8814266E-01
          1   -1    0    0  501    0  0.00000000000E+00  0.00000000000E+00  0.40596304961E+03  0.40596304961E+03  0.00000000000E+00 0. -1.
         -2   -1    0    0    0  501 -0.00000000000E+00 -0.00000000000E+00 -0.15967934858E+04  0.15967934858E+04  0.00000000000E+00 0.  1.
        -24    2    1    2    0    0  0.41888739663E+02  0.55154536595E+03 -0.26798219399E+03  0.62019055330E+03  0.82854745752E+02 0.  0.
        254    2    1    2    0    0 -0.41888739663E+02 -0.55154536595E+03 -0.92284824224E+03  0.13825659821E+04  0.86826427980E+03 0.  0.
         23    2    4    4    0    0 -0.38039449758E+03 -0.36311594001E+03 -0.22508917282E+03  0.57932306929E+03  0.91634727071E+02 0.  0.
         23    2    4    4    0    0  0.33850575792E+03 -0.18842942594E+03 -0.69775906941E+03  0.80324291286E+03  0.90772580699E+02 0.  0.
          1    1    3    3  502    0  0.51630868340E+02  0.54521279337E+03 -0.26143217651E+03  0.60685213977E+03  0.00000000000E+00 0. -1.
         -2    1    3    3    0  502 -0.97421286778E+01  0.63325725788E+01 -0.65500174772E+01  0.13338413534E+02  0.00000000000E+00 0.  1.
         13    1    5    5    0    0 -0.37175366485E+03 -0.35237049186E+03 -0.19842958749E+03  0.54930870378E+03  0.00000000000E+00 0. -1.
        -13    1    5    5    0    0 -0.86408327322E+01 -0.10745448154E+02 -0.26659585337E+02  0.30014365505E+02  0.00000000000E+00 0.  1.
          3    1    6    6  503    0  0.29772965985E+03 -0.13852686556E+03 -0.62523856711E+03  0.70622652785E+03  0.00000000000E+00 0. -1.
         -3    1    6    6    0  503  0.40776098064E+02 -0.49902560380E+02 -0.72520502303E+02  0.97016385009E+02  0.00000000000E+00 0.  1.
<mgrwt>
<rscale>  0 0.16102660E+04</rscale>
<asrwt>0</asrwt>
<pdfrwt beam="1">  1        1 0.62455855E-01 0.16102660E+04</pdfrwt>
<pdfrwt beam="2">  1       -2 0.24566053E+00 0.16102660E+04</pdfrwt>
<totfact> 0.33699773E+00</totfact>
</mgrwt>
</event>
<event>
12    5  0.5029243E-008  0.2104601E+04  0.7818608E-02  0.8559219E-01
          1   -1    0    0  501    0  0.00000000000E+00  0.00000000000E+00  0.18445441180E+04  0.18445441180E+04  0.00000000000E+00 0. -1.
         -2   -1    0    0    0  501 -0.00000000000E+00 -0.00000000000E+00 -0.60033080662E+03  0.60033080662E+03  0.00000000000E+00 0.  1.
        -24    2    1    2    0    0  0.81625620136E+03 -0.20629106242E+03  0.48846234557E+03  0.97671990647E+03  0.80969895310E+02 0.  0.
        254    2    1    2    0    0 -0.81625620136E+03  0.20629106242E+03  0.75575096577E+03  0.14681550181E+04  0.93567593013E+03 0.  0.
         23    2    4    4    0    0  0.60845594067E+02 -0.25949604843E+02 -0.14610580320E+03  0.18556100333E+03  0.93329587582E+02 0.  0.
         23    2    4    4    0    0 -0.87710179543E+03  0.23224066726E+03  0.90185676897E+03  0.12825940148E+04  0.91970038171E+02 0.  0.
          3    1    3    3  502    0  0.60245850502E+03 -0.17899286887E+03  0.39090180768E+03  0.74013439363E+03  0.00000000000E+00 0. -1.
         -4    1    3    3    0  502  0.21379769634E+03 -0.27298193547E+02  0.97560537889E+02  0.23658551284E+03  0.00000000000E+00 0.  1.
         13    1    5    5    0    0  0.58576038628E+02 -0.56831883290E+02 -0.11963907081E+03  0.14482583514E+03  0.00000000000E+00 0. -1.
        -13    1    5    5    0    0  0.22695554396E+01  0.30882278447E+02 -0.26466732394E+02  0.40735168191E+02  0.00000000000E+00 0.  1.
          2    1    6    6  503    0 -0.18746496695E+03  0.89418522031E+02  0.20757143537E+03  0.29364040372E+03  0.00000000000E+00 0. -1.
         -2    1    6    6    0  503 -0.68963682848E+03  0.14282214523E+03  0.69428533361E+03  0.98895361106E+03  0.00000000000E+00 0.  1.
<mgrwt>
<rscale>  0 0.21046013E+04</rscale>
<asrwt>0</asrwt>
<pdfrwt beam="1">  1        1 0.28377602E+00 0.21046013E+04</pdfrwt>
<pdfrwt beam="2">  1       -2 0.92358586E-01 0.21046013E+04</pdfrwt>
<totfact> 0.30532199E+00</totfact>
</mgrwt>
</event>
<event>
12    5  0.5029243E-008  0.1751329E+04  0.7818608E-02  0.8732619E-01
         -2   -1    0    0    0  501 -0.00000000000E+00  0.00000000000E+00  0.91682084086E+03  0.91682084086E+03  0.00000000000E+00 0.  1.
          1   -1    0    0  501    0  0.00000000000E+00 -0.00000000000E+00 -0.83635544127E+03  0.83635544127E+03  0.00000000000E+00 0. -1.
        -24    2    1    2    0    0 -0.89079745404E+02  0.55505321990E+03 -0.32260112150E+03  0.65312438489E+03  0.80502798630E+02 0.  0.
        254    2    1    2    0    0  0.89079745404E+02 -0.55505321990E+03  0.40306652109E+03  0.11000518972E+04  0.85535505974E+03 0.  0.
         23    2    4    4    0    0 -0.26097638757E+03 -0.52745808977E+02  0.38954756240E+03  0.48080455051E+03  0.92384615523E+02 0.  0.
         23    2    4    4    0    0  0.35005613298E+03 -0.50230741092E+03  0.13518958687E+02  0.61924734672E+03  0.91828551530E+02 0.  0.
          3    1    3    3  502    0 -0.83212468465E+02  0.44586094992E+03 -0.29253791809E+03  0.53971727330E+03  0.00000000000E+00 0. -1.
         -4    1    3    3    0  502 -0.58672769397E+01  0.10919226998E+03 -0.30063203407E+02  0.11340711160E+03  0.00000000000E+00 0.  1.
         13    1    5    5    0    0 -0.50690586104E+02 -0.48027990716E+02  0.75672386154E+02  0.10296860414E+03  0.00000000000E+00 0. -1.
        -13    1    5    5    0    0 -0.21028580147E+03 -0.47178182603E+01  0.31387517624E+03  0.37783594637E+03  0.00000000000E+00 0.  1.
          1    1    6    6  503    0  0.45569941046E+02 -0.29468138793E+02  0.16910556533E+02  0.56841513466E+02  0.00000000000E+00 0. -1.
         -1    1    6    6    0  503  0.30448619193E+03 -0.47283927213E+03 -0.33915978463E+01  0.56240583326E+03  0.00000000000E+00 0.  1.
<mgrwt>
<rscale>  0 0.17513288E+04</rscale>
<asrwt>0</asrwt>
<pdfrwt beam="1">  1        1 0.12867007E+00 0.17513288E+04</pdfrwt>
<pdfrwt beam="2">  1       -2 0.14104936E+00 0.17513288E+04</pdfrwt>
<totfact> 0.60130271E+00</totfact>
</mgrwt>
</event>
<event>
12    5  0.5029243E-008  0.1980208E+04  0.7818608E-02  0.8615930E-01
          1   -1    0    0  501    0  0.00000000000E+00  0.00000000000E+00  0.19030925419E+04  0.19030925419E+04  0.00000000000E+00 0. -1.
         -2   -1    0    0    0  501 -0.00000000000E+00 -0.00000000000E+00 -0.51511197706E+03  0.51511197706E+03  0.00000000000E+00 0.  1.
        -24    2    1    2    0    0 -0.23014143541E+02 -0.73647648229E+03  0.88724141387E+03  0.11561495050E+04  0.80975871387E+02 0.  0.
        254    2    1    2    0    0  0.23014143541E+02  0.73647648229E+03  0.50073915100E+03  0.12620550139E+04  0.89393282808E+03 0.  0.
         23    2    4    4    0    0 -0.27174241861E+03  0.61722629330E+02  0.42531999696E+03  0.51694870072E+03  0.93194604566E+02 0.  0.
         23    2    4    4    0    0  0.29475656215E+03  0.67475385296E+03  0.75419154039E+02  0.74510631323E+03  0.85563872068E+02 0.  0.
          1    1    3    3  502    0 -0.27699208961E+01 -0.30598401748E+03  0.30792792029E+03  0.43411230749E+03  0.00000000000E+00 0. -1.
         -2    1    3    3    0  502 -0.20244222645E+02 -0.43049246480E+03  0.57931349358E+03  0.72203719755E+03  0.00000000000E+00 0.  1.
         13    1    5    5    0    0 -0.56918023051E+02  0.53784588552E+02  0.99897168701E+02  0.12693261058E+03  0.00000000000E+00 0. -1.
        -13    1    5    5    0    0 -0.21482439556E+03  0.79380407788E+01  0.32542282825E+03  0.39001609014E+03  0.00000000000E+00 0.  1.
          3    1    6    6  503    0  0.77585189639E+01  0.30196106207E+02  0.20698157537E+02  0.37422094704E+02  0.00000000000E+00 0. -1.
         -3    1    6    6    0  503  0.28699804319E+03  0.64455774675E+03  0.54720996502E+02  0.70768421852E+03  0.00000000000E+00 0.  1.
<mgrwt>
<rscale>  0 0.19802078E+04</rscale>
<asrwt>0</asrwt>
<pdfrwt beam="1">  1        1 0.29278346E+00 0.19802078E+04</pdfrwt>
<pdfrwt beam="2">  1       -2 0.79247998E-01 0.19802078E+04</pdfrwt>
<totfact> 0.39947055E+00</totfact>
</mgrwt>
</event>
<event>
12    5  0.5029243E-008  0.1721454E+04  0.7818608E-02  0.8749222E-01
          1   -1    0    0  501    0  0.00000000000E+00  0.00000000000E+00  0.22705458775E+04  0.22705458775E+04  0.00000000000E+00 0. -1.
         -2   -1    0    0    0  501 -0.00000000000E+00 -0.00000000000E+00 -0.32628775431E+03  0.32628775431E+03  0.00000000000E+00 0.  1.
        -24    2    1    2    0    0  0.20524709015E+03  0.10784398923E+03  0.15804870561E+04  0.15994415172E+04  0.80728795220E+02 0.  0.
        254    2    1    2    0    0 -0.20524709015E+03 -0.10784398923E+03  0.36377106706E+03  0.99739211460E+03  0.89928023830E+03 0.  0.
         23    2    4    4    0    0  0.22968481430E+03 -0.15705240351E+03 -0.14015017121E+03  0.32374673750E+03  0.88030154964E+02 0.  0.
         23    2    4    4    0    0 -0.43493190446E+03  0.49208414284E+02  0.50392123828E+03  0.67364537709E+03  0.90962905294E+02 0.  0.
          3    1    3    3  502    0  0.10785152919E+03  0.25791935689E+02  0.93148114247E+03  0.93805879084E+03  0.00000000000E+00 0. -1.
         -4    1    3    3    0  502  0.97395560963E+02  0.82052053538E+02  0.64900591361E+03  0.66138272633E+03  0.00000000000E+00 0.  1.
         13    1    5    5    0    0  0.15879827986E+03 -0.91426309405E+02 -0.46149758986E+02  0.18895889498E+03  0.00000000000E+00 0.  1.
        -13    1    5    5    0    0  0.70886534443E+02 -0.65626094106E+02 -0.94000412227E+02  0.13478784252E+03  0.00000000000E+00 0. -1.
          1    1    6    6  503    0 -0.19445958517E+02  0.23581643087E+02  0.39997523775E+02  0.50339260041E+02  0.00000000000E+00 0. -1.
         -1    1    6    6    0  503 -0.41548594594E+03  0.25626771197E+02  0.46392371450E+03  0.62330611705E+03  0.00000000000E+00 0.  1.
<mgrwt>
<rscale>  0 0.17214544E+04</rscale>
<asrwt>0</asrwt>
<pdfrwt beam="1">  1        1 0.34931474E+00 0.17214544E+04</pdfrwt>
<pdfrwt beam="2">  1       -2 0.50198117E-01 0.17214544E+04</pdfrwt>
<totfact> 0.61093444E+00</totfact>
</mgrwt>
</event>
<event>
12    5  0.5029243E-008  0.2345339E+04  0.7818608E-02  0.8460256E-01
         -2   -1    0    0    0  501 -0.00000000000E+00  0.00000000000E+00  0.30324997894E+04  0.30324997894E+04  0.00000000000E+00 0.  1.
          1   -1    0    0  501    0  0.00000000000E+00 -0.00000000000E+00 -0.45347196081E+03  0.45347196081E+03  0.00000000000E+00 0. -1.
        -24    2    1    2    0    0 -0.22479951690E+03  0.23009624244E+03 -0.30307097400E+03  0.44913731457E+03  0.79957541719E+02 0.  0.
        254    2    1    2    0    0  0.22479951690E+03 -0.23009624244E+03  0.28820988026E+04  0.30368344356E+04  0.90132723134E+03 0.  0.
         23    2    4    4    0    0 -0.19149538806E+03  0.18761512001E+03  0.15729079138E+04  0.15981810405E+04  0.90958321451E+02 0.  0.
         23    2    4    4    0    0  0.41629490496E+03 -0.41771136245E+03  0.13091908888E+04  0.14386533951E+04  0.89210860410E+02 0.  0.
          1    1    3    3  502    0 -0.20302548854E+03  0.20810724509E+03 -0.30043784723E+03  0.41807998578E+03  0.00000000000E+00 0. -1.
         -2    1    3    3    0  502 -0.21774028354E+02  0.21988997351E+02 -0.26331267638E+01  0.31057328794E+02  0.00000000000E+00 0.  1.
         13    1    5    5    0    0 -0.32206176570E+02  0.88407586335E+02  0.45425631731E+03  0.46389863219E+03  0.00000000000E+00 0.  1.
        -13    1    5    5    0    0 -0.15928921149E+03  0.99207533675E+02  0.11186515964E+04  0.11342824083E+04  0.00000000000E+00 0. -1.
          1    1    6    6  503    0  0.32713369740E+03 -0.35171816006E+03  0.98223699169E+03  0.10933945436E+04  0.00000000000E+00 0. -1.
         -1    1    6    6    0  503  0.89161207563E+02 -0.65993202391E+02  0.32695389713E+03  0.34525885151E+03  0.00000000000E+00 0.  1.
<mgrwt>
<rscale>  0 0.23453389E+04</rscale>
<asrwt>0</asrwt>
<pdfrwt beam="1">  1        1 0.69764919E-01 0.23453389E+04</pdfrwt>
<pdfrwt beam="2">  1       -2 0.46653842E+00 0.23453389E+04</pdfrwt>
<totfact> 0.10779372E-01</totfact>
</mgrwt>
</event>
<event>
12    5  0.5029243E-008  0.1357935E+04  0.7818608E-02  0.8984843E-01
         -2   -1    0    0    0  501 -0.00000000000E+00  0.00000000000E+00  0.35671615617E+03  0.35671615617E+03  0.00000000000E+00 0.  1.
          1   -1    0    0  501    0  0.00000000000E+00 -0.00000000000E+00 -0.12923353884E+04  0.12923353884E+04  0.00000000000E+00 0. -1.
        -24    2    1    2    0    0  0.19312153075E+03  0.15337946704E+03 -0.61591416316E+03  0.66810327896E+03  0.78680038369E+02 0.  0.
        254    2    1    2    0    0 -0.19312153075E+03 -0.15337946704E+03 -0.31970506911E+03  0.98094826565E+03  0.89399495643E+03 0.  0.
         23    2    4    4    0    0 -0.30363490666E+02  0.28404900715E+03 -0.39856989820E+03  0.49888904989E+03  0.91796188992E+02 0.  0.
         23    2    4    4    0    0 -0.16275804008E+03 -0.43742847419E+03  0.78864829094E+02  0.48205921576E+03  0.91255556495E+02 0.  0.
          1    1    3    3  502    0  0.12023075254E+03  0.68170684490E+02 -0.42253569179E+03  0.44456617833E+03  0.00000000000E+00 0. -1.
         -2    1    3    3    0  502  0.72890778205E+02  0.85208782546E+02 -0.19337847137E+03  0.22353710063E+03  0.00000000000E+00 0.  1.
         13    1    5    5    0    0  0.22135012952E+02  0.16552743122E+03 -0.18653498797E+03  0.25036890985E+03  0.00000000000E+00 0. -1.
        -13    1    5    5    0    0 -0.52498503618E+02  0.11852157593E+03 -0.21203491024E+03  0.24852014003E+03  0.00000000000E+00 0.  1.
          2    1    6    6  503    0 -0.16903819505E+03 -0.36921675759E+03  0.56407069475E+02  0.40997156360E+03  0.00000000000E+00 0. -1.
         -2    1    6    6    0  503  0.62801549674E+01 -0.68211716597E+02  0.22457759619E+02  0.72087652165E+02  0.00000000000E+00 0.  1.
<mgrwt>
<rscale>  0 0.13579351E+04</rscale>
<asrwt>0</asrwt>
<pdfrwt beam="1">  1        1 0.19882083E+00 0.13579351E+04</pdfrwt>
<pdfrwt beam="2">  1       -2 0.54879409E-01 0.13579351E+04</pdfrwt>
<totfact> 0.24549290E+01</totfact>
</mgrwt>
</event>
<event>
12    5  0.5029243E-008  0.3564028E+04  0.7818608E-02  0.8098782E-01
          1   -1    0    0  501    0  0.00000000000E+00  0.00000000000E+00  0.26299766121E+04  0.26299766121E+04  0.00000000000E+00 0. -1.
         -2   -1    0    0    0  501 -0.00000000000E+00 -0.00000000000E+00 -0.12074529578E+04  0.12074529578E+04  0.00000000000E+00 0.  1.
        -24    2    1    2    0    0 -0.16504006960E+04  0.15409482763E+03  0.85040134639E+03  0.18649980736E+04  0.86415806079E+02 0.  0.
        254    2    1    2    0    0  0.16504006960E+04 -0.15409482763E+03  0.57212230789E+03  0.19724314963E+04  0.90310265165E+03 0.  0.
         23    2    4    4    0    0  0.63602185685E+03 -0.43601789193E+03  0.47738157801E+03  0.91158162151E+03  0.91937354626E+02 0.  0.
         23    2    4    4    0    0  0.10143788391E+04  0.28192306430E+03  0.94740729885E+02  0.10608498748E+04  0.89339843298E+02 0.  0.
          1    1    3    3  502    0 -0.10104834965E+04  0.97241586828E+02  0.47335239553E+03  0.11200871900E+04  0.00000000000E+00 0. -1.
         -2    1    3    3    0  502 -0.63991719950E+03  0.56853240798E+02  0.37704895087E+03  0.74491088363E+03  0.00000000000E+00 0.  1.
         13    1    5    5    0    0  0.75996920844E+02 -0.27449203536E+02  0.28326282597E+02  0.85623414078E+02  0.00000000000E+00 0. -1.
        -13    1    5    5    0    0  0.56002493600E+03 -0.40856868840E+03  0.44905529541E+03  0.82595820743E+03  0.00000000000E+00 0.  1.
          2    1    6    6  503    0  0.41252716712E+03  0.69886879614E+02  0.44496644370E+02  0.42076453143E+03  0.00000000000E+00 0. -1.
         -2    1    6    6    0  503  0.60185167200E+03  0.21203618469E+03  0.50244085516E+02  0.64008534340E+03  0.00000000000E+00 0.  1.
<mgrwt>
<rscale>  0 0.35640275E+04</rscale>
<asrwt>0</asrwt>
<pdfrwt beam="1">  1        1 0.40461178E+00 0.35640275E+04</pdfrwt>
<pdfrwt beam="2">  1       -2 0.18576199E+00 0.35640275E+04</pdfrwt>
<totfact> 0.12996530E-01</totfact>
</mgrwt>
</event>
<event>
12    5  0.5029243E-008  0.1762908E+04  0.7818608E-02  0.8726277E-01
         -2   -1    0    0    0  501 -0.00000000000E+00  0.00000000000E+00  0.29816703257E+03  0.29816703257E+03  0.00000000000E+00 0.  1.
          1   -1    0    0  501    0  0.00000000000E+00 -0.00000000000E+00 -0.26057923675E+04  0.26057923675E+04  0.00000000000E+00 0. -1.
        -24    2    1    2    0    0 -0.17306446895E+03 -0.62760606127E+03 -0.10317946527E+04  0.12226155033E+04  0.79672987277E+02 0.  0.
        254    2    1    2    0    0  0.17306446895E+03  0.62760606127E+03 -0.12758306822E+04  0.16813438968E+04  0.88052977863E+03 0.  0.
         23    2    4    4    0    0 -0.11445397116E+03  0.70566629096E+01  0.75302848012E+02  0.16459417393E+03  0.90946221301E+02 0.  0.
         23    2    4    4    0    0  0.28751844010E+03  0.62054939836E+03 -0.13511335302E+04  0.15167497228E+04  0.84967618010E+02 0.  0.
          3    1    3    3  502    0 -0.45675726934E+02 -0.71830820887E+02 -0.11744658458E+03  0.14505047083E+03  0.00000000000E+00 0. -1.
         -4    1    3    3    0  502 -0.12738874201E+03 -0.55577524038E+03 -0.91434806813E+03  0.10775650324E+04  0.00000000000E+00 0.  1.
         13    1    5    5    0    0 -0.76075551940E+02  0.20622897849E+02 -0.19551399139E+00  0.78821518283E+02  0.00000000000E+00 0. -1.
        -13    1    5    5    0    0 -0.38378419217E+02 -0.13566234940E+02  0.75498362003E+02  0.85772655649E+02  0.00000000000E+00 0.  1.
          2    1    6    6  503    0  0.24100016124E+03  0.44369068918E+03 -0.10331265713E+04  0.11499100042E+04  0.00000000000E+00 0. -1.
         -2    1    6    6    0  503  0.46518278864E+02  0.17685870918E+03 -0.31800695887E+03  0.36683971864E+03  0.00000000000E+00 0.  1.
<mgrwt>
<rscale>  0 0.17629083E+04</rscale>
<asrwt>0</asrwt>
<pdfrwt beam="1">  1        1 0.40089115E+00 0.17629083E+04</pdfrwt>
<pdfrwt beam="2">  1       -2 0.45871849E-01 0.17629083E+04</pdfrwt>
<totfact> 0.42894180E+00</totfact>
</mgrwt>
</event>
<event>
12    5  0.5029243E-008  0.2220880E+04  0.7818608E-02  0.8509787E-01
         -2   -1    0    0    0  501 -0.00000000000E+00  0.00000000000E+00  0.11037746077E+04  0.11037746077E+04  0.00000000000E+00 0.  1.
          1   -1    0    0  501    0  0.00000000000E+00 -0.00000000000E+00 -0.11171452849E+04  0.11171452849E+04  0.00000000000E+00 0. -1.
        -24    2    1    2    0    0  0.47888052264E+03 -0.41423418376E+03  0.66889196365E+03  0.92443316597E+03  0.79017120519E+02 0.  0.
        254    2    1    2    0    0 -0.47888052264E+03  0.41423418376E+03 -0.68226264088E+03  0.12964867266E+04  0.90248490694E+03 0.  0.
         23    2    4    4    0    0  0.20947389880E+03  0.17114672889E+03  0.11167189358E+02  0.28550135361E+03  0.90641048680E+02 0.  0.
         23    2    4    4    0    0 -0.68835442144E+03  0.24308745487E+03 -0.69342983024E+03  0.10109853730E+04  0.91231435342E+02 0.  0.
          1    1    3    3  502    0  0.13706753949E+03 -0.76511122381E+02  0.18232776355E+03  0.24059275881E+03  0.00000000000E+00 0. -1.
         -2    1    3    3    0  502  0.34181298316E+03 -0.33772306138E+03  0.48656420010E+03  0.68384040716E+03  0.00000000000E+00 0.  1.
         13    1    5    5    0    0  0.13347941692E+03  0.11140550149E+03 -0.36608515475E+02  0.17767420721E+03  0.00000000000E+00 0.  1.
        -13    1    5    5    0    0  0.75994481874E+02  0.59741227401E+02  0.47775704833E+02  0.10782714639E+03  0.00000000000E+00 0. -1.
          1    1    6    6  503    0 -0.54827961908E+03  0.19218589909E+03 -0.59942182109E+03  0.83477690440E+03  0.00000000000E+00 0. -1.
         -1    1    6    6    0  503 -0.14007480236E+03  0.50901555786E+02 -0.94008009144E+02  0.17620846864E+03  0.00000000000E+00 0.  1.
<mgrwt>
<rscale>  0 0.22208796E+04</rscale>
<asrwt>0</asrwt>
<pdfrwt beam="1">  1        1 0.17186851E+00 0.22208796E+04</pdfrwt>
<pdfrwt beam="2">  1       -2 0.16981148E+00 0.22208796E+04</pdfrwt>
<totfact> 0.21002625E+00</totfact>
</mgrwt>
</event>
<event>
12    5  0.5029243E-008  0.1626593E+04  0.7818608E-02  0.8804375E-01
         -2   -1    0    0    0  501 -0.00000000000E+00  0.00000000000E+00  0.10173720356E+04  0.10173720356E+04  0.00000000000E+00 0.  1.
          1   -1    0    0  501    0  0.00000000000E+00 -0.00000000000E+00 -0.65015670722E+03  0.65015670722E+03  0.00000000000E+00 0. -1.
        -24    2    1    2    0    0  0.29616428955E+03  0.34624360060E+03 -0.20046145887E+03  0.50403205511E+03  0.79155535036E+02 0.  0.
        254    2    1    2    0    0 -0.29616428955E+03 -0.34624360060E+03  0.56767678723E+03  0.11634966877E+04  0.90767267785E+03 0.  0.
         23    2    4    4    0    0 -0.37692932392E+03 -0.95220704403E+02  0.73569417136E+03  0.83706143705E+03  0.91012295081E+02 0.  0.
         23    2    4    4    0    0  0.80765034371E+02 -0.25102289620E+03 -0.16801738412E+03  0.32643525062E+03  0.93779775483E+02 0.  0.
          1    1    3    3  502    0  0.26200601537E+03  0.26498009488E+03 -0.14484054708E+03  0.39980043378E+03  0.00000000000E+00 0. -1.
         -2    1    3    3    0  502  0.34158274178E+02  0.81263505720E+02 -0.55620911791E+02  0.10423162133E+03  0.00000000000E+00 0.  1.
         13    1    5    5    0    0 -0.87047179204E+01 -0.75866333607E+01  0.72841692072E+02  0.73751211677E+02  0.00000000000E+00 0. -1.
        -13    1    5    5    0    0 -0.36822460600E+03 -0.87634071042E+02  0.66285247928E+03  0.76331022538E+03  0.00000000000E+00 0.  1.
          1    1    6    6  503    0  0.34676663322E+02 -0.16196894513E+02 -0.96439939741E+01  0.39469190400E+02  0.00000000000E+00 0. -1.
         -1    1    6    6    0  503  0.46088371048E+02 -0.23482600168E+03 -0.15837339015E+03  0.28696606022E+03  0.00000000000E+00 0.  1.
<mgrwt>
<rscale>  0 0.16265931E+04</rscale>
<asrwt>0</asrwt>
<pdfrwt beam="1">  1        1 0.10002411E+00 0.16265931E+04</pdfrwt>
<pdfrwt beam="2">  1       -2 0.15651877E+00 0.16265931E+04</pdfrwt>
<totfact> 0.68187935E+00</totfact>
</mgrwt>
</event>
<event>
12    5  0.5029243E-008  0.2428876E+04  0.7818608E-02  0.8428771E-01
         -2   -1    0    0    0  501 -0.00000000000E+00  0.00000000000E+00  0.16303709944E+04  0.16303709944E+04  0.00000000000E+00 0.  1.
          1   -1    0    0  501    0  0.00000000000E+00 -0.00000000000E+00 -0.90461573615E+03  0.90461573615E+03  0.00000000000E+00 0. -1.
        -24    2    1    2    0    0 -0.63634404148E+03  0.57922083190E+02 -0.55637914289E+03  0.85095886115E+03  0.79275001680E+02 0.  0.
        254    2    1    2    0    0  0.63634404148E+03 -0.57922083190E+02  0.12821344011E+04  0.16840278694E+04  0.88532058345E+03 0.  0.
         23    2    4    4    0    0  0.72119700684E+02 -0.19720418656E+03 -0.44796601229E+02  0.23244211450E+03  0.89060982964E+02 0.  0.
         23    2    4    4    0    0  0.56422434079E+03  0.13928210337E+03  0.13269310023E+04  0.14515857549E+04  0.92772343630E+02 0.  0.
          3    1    3    3  502    0 -0.39456174054E+03  0.70997296657E+02 -0.32564440000E+03  0.51649187650E+03  0.00000000000E+00 0. -1.
         -4    1    3    3    0  502 -0.24178230093E+03 -0.13075213467E+02 -0.23073474288E+03  0.33446698466E+03  0.00000000000E+00 0.  1.
         13    1    5    5    0    0  0.68675778489E+02 -0.95615524103E+02  0.78233699750E+01  0.11798260939E+03  0.00000000000E+00 0. -1.
        -13    1    5    5    0    0  0.34439221945E+01 -0.10158866246E+03 -0.52619971204E+02  0.11445950511E+03  0.00000000000E+00 0.  1.
          1    1    6    6  503    0  0.22329537226E+03  0.95452903364E+02  0.60815861654E+03  0.65485035153E+03  0.00000000000E+00 0. -1.
         -1    1    6    6    0  503  0.34092896853E+03  0.43829200005E+02  0.71877238578E+03  0.79673540333E+03  0.00000000000E+00 0.  1.
<mgrwt>
<rscale>  0 0.24288757E+04</rscale>
<asrwt>0</asrwt>
<pdfrwt beam="1">  1        1 0.13917165E+00 0.24288757E+04</pdfrwt>
<pdfrwt beam="2">  1       -2 0.25082631E+00 0.24288757E+04</pdfrwt>
<totfact> 0.89790772E-01</totfact>
</mgrwt>
</event>
<event>
12    5  0.5029243E-008  0.1150201E+04  0.7818608E-02  0.9157598E-01
         -2   -1    0    0    0  501 -0.00000000000E+00  0.00000000000E+00  0.48675623814E+03  0.48675623814E+03  0.00000000000E+00 0.  1.
          1   -1    0    0  501    0  0.00000000000E+00 -0.00000000000E+00 -0.67947932870E+03  0.67947932870E+03  0.00000000000E+00 0. -1.
        -24    2    1    2    0    0  0.71803157658E+02  0.47922453689E+02 -0.23028610787E+03  0.25847914667E+03  0.79545727510E+02 0.  0.
        254    2    1    2    0    0 -0.71803157658E+02 -0.47922453689E+02  0.37563017313E+02  0.90775642018E+03  0.90286127566E+03 0.  0.
         23    2    4    4    0    0  0.37470445803E+03  0.10118018822E+03 -0.95251606775E+02  0.40995021340E+03  0.91353420914E+02 0.  0.
         23    2    4    4    0    0 -0.44650761569E+03 -0.14910264191E+03  0.13281462409E+03  0.49780620678E+03  0.92577785919E+02 0.  0.
          3    1    3    3  502    0  0.61609095613E+02  0.13919786542E+02 -0.20600732343E+03  0.21547263962E+03  0.00000000000E+00 0. -1.
         -4    1    3    3    0  502  0.10194062045E+02  0.34002667147E+02 -0.24278784445E+02  0.43006507045E+02  0.00000000000E+00 0.  1.
         13    1    5    5    0    0  0.93766192258E+02  0.57839852059E+02 -0.54060850438E+02  0.12271969217E+03  0.00000000000E+00 0.  1.
        -13    1    5    5    0    0  0.28093826577E+03  0.43340336162E+02 -0.41190756336E+02  0.28723052122E+03  0.00000000000E+00 0. -1.
          1    1    6    6  503    0 -0.35354798355E+03 -0.14962658117E+03  0.84731103355E+02  0.39314583851E+03  0.00000000000E+00 0. -1.
         -1    1    6    6    0  503 -0.92959632142E+02  0.52393926132E+00  0.48083520733E+02  0.10466036827E+03  0.00000000000E+00 0.  1.
<mgrwt>
<rscale>  0 0.11502014E+04</rscale>
<asrwt>0</asrwt>
<pdfrwt beam="1">  1        1 0.10453528E+00 0.11502014E+04</pdfrwt>
<pdfrwt beam="2">  1       -2 0.74885575E-01 0.11502014E+04</pdfrwt>
<totfact> 0.39725806E+01</totfact>
</mgrwt>
</event>
<event>
12    5  0.5029243E-008  0.1718780E+04  0.7818608E-02  0.8750725E-01
         -2   -1    0    0    0  501 -0.00000000000E+00  0.00000000000E+00  0.17447948442E+03  0.17447948442E+03  0.00000000000E+00 0.  1.
          1   -1    0    0  501    0  0.00000000000E+00 -0.00000000000E+00 -0.42328825817E+04  0.42328825817E+04  0.00000000000E+00 0. -1.
        -24    2    1    2    0    0  0.61278393528E+03  0.57405150216E+02 -0.17947738598E+04  0.18990473807E+04  0.79801275472E+02 0.  0.
        254    2    1    2    0    0 -0.61278393528E+03 -0.57405150216E+02 -0.22636292374E+04  0.25083146854E+04  0.88815861980E+03 0.  0.
         23    2    4    4    0    0 -0.82829096210E+03  0.15018001252E+02 -0.18241843671E+04  0.20056137778E+04  0.92447619360E+02 0.  0.
         23    2    4    4    0    0  0.21550702682E+03 -0.72423151468E+02 -0.43944487039E+03  0.50270090766E+03  0.88927031714E+02 0.  0.
          3    1    3    3  502    0  0.24768400552E+03  0.26727528354E+02 -0.84863539360E+03  0.88444545260E+03  0.00000000000E+00 0. -1.
         -4    1    3    3    0  502  0.36509992976E+03  0.30677621862E+02 -0.94613846624E+03  0.10146019281E+04  0.00000000000E+00 0.  1.
         13    1    5    5    0    0 -0.37346795379E+02 -0.10512956480E+02 -0.13101219846E+03  0.13663638434E+03  0.00000000000E+00 0.  1.
        -13    1    5    5    0    0 -0.79094416672E+03  0.25530957732E+02 -0.16931721686E+04  0.18689773934E+04  0.00000000000E+00 0. -1.
          4    1    6    6  503    0 -0.39027312289E+01  0.68836496047E+01 -0.44180639247E+01  0.90628489873E+01  0.00000000000E+00 0.  1.
         -4    1    6    6    0  503  0.21940975805E+03 -0.79306801073E+02 -0.43502680646E+03  0.49363805867E+03  0.00000000000E+00 0. -1.
<mgrwt>
<rscale>  0 0.17187800E+04</rscale>
<asrwt>0</asrwt>
<pdfrwt beam="1">  1        1 0.65121269E+00 0.17187800E+04</pdfrwt>
<pdfrwt beam="2">  1       -2 0.26842998E-01 0.17187800E+04</pdfrwt>
<totfact> 0.63002006E-01</totfact>
</mgrwt>
</event>
<event>
12    5  0.5029243E-008  0.1378126E+04  0.7818608E-02  0.8969806E-01
         -2   -1    0    0    0  501 -0.00000000000E+00  0.00000000000E+00  0.25644785681E+03  0.25644785681E+03  0.00000000000E+00 0.  1.
          1   -1    0    0  501    0  0.00000000000E+00 -0.00000000000E+00 -0.18514778094E+04  0.18514778094E+04  0.00000000000E+00 0. -1.
        -24    2    1    2    0    0  0.30604545742E+03  0.82548944455E+01 -0.86871162705E+02  0.32908423868E+03  0.83772739899E+02 0.  0.
        254    2    1    2    0    0 -0.30604545742E+03 -0.82548944455E+01 -0.15081587899E+04  0.17788414275E+04  0.89218939887E+03 0.  0.
         23    2    4    4    0    0 -0.28057918130E+03 -0.26504692825E+03 -0.14441214771E+04  0.14976139977E+04  0.91576711702E+02 0.  0.
         23    2    4    4    0    0 -0.25466276118E+02  0.25679203381E+03 -0.64037312713E+02  0.28122742982E+03  0.91637383298E+02 0.  0.
          1    1    3    3  502    0  0.12288280208E+03 -0.60812272936E+01  0.60857515748E+01  0.12318360583E+03  0.00000000000E+00 0. -1.
         -2    1    3    3    0  502  0.18316265534E+03  0.14336121739E+02 -0.92956914280E+02  0.20590063285E+03  0.00000000000E+00 0.  1.
         13    1    5    5    0    0 -0.94828629971E+02 -0.10963796799E+03 -0.39107873792E+03  0.41707976736E+03  0.00000000000E+00 0. -1.
        -13    1    5    5    0    0 -0.18575055133E+03 -0.15540896026E+03 -0.10530427392E+04  0.10805342303E+04  0.00000000000E+00 0.  1.
          4    1    6    6  503    0 -0.44101394434E+02  0.64736722548E+02 -0.36131341180E+02  0.86262680533E+02  0.00000000000E+00 0. -1.
         -4    1    6    6    0  503  0.18635118316E+02  0.19205531126E+03 -0.27905971533E+02  0.19496474929E+03  0.00000000000E+00 0.  1.
<mgrwt>
<rscale>  0 0.13781256E+04</rscale>
<asrwt>0</asrwt>
<pdfrwt beam="1">  1        1 0.28484273E+00 0.13781256E+04</pdfrwt>
<pdfrwt beam="2">  1       -2 0.39453517E-01 0.13781256E+04</pdfrwt>
<totfact> 0.19589089E+01</totfact>
</mgrwt>
</event>
<event>
12    5  0.5029243E-008  0.1537771E+04  0.7818608E-02  0.8859717E-01
          1   -1    0    0  501    0  0.00000000000E+00  0.00000000000E+00  0.54264948515E+03  0.54264948515E+03  0.00000000000E+00 0. -1.
         -2   -1    0    0    0  501 -0.00000000000E+00 -0.00000000000E+00 -0.10894417877E+04  0.10894417877E+04  0.00000000000E+00 0.  1.
        -24    2    1    2    0    0 -0.25691974556E+03  0.11783379501E+03  0.26086167122E+03  0.39303762733E+03  0.80852990574E+02 0.  0.
        254    2    1    2    0    0  0.25691974556E+03 -0.11783379501E+03 -0.80765397372E+03  0.12390536455E+04  0.89613416193E+03 0.  0.
         23    2    4    4    0    0  0.29279531277E+03 -0.13454670468E+03  0.81374324618E+02  0.34450799011E+03  0.90730720398E+02 0.  0.
         23    2    4    4    0    0 -0.35875567216E+02  0.16712909666E+02 -0.88902829834E+03  0.89454565535E+03  0.90962830799E+02 0.  0.
          1    1    3    3  502    0 -0.22507219274E+03  0.12730400090E+03  0.24502088045E+03  0.35622890456E+03  0.00000000000E+00 0. -1.
         -2    1    3    3    0  502 -0.31847552818E+02 -0.94702058849E+01  0.15840790775E+02  0.36808722775E+02  0.00000000000E+00 0.  1.
         13    1    5    5    0    0  0.80004833130E+02 -0.76765120490E+02  0.50591674910E+02  0.12187360099E+03  0.00000000000E+00 0. -1.
        -13    1    5    5    0    0  0.21279047964E+03 -0.57781584189E+02  0.30782649708E+02  0.22263438912E+03  0.00000000000E+00 0.  1.
          3    1    6    6  503    0 -0.65387165657E+02  0.39446274353E+00 -0.60420454395E+03  0.60773248059E+03  0.00000000000E+00 0. -1.
         -3    1    6    6    0  503  0.29511598441E+02  0.16318446922E+02 -0.28482375439E+03  0.28681317476E+03  0.00000000000E+00 0.  1.
<mgrwt>
<rscale>  0 0.15377711E+04</rscale>
<asrwt>0</asrwt>
<pdfrwt beam="1">  1        1 0.83484536E-01 0.15377711E+04</pdfrwt>
<pdfrwt beam="2">  1       -2 0.16760643E+00 0.15377711E+04</pdfrwt>
<totfact> 0.73884857E+00</totfact>
</mgrwt>
</event>
<event>
12    5  0.5029243E-008  0.1202207E+04  0.7818608E-02  0.9110927E-01
          1   -1    0    0  501    0  0.00000000000E+00  0.00000000000E+00  0.18506379472E+04  0.18506379472E+04  0.00000000000E+00 0. -1.
         -2   -1    0    0    0  501 -0.00000000000E+00 -0.00000000000E+00 -0.19524371523E+03  0.19524371523E+03  0.00000000000E+00 0.  1.
        -24    2    1    2    0    0  0.86389300086E+02  0.23244543125E+03  0.32365353934E+03  0.41887449583E+03  0.95969995579E+02 0.  0.
        254    2    1    2    0    0 -0.86389300086E+02 -0.23244543125E+03  0.13317406926E+04  0.16270071666E+04  0.90117981451E+03 0.  0.
         23    2    4    4    0    0  0.14261092143E+03 -0.37671633224E+03  0.19821813434E+03  0.45812205037E+03  0.91281511619E+02 0.  0.
         23    2    4    4    0    0 -0.22900022151E+03  0.14427090099E+03  0.11335225583E+04  0.11688851162E+04  0.90353917883E+02 0.  0.
          3    1    3    3  502    0  0.62876397978E+02  0.12062090835E+03  0.24475111516E+03  0.28001063074E+03  0.00000000000E+00 0. -1.
         -4    1    3    3    0  502  0.23512902107E+02  0.11182452290E+03  0.78902424181E+02  0.13886386509E+03  0.00000000000E+00 0.  1.
         13    1    5    5    0    0  0.37443647968E+02 -0.21694963495E+03  0.85987811819E+02  0.23635370668E+03  0.00000000000E+00 0.  1.
        -13    1    5    5    0    0  0.10516727346E+03 -0.15976669729E+03  0.11223032252E+03  0.22176834369E+03  0.00000000000E+00 0. -1.
          3    1    6    6  503    0 -0.42864981425E+02  0.73019587334E+02  0.28791918758E+03  0.30011118830E+03  0.00000000000E+00 0. -1.
         -3    1    6    6    0  503 -0.18613524009E+03  0.71251313657E+02  0.84560337069E+03  0.86877392792E+03  0.00000000000E+00 0.  1.
<mgrwt>
<rscale>  0 0.12022070E+04</rscale>
<asrwt>0</asrwt>
<pdfrwt beam="1">  1        1 0.28471352E+00 0.12022070E+04</pdfrwt>
<pdfrwt beam="2">  1       -2 0.30037496E-01 0.12022070E+04</pdfrwt>
<totfact> 0.33479782E+01</totfact>
</mgrwt>
</event>
<event>
12    5  0.5029243E-008  0.1844998E+04  0.7818608E-02  0.8682730E-01
          1   -1    0    0  501    0  0.00000000000E+00  0.00000000000E+00  0.88136032763E+03  0.88136032763E+03  0.00000000000E+00 0. -1.
         -2   -1    0    0    0  501 -0.00000000000E+00 -0.00000000000E+00 -0.96555760604E+03  0.96555760604E+03  0.00000000000E+00 0.  1.
        -24    2    1    2    0    0  0.18137200725E+03 -0.63580741830E+03 -0.28598812115E+03  0.72484284037E+03  0.80380716716E+02 0.  0.
        254    2    1    2    0    0 -0.18137200725E+03  0.63580741830E+03  0.20179084274E+03  0.11220750933E+04  0.88384732426E+03 0.  0.
         23    2    4    4    0    0  0.22696467228E+03  0.63972849683E+03  0.13469254627E+03  0.69789617258E+03  0.90285511340E+02 0.  0.
         23    2    4    4    0    0 -0.40833667954E+03 -0.39210785341E+01  0.67098296475E+02  0.42417892072E+03  0.93120119639E+02 0.  0.
          1    1    3    3  502    0  0.12617855184E+03 -0.52370579520E+03 -0.20743826284E+03  0.57725160871E+03  0.00000000000E+00 0. -1.
         -2    1    3    3    0  502  0.55193455416E+02 -0.11210162310E+03 -0.78549858311E+02  0.14759123166E+03  0.00000000000E+00 0.  1.
         13    1    5    5    0    0  0.12407052501E+03  0.39661129097E+03  0.12405970371E+03  0.43368746971E+03  0.00000000000E+00 0.  1.
        -13    1    5    5    0    0  0.10289414728E+03  0.24311720586E+03  0.10632842554E+02  0.26420870287E+03  0.00000000000E+00 0. -1.
          4    1    6    6  503    0 -0.38022044754E+03 -0.15868674216E+02  0.38778286945E+02  0.38252210274E+03  0.00000000000E+00 0.  1.
         -4    1    6    6    0  503 -0.28116232001E+02  0.11947595681E+02  0.28320009530E+02  0.41656817981E+02  0.00000000000E+00 0. -1.
<mgrwt>
<rscale>  0 0.18449977E+04</rscale>
<asrwt>0</asrwt>
<pdfrwt beam="1">  1        1 0.13559390E+00 0.18449977E+04</pdfrwt>
<pdfrwt beam="2">  1       -2 0.14854732E+00 0.18449977E+04</pdfrwt>
<totfact> 0.47732625E+00</totfact>
</mgrwt>
</event>
<event>
12    5  0.5029243E-008  0.1952437E+04  0.7818608E-02  0.8629187E-01
          1   -1    0    0  501    0  0.00000000000E+00  0.00000000000E+00  0.25146956983E+03  0.25146956983E+03  0.00000000000E+00 0. -1.
         -2   -1    0    0    0  501 -0.00000000000E+00 -0.00000000000E+00 -0.37897317418E+04  0.37897317418E+04  0.00000000000E+00 0.  1.
        -24    2    1    2    0    0  0.66132476932E+03  0.17726164864E+03 -0.20759473869E+04  0.21867617639E+04  0.59977632855E+02 0.  0.
        254    2    1    2    0    0 -0.66132476932E+03 -0.17726164864E+03 -0.14623147851E+04  0.18544395478E+04  0.91203583422E+03 0.  0.
         23    2    4    4    0    0 -0.50397812332E+03 -0.52507114462E+03 -0.80994094482E+03  0.10930120822E+04  0.94749258552E+02 0.  0.
         23    2    4    4    0    0 -0.15734664600E+03  0.34780949598E+03 -0.65237384031E+03  0.76142746558E+03  0.91927935501E+02 0.  0.
          1    1    3    3  502    0  0.62090444142E+03  0.18054671870E+03 -0.19626082496E+04  0.20663858750E+04  0.00000000000E+00 0. -1.
         -2    1    3    3    0  502  0.40420327900E+02 -0.32850700623E+01 -0.11333913728E+03  0.12037588892E+03  0.00000000000E+00 0.  1.
         13    1    5    5    0    0 -0.12013892047E+03 -0.72524523544E+02 -0.16517051752E+03  0.21673593746E+03  0.00000000000E+00 0. -1.
        -13    1    5    5    0    0 -0.38383920285E+03 -0.45254662107E+03 -0.64477042729E+03  0.87627614472E+03  0.00000000000E+00 0.  1.
          3    1    6    6  503    0 -0.16220700522E+02  0.13706042464E+03 -0.20438428368E+03  0.24662036928E+03  0.00000000000E+00 0. -1.
         -3    1    6    6    0  503 -0.14112594548E+03  0.21074907133E+03 -0.44798955662E+03  0.51480709630E+03  0.00000000000E+00 0.  1.
<mgrwt>
<rscale>  0 0.19524366E+04</rscale>
<asrwt>0</asrwt>
<pdfrwt beam="1">  1        1 0.38687629E-01 0.19524366E+04</pdfrwt>
<pdfrwt beam="2">  1       -2 0.58303561E+00 0.19524366E+04</pdfrwt>
<totfact> 0.52534762E-02</totfact>
</mgrwt>
</event>
<event>
12    5  0.5029243E-008  0.1073982E+04  0.7818608E-02  0.9230928E-01
          1   -1    0    0  501    0  0.00000000000E+00  0.00000000000E+00  0.10391015830E+04  0.10391015830E+04  0.00000000000E+00 0. -1.
         -2   -1    0    0    0  501 -0.00000000000E+00 -0.00000000000E+00 -0.27750853159E+03  0.27750853159E+03  0.00000000000E+00 0.  1.
        -24    2    1    2    0    0 -0.69373882403E+02 -0.47973206009E+02  0.25875802958E+03  0.28375980123E+03  0.80310291195E+02 0.  0.
        254    2    1    2    0    0  0.69373882403E+02  0.47973206009E+02  0.50283502182E+03  0.10328503133E+04  0.89823301350E+03 0.  0.
         23    2    4    4    0    0 -0.36329473157E+03 -0.16425715191E+03  0.18555910021E+03  0.44882571449E+03  0.89715485700E+02 0.  0.
         23    2    4    4    0    0  0.43266861397E+03  0.21223035792E+03  0.31727592161E+03  0.58402459885E+03  0.90426032134E+02 0.  0.
          3    1    3    3  502    0 -0.49654169657E+02 -0.40667269770E+01  0.20770030069E+03  0.21359187658E+03  0.00000000000E+00 0. -1.
         -4    1    3    3    0  502 -0.19719712746E+02 -0.43906479032E+02  0.51057728887E+02  0.70167924658E+02  0.00000000000E+00 0.  1.
         13    1    5    5    0    0 -0.12860156669E+03 -0.13126410008E+02  0.51362688425E+02  0.13909993299E+03  0.00000000000E+00 0.  1.
        -13    1    5    5    0    0 -0.23469316488E+03 -0.15113074191E+03  0.13419641179E+03  0.30972578150E+03  0.00000000000E+00 0. -1.
          3    1    6    6  503    0  0.29551237982E+03  0.18770580139E+03  0.21065648459E+03  0.40857947697E+03  0.00000000000E+00 0. -1.
         -3    1    6    6    0  503  0.13715623416E+03  0.24524556530E+02  0.10661943703E+03  0.17544512188E+03  0.00000000000E+00 0.  1.
<mgrwt>
<rscale>  0 0.10739824E+04</rscale>
<asrwt>0</asrwt>
<pdfrwt beam="1">  1        1 0.15986178E+00 0.10739824E+04</pdfrwt>
<pdfrwt beam="2">  1       -2 0.42693621E-01 0.10739824E+04</pdfrwt>
<totfact> 0.64194487E+01</totfact>
</mgrwt>
</event>
<event>
12    5  0.5029243E-008  0.1194042E+04  0.7818608E-02  0.9118087E-01
         -2   -1    0    0    0  501 -0.00000000000E+00  0.00000000000E+00  0.15073260608E+03  0.15073260608E+03  0.00000000000E+00 0.  1.
          1   -1    0    0  501    0  0.00000000000E+00 -0.00000000000E+00 -0.23646784013E+04  0.23646784013E+04  0.00000000000E+00 0. -1.
        -24    2    1    2    0    0 -0.15116106911E+03  0.17116870863E+03 -0.29906471500E+03  0.38698927531E+03  0.90402432626E+02 0.  0.
        254    2    1    2    0    0  0.15116106911E+03 -0.17116870863E+03 -0.19148810802E+04  0.21284217321E+04  0.90070035113E+03 0.  0.
         23    2    4    4    0    0  0.21609778428E+03  0.33512720392E+03 -0.85531477536E+03  0.94841981386E+03  0.94489593004E+02 0.  0.
         23    2    4    4    0    0 -0.64936715171E+02 -0.50629591255E+03 -0.10595663049E+04  0.11800019182E+04  0.95767659166E+02 0.  0.
          3    1    3    3  502    0 -0.14340129815E+03  0.17574069328E+03 -0.25190059125E+03  0.33897290667E+03  0.00000000000E+00 0. -1.
         -4    1    3    3    0  502 -0.77597709615E+01 -0.45719846494E+01 -0.47164123746E+02  0.48016368644E+02  0.00000000000E+00 0.  1.
         13    1    5    5    0    0  0.16488108334E+03  0.16967920830E+03 -0.49013817246E+03  0.54425383184E+03  0.00000000000E+00 0. -1.
        -13    1    5    5    0    0  0.51216700937E+02  0.16544799563E+03 -0.36517660290E+03  0.40416598202E+03  0.00000000000E+00 0.  1.
          1    1    6    6  503    0 -0.84096928470E+02 -0.28297611710E+03 -0.60106603728E+03  0.66964778608E+03  0.00000000000E+00 0. -1.
         -1    1    6    6    0  503  0.19160213299E+02 -0.22331979546E+03 -0.45850026758E+03  0.51035413214E+03  0.00000000000E+00 0.  1.
<mgrwt>
<rscale>  0 0.11940421E+04</rscale>
<asrwt>0</asrwt>
<pdfrwt beam="1">  1        1 0.36379668E+00 0.11940421E+04</pdfrwt>
<pdfrwt beam="2">  1       -2 0.23189632E-01 0.11940421E+04</pdfrwt>
<totfact> 0.24120893E+01</totfact>
</mgrwt>
</event>
<event>
12    5  0.5029243E-008  0.1572650E+04  0.7818608E-02  0.8837529E-01
         -2   -1    0    0    0  501 -0.00000000000E+00  0.00000000000E+00  0.50616224055E+03  0.50616224055E+03  0.00000000000E+00 0.  1.
          1   -1    0    0  501    0  0.00000000000E+00 -0.00000000000E+00 -0.12215583087E+04  0.12215583087E+04  0.00000000000E+00 0. -1.
        -24    2    1    2    0    0 -0.40182511547E+03 -0.32763429668E+03 -0.15705361184E+03  0.54753147829E+03  0.79480984803E+02 0.  0.
        254    2    1    2    0    0  0.40182511547E+03  0.32763429668E+03 -0.55834245630E+03  0.11801890709E+04  0.90127259411E+03 0.  0.
         23    2    4    4    0    0  0.65130002876E+03  0.12204625340E+03 -0.50864197827E+03  0.84040163836E+03  0.92039319074E+02 0.  0.
         23    2    4    4    0    0 -0.24947491330E+03  0.20558804328E+03 -0.49700478023E+02  0.33978743259E+03  0.92093354409E+02 0.  0.
          3    1    3    3  502    0 -0.37675402971E+03 -0.31642686645E+03 -0.16501147288E+03  0.51893963704E+03  0.00000000000E+00 0. -1.
         -4    1    3    3    0  502 -0.25071085761E+02 -0.11207430231E+02  0.79578610410E+01  0.28591841248E+02  0.00000000000E+00 0.  1.
         13    1    5    5    0    0  0.60869232149E+03  0.10280033239E+03 -0.49621635918E+03  0.79202583651E+03  0.00000000000E+00 0. -1.
        -13    1    5    5    0    0  0.42607707277E+02  0.19245921008E+02 -0.12425619094E+02  0.48375801851E+02  0.00000000000E+00 0.  1.
          1    1    6    6  503    0 -0.96643865533E+02  0.65106468752E+02  0.24979516895E+02  0.11917577473E+03  0.00000000000E+00 0. -1.
         -1    1    6    6    0  503 -0.15283104776E+03  0.14048157452E+03 -0.74679994918E+02  0.22061165786E+03  0.00000000000E+00 0.  1.
<mgrwt>
<rscale>  0 0.15726496E+04</rscale>
<asrwt>0</asrwt>
<pdfrwt beam="1">  1        1 0.18793205E+00 0.15726496E+04</pdfrwt>
<pdfrwt beam="2">  1       -2 0.77871114E-01 0.15726496E+04</pdfrwt>
<totfact> 0.12765392E+01</totfact>
</mgrwt>
</event>
<event>
12    5  0.5029243E-008  0.2597356E+04  0.7818608E-02  0.8369100E-01
         -2   -1    0    0    0  501 -0.00000000000E+00  0.00000000000E+00  0.54307749630E+03  0.54307749630E+03  0.00000000000E+00 0.  1.
          1   -1    0    0  501    0  0.00000000000E+00 -0.00000000000E+00 -0.31055694251E+04  0.31055694251E+04  0.00000000000E+00 0. -1.
        -24    2    1    2    0    0  0.88798439649E+02 -0.40331930083E+03  0.36386616771E+03  0.55661759152E+03  0.82903159620E+02 0.  0.
        254    2    1    2    0    0 -0.88798439649E+02  0.40331930083E+03 -0.29263580965E+04  0.30920293299E+04  0.90913257921E+03 0.  0.
         23    2    4    4    0    0  0.28967788442E+03  0.20851197519E+03 -0.46649244340E+03  0.59400645663E+03  0.88532198909E+02 0.  0.
         23    2    4    4    0    0 -0.37847632407E+03  0.19480732564E+03 -0.24598656531E+04  0.24980228732E+04  0.89358950310E+02 0.  0.
          1    1    3    3  502    0  0.38821222666E+01 -0.88538396275E+02  0.12140564937E+03  0.15031117786E+03  0.00000000000E+00 0. -1.
         -2    1    3    3    0  502  0.84916317382E+02 -0.31478090456E+03  0.24246051834E+03  0.40630641366E+03  0.00000000000E+00 0.  1.
         13    1    5    5    0    0  0.31564944852E+02  0.65349275344E+02 -0.91009090870E+02  0.11640244049E+03  0.00000000000E+00 0. -1.
        -13    1    5    5    0    0  0.25811293957E+03  0.14316269985E+03 -0.37548335253E+03  0.47760401614E+03  0.00000000000E+00 0.  1.
          2    1    6    6  503    0 -0.10163093270E+03  0.34105730878E+02 -0.84169468218E+03  0.84849395129E+03  0.00000000000E+00 0. -1.
         -2    1    6    6    0  503 -0.27684539137E+03  0.16070159476E+03 -0.16181709709E+04  0.16495289220E+04  0.00000000000E+00 0.  1.
<mgrwt>
<rscale>  0 0.25973562E+04</rscale>
<asrwt>0</asrwt>
<pdfrwt beam="1">  1        1 0.47777992E+00 0.25973562E+04</pdfrwt>
<pdfrwt beam="2">  1       -2 0.83550383E-01 0.25973562E+04</pdfrwt>
<totfact> 0.48522784E-01</totfact>
</mgrwt>
</event>
<event>
12    5  0.5029243E-008  0.2084818E+04  0.7818608E-02  0.8567961E-01
         -2   -1    0    0    0  501 -0.00000000000E+00  0.00000000000E+00  0.49864789663E+03  0.49864789663E+03  0.00000000000E+00 0.  1.
          1   -1    0    0  501    0  0.00000000000E+00 -0.00000000000E+00 -0.21791255636E+04  0.21791255636E+04  0.00000000000E+00 0. -1.
        -24    2    1    2    0    0  0.55458628914E+03  0.49306087176E+03 -0.12094183380E+04  0.14211477805E+04  0.79330463591E+02 0.  0.
        254    2    1    2    0    0 -0.55458628914E+03 -0.49306087176E+03 -0.47105932898E+03  0.12566256797E+04  0.89807362290E+03 0.  0.
         23    2    4    4    0    0 -0.35712000386E+03  0.16223634511E+03 -0.38894536016E+03  0.56133944362E+03  0.99840617708E+02 0.  0.
         23    2    4    4    0    0 -0.19746628528E+03 -0.65529721686E+03 -0.82113968821E+02  0.69528623610E+03  0.90955318571E+02 0.  0.
          1    1    3    3  502    0  0.50973740280E+03  0.47103358053E+03 -0.11530738847E+04  0.13458396031E+04  0.00000000000E+00 0. -1.
         -2    1    3    3    0  502  0.44848886334E+02  0.22027291233E+02 -0.56344453318E+02  0.75308177406E+02  0.00000000000E+00 0.  1.
         13    1    5    5    0    0 -0.10027233129E+03  0.84778623466E+02 -0.17158178739E+03  0.21606079048E+03  0.00000000000E+00 0.  1.
        -13    1    5    5    0    0 -0.25684767257E+03  0.77457721641E+02 -0.21736357277E+03  0.34527865314E+03  0.00000000000E+00 0. -1.
          2    1    6    6  503    0 -0.17038591309E+03 -0.41603540827E+03 -0.49219528186E+02  0.45226030366E+03  0.00000000000E+00 0.  1.
         -2    1    6    6    0  503 -0.27080372185E+02 -0.23926180860E+03 -0.32894440635E+02  0.24302593244E+03  0.00000000000E+00 0. -1.
<mgrwt>
<rscale>  0 0.20848179E+04</rscale>
<asrwt>0</asrwt>
<pdfrwt beam="1">  1        1 0.33525009E+00 0.20848179E+04</pdfrwt>
<pdfrwt beam="2">  1       -2 0.76715061E-01 0.20848179E+04</pdfrwt>
<totfact> 0.27651717E+00</totfact>
</mgrwt>
</event>
<event>
12    5  0.5029243E-008  0.1717573E+04  0.7818608E-02  0.8751405E-01
         -2   -1    0    0    0  501 -0.00000000000E+00  0.00000000000E+00  0.46425553193E+03  0.46425553193E+03  0.00000000000E+00 0.  1.
          1   -1    0    0  501    0  0.00000000000E+00 -0.00000000000E+00 -0.15885951793E+04  0.15885951793E+04  0.00000000000E+00 0. -1.
        -24    2    1    2    0    0 -0.24271283420E+03 -0.52343141409E+03 -0.14338372818E+03  0.60092332823E+03  0.87521356042E+02 0.  0.
        254    2    1    2    0    0  0.24271283420E+03  0.52343141409E+03 -0.98095591918E+03  0.14519273830E+04  0.90162555696E+03 0.  0.
         23    2    4    4    0    0  0.57457508745E+03  0.36220237863E+03 -0.69442726509E+03  0.97569270047E+03  0.91760149547E+02 0.  0.
         23    2    4    4    0    0 -0.33186225325E+03  0.16122903546E+03 -0.28652865409E+03  0.47623468252E+03  0.92592905876E+02 0.  0.
          1    1    3    3  502    0 -0.44272529585E+02 -0.19150159462E+03 -0.57284564155E+02  0.20473016121E+03  0.00000000000E+00 0. -1.
         -2    1    3    3    0  502 -0.19844030462E+03 -0.33192981947E+03 -0.86099164021E+02  0.39619316702E+03  0.00000000000E+00 0.  1.
         13    1    5    5    0    0  0.52500683187E+03  0.35812352112E+03 -0.63906137397E+03  0.90126803427E+03  0.00000000000E+00 0. -1.
        -13    1    5    5    0    0  0.49568255576E+02  0.40788575074E+01 -0.55365891117E+02  0.74424666197E+02  0.00000000000E+00 0.  1.
          3    1    6    6  503    0 -0.21595228949E+03  0.57594506311E+02 -0.14862480702E+03  0.26840613211E+03  0.00000000000E+00 0. -1.
         -3    1    6    6    0  503 -0.11590996376E+03  0.10363452915E+03 -0.13790384707E+03  0.20782855041E+03  0.00000000000E+00 0.  1.
<mgrwt>
<rscale>  0 0.17175728E+04</rscale>
<asrwt>0</asrwt>
<pdfrwt beam="1">  1        1 0.24439926E+00 0.17175728E+04</pdfrwt>
<pdfrwt beam="2">  1       -2 0.71423927E-01 0.17175728E+04</pdfrwt>
<totfact> 0.84276937E+00</totfact>
</mgrwt>
</event>
<event>
12    5  0.5029243E-008  0.1847478E+04  0.7818608E-02  0.8681451E-01
          1   -1    0    0  501    0  0.00000000000E+00  0.00000000000E+00  0.24463908004E+04  0.24463908004E+04  0.00000000000E+00 0. -1.
         -2   -1    0    0    0  501 -0.00000000000E+00 -0.00000000000E+00 -0.34879697362E+03  0.34879697362E+03  0.00000000000E+00 0.  1.
        -24    2    1    2    0    0  0.10989920665E+03  0.51989092916E+03  0.10377157384E+03  0.54639517911E+03  0.73584905838E+02 0.  0.
        254    2    1    2    0    0 -0.10989920665E+03 -0.51989092916E+03  0.19938222530E+04  0.22487925950E+04  0.89407860103E+03 0.  0.
         23    2    4    4    0    0  0.29535250015E+03 -0.24297975843E+03  0.14821055026E+04  0.15334294918E+04  0.92179299159E+02 0.  0.
         23    2    4    4    0    0 -0.40525170679E+03 -0.27691117073E+03  0.51171675042E+03  0.71536310318E+03  0.94771274109E+02 0.  0.
          1    1    3    3  502    0  0.72306347108E+02  0.18360154857E+03  0.52101246620E+02  0.20408889330E+03  0.00000000000E+00 0. -1.
         -2    1    3    3    0  502  0.37592859539E+02  0.33628938059E+03  0.51670327217E+02  0.34230628580E+03  0.00000000000E+00 0.  1.
         13    1    5    5    0    0  0.22374943657E+03 -0.12832852992E+03  0.94389240793E+03  0.97850135396E+03  0.00000000000E+00 0. -1.
        -13    1    5    5    0    0  0.71603063580E+02 -0.11465122851E+03  0.53821309462E+03  0.55492813781E+03  0.00000000000E+00 0.  1.
          1    1    6    6  503    0 -0.40205770505E+02 -0.34390598890E+01  0.67692997886E+02  0.78807823708E+02  0.00000000000E+00 0.  1.
         -1    1    6    6    0  503 -0.36504593629E+03 -0.27347211084E+03  0.44402375253E+03  0.63655527947E+03  0.00000000000E+00 0. -1.
<mgrwt>
<rscale>  0 0.18474780E+04</rscale>
<asrwt>0</asrwt>
<pdfrwt beam="1">  1        1 0.37636780E+00 0.18474780E+04</pdfrwt>
<pdfrwt beam="2">  1       -2 0.53661075E-01 0.18474780E+04</pdfrwt>
<totfact> 0.39889972E+00</totfact>
</mgrwt>
</event>
<event>
12    5  0.5877249E-008  0.2505132E+04  0.7818608E-02  0.8401160E-01
          1   -1    0    0  501    0  0.00000000000E+00  0.00000000000E+00  0.31443716227E+04  0.31443716227E+04  0.00000000000E+00 0. -1.
         -2   -1    0    0    0  501 -0.00000000000E+00 -0.00000000000E+00 -0.49896171508E+03  0.49896171508E+03  0.00000000000E+00 0.  1.
        -24    2    1    2    0    0 -0.53243225842E+02 -0.67150005467E+03  0.23956583817E+04  0.24898474979E+04  0.80089429618E+02 0.  0.
        254    2    1    2    0    0  0.53243225842E+02  0.67150005467E+03  0.24975152594E+03  0.11534858398E+04  0.90244478694E+03 0.  0.
         23    2    4    4    0    0  0.10080718385E+03  0.96910877510E+02  0.49225832994E+03  0.52142991929E+03  0.10008541773E+03 0.  0.
         23    2    4    4    0    0 -0.47563958011E+02  0.57458917716E+03 -0.24250680400E+03  0.63205592054E+03  0.90940002698E+02 0.  0.
          1    1    3    3  502    0 -0.65457218798E+02 -0.64967877797E+03  0.22903643690E+04  0.23816246776E+04  0.00000000000E+00 0. -1.
         -2    1    3    3    0  502  0.12213992956E+02 -0.21821276697E+02  0.10529401269E+03  0.10822282037E+03  0.00000000000E+00 0.  1.
         13    1    5    5    0    0  0.43914527686E+02  0.48941555956E+02  0.85190560292E+02  0.10761595237E+03  0.00000000000E+00 0.  1.
        -13    1    5    5    0    0  0.56892656167E+02  0.47969321554E+02  0.40706776965E+03  0.41381396692E+03  0.00000000000E+00 0. -1.
          1    1    6    6  503    0 -0.55098228464E+02  0.49981526277E+03 -0.23918286134E+03  0.55682991374E+03  0.00000000000E+00 0. -1.
         -1    1    6    6    0  503  0.75342704527E+01  0.74773914387E+02 -0.33239426678E+01  0.75226006798E+02  0.00000000000E+00 0.  1.
<mgrwt>
<rscale>  0 0.25051316E+04</rscale>
<asrwt>0</asrwt>
<pdfrwt beam="1">  1        1 0.48374947E+00 0.25051316E+04</pdfrwt>
<pdfrwt beam="2">  1       -2 0.76763343E-01 0.25051316E+04</pdfrwt>
<totfact> 0.55399056E-01</totfact>
</mgrwt>
</event>
<event>
12    5  0.5029243E-008  0.1684689E+04  0.7818608E-02  0.8770145E-01
          1   -1    0    0  501    0  0.00000000000E+00  0.00000000000E+00  0.84807771367E+03  0.84807771367E+03  0.00000000000E+00 0. -1.
         -2   -1    0    0    0  501 -0.00000000000E+00 -0.00000000000E+00 -0.83665009646E+03  0.83665009646E+03  0.00000000000E+00 0.  1.
        -24    2    1    2    0    0  0.32473541037E+03  0.81740450307E+02 -0.49297971877E+03  0.60141330272E+03  0.80835447697E+02 0.  0.
        254    2    1    2    0    0 -0.32473541037E+03 -0.81740450307E+02  0.50440733598E+03  0.10833145074E+04  0.89833678173E+03 0.  0.
         23    2    4    4    0    0  0.23931386570E+03 -0.62634938359E+02 -0.69692281628E+02  0.27305398942E+03  0.92234511985E+02 0.  0.
         23    2    4    4    0    0 -0.56404927607E+03 -0.19105511948E+02  0.57409961760E+03  0.81026051799E+03  0.91734015830E+02 0.  0.
          3    1    3    3  502    0  0.89236811414E+01  0.20249629840E+02 -0.23641669321E+02  0.32382219227E+02  0.00000000000E+00 0. -1.
         -4    1    3    3    0  502  0.31581172923E+03  0.61490820467E+02 -0.46933804945E+03  0.56903108349E+03  0.00000000000E+00 0.  1.
         13    1    5    5    0    0  0.72264688845E+02 -0.57462659976E+02 -0.92716526256E+00  0.92330938373E+02  0.00000000000E+00 0. -1.
        -13    1    5    5    0    0  0.16704917685E+03 -0.51722783821E+01 -0.68765116366E+02  0.18072305104E+03  0.00000000000E+00 0.  1.
          1    1    6    6  503    0 -0.68603948015E+01  0.10866669477E+02  0.20801472770E+02  0.24450987542E+02  0.00000000000E+00 0. -1.
         -1    1    6    6    0  503 -0.55718888126E+03 -0.29972181425E+02  0.55329814483E+03  0.78580953045E+03  0.00000000000E+00 0.  1.
<mgrwt>
<rscale>  0 0.16846891E+04</rscale>
<asrwt>0</asrwt>
<pdfrwt beam="1">  1        1 0.13047349E+00 0.16846891E+04</pdfrwt>
<pdfrwt beam="2">  1       -2 0.12871540E+00 0.16846891E+04</pdfrwt>
<totfact> 0.74729195E+00</totfact>
</mgrwt>
</event>
<event>
12    5  0.5029243E-008  0.1801329E+04  0.7818608E-02  0.8705593E-01
         -2   -1    0    0    0  501 -0.00000000000E+00  0.00000000000E+00  0.14329283400E+04  0.14329283400E+04  0.00000000000E+00 0.  1.
          1   -1    0    0  501    0  0.00000000000E+00 -0.00000000000E+00 -0.56611099749E+03  0.56611099749E+03  0.00000000000E+00 0. -1.
        -24    2    1    2    0    0 -0.28296449957E+03 -0.11355808757E+03  0.10090986340E+04  0.10573829301E+04  0.82548534356E+02 0.  0.
        254    2    1    2    0    0  0.28296449957E+03  0.11355808757E+03 -0.14228129153E+03  0.94165640732E+03  0.87949330654E+03 0.  0.
         23    2    4    4    0    0  0.55338104519E+03 -0.94817920551E+02 -0.23435461331E+02  0.56909506603E+03  0.89994189221E+02 0.  0.
         23    2    4    4    0    0 -0.27041654562E+03  0.20837600812E+03 -0.11884583020E+03  0.37256134129E+03  0.90177340631E+02 0.  0.
          3    1    3    3  502    0 -0.84288246491E+01  0.99850097408E+01  0.69995259571E+02  0.71204507349E+02  0.00000000000E+00 0. -1.
         -4    1    3    3    0  502 -0.27453567492E+03 -0.12354309731E+03  0.93910337443E+03  0.98617842278E+03  0.00000000000E+00 0.  1.
         13    1    5    5    0    0  0.16333230401E+03 -0.67031460920E+02  0.84947074023E+01  0.17675638133E+03  0.00000000000E+00 0. -1.
        -13    1    5    5    0    0  0.39004874118E+03 -0.27786459632E+02 -0.31930168733E+02  0.39233868470E+03  0.00000000000E+00 0.  1.
          2    1    6    6  503    0 -0.23114820571E+03  0.20349007702E+03 -0.12529082490E+03  0.33246878838E+03  0.00000000000E+00 0. -1.
         -2    1    6    6    0  503 -0.39268339910E+02  0.48859311083E+01  0.64449946958E+01  0.40092552908E+02  0.00000000000E+00 0.  1.
<mgrwt>
<rscale>  0 0.18013289E+04</rscale>
<asrwt>0</asrwt>
<pdfrwt beam="1">  1        1 0.87094000E-01 0.18013289E+04</pdfrwt>
<pdfrwt beam="2">  1       -2 0.22045051E+00 0.18013289E+04</pdfrwt>
<totfact> 0.30171697E+00</totfact>
</mgrwt>
</event>
<event>
12    5  0.5029243E-008  0.2103866E+04  0.7818608E-02  0.8559542E-01
         -2   -1    0    0    0  501 -0.00000000000E+00  0.00000000000E+00  0.47209808185E+03  0.47209808185E+03  0.00000000000E+00 0.  1.
          1   -1    0    0  501    0  0.00000000000E+00 -0.00000000000E+00 -0.23439256018E+04  0.23439256018E+04  0.00000000000E+00 0. -1.
        -24    2    1    2    0    0 -0.40347344160E+01 -0.47578550550E+03  0.18914284486E+03  0.51795570888E+03  0.78198300976E+02 0.  0.
        254    2    1    2    0    0  0.40347344160E+01  0.47578550550E+03 -0.20609703648E+04  0.22980679748E+04  0.89840383221E+03 0.  0.
         23    2    4    4    0    0  0.18954473026E+03  0.18503278136E+02 -0.16037847828E+04  0.16175729851E+04  0.90261600493E+02 0.  0.
         23    2    4    4    0    0 -0.18550999584E+03  0.45728222736E+03 -0.45718558195E+03  0.68049498961E+03  0.10263420738E+03 0.  0.
          1    1    3    3  502    0 -0.38699620066E+02 -0.17215573405E+03  0.63416269589E+02  0.18750168161E+03  0.00000000000E+00 0. -1.
         -2    1    3    3    0  502  0.34664885650E+02 -0.30362977145E+03  0.12572657527E+03  0.33045402726E+03  0.00000000000E+00 0.  1.
         13    1    5    5    0    0  0.16171901863E+03 -0.17331277089E+02 -0.13502908037E+04  0.13600509802E+04  0.00000000000E+00 0. -1.
        -13    1    5    5    0    0  0.27825711629E+02  0.35834555225E+02 -0.25349397912E+03  0.25752200494E+03  0.00000000000E+00 0.  1.
          4    1    6    6  503    0 -0.98352678087E+02  0.34259575267E+03 -0.36083478207E+03  0.50719506996E+03  0.00000000000E+00 0. -1.
         -4    1    6    6    0  503 -0.87157317754E+02  0.11468647469E+03 -0.96350799872E+02  0.17329991965E+03  0.00000000000E+00 0.  1.
<mgrwt>
<rscale>  0 0.21038658E+04</rscale>
<asrwt>0</asrwt>
<pdfrwt beam="1">  1        1 0.36060394E+00 0.21038658E+04</pdfrwt>
<pdfrwt beam="2">  1       -2 0.72630473E-01 0.21038658E+04</pdfrwt>
<totfact> 0.24044485E+00</totfact>
</mgrwt>
</event>
<event>
12    5  0.5029243E-008  0.1576982E+04  0.7818608E-02  0.8834815E-01
         -2   -1    0    0    0  501 -0.00000000000E+00  0.00000000000E+00  0.87982049547E+03  0.87982049547E+03  0.00000000000E+00 0.  1.
          1   -1    0    0  501    0  0.00000000000E+00 -0.00000000000E+00 -0.70664201832E+03  0.70664201832E+03  0.00000000000E+00 0. -1.
        -24    2    1    2    0    0 -0.41187621264E+03  0.33372113593E+03  0.35618495743E+01  0.53609216812E+03  0.79814252119E+02 0.  0.
        254    2    1    2    0    0  0.41187621264E+03 -0.33372113593E+03  0.16961662757E+03  0.10503703457E+04  0.89078406565E+03 0.  0.
         23    2    4    4    0    0 -0.17164263603E+03 -0.38768417350E+03  0.14476002060E+03  0.45702242150E+03  0.90298490016E+02 0.  0.
         23    2    4    4    0    0  0.58351884867E+03  0.53963037573E+02  0.24856606973E+02  0.59334792418E+03  0.89652953348E+02 0.  0.
          1    1    3    3  502    0 -0.13468957512E+03  0.99154382394E+02  0.37465298214E+02  0.17139580439E+03  0.00000000000E+00 0. -1.
         -2    1    3    3    0  502 -0.27718663752E+03  0.23456675353E+03 -0.33903448640E+02  0.36469636372E+03  0.00000000000E+00 0.  1.
         13    1    5    5    0    0 -0.11511371772E+03 -0.29459498760E+03  0.14541114344E+03  0.34811172828E+03  0.00000000000E+00 0. -1.
        -13    1    5    5    0    0 -0.56528918308E+02 -0.93089185897E+02 -0.65112283888E+00  0.10891069322E+03  0.00000000000E+00 0.  1.
          3    1    6    6  503    0  0.22149253866E+03  0.36813355144E+02 -0.30916173803E+02  0.22664945974E+03  0.00000000000E+00 0. -1.
         -3    1    6    6    0  503  0.36202631001E+03  0.17149682429E+02  0.55772780777E+02  0.36669846444E+03  0.00000000000E+00 0.  1.
<mgrwt>
<rscale>  0 0.15769821E+04</rscale>
<asrwt>0</asrwt>
<pdfrwt beam="1">  1        1 0.10871416E+00 0.15769821E+04</pdfrwt>
<pdfrwt beam="2">  1       -2 0.13535700E+00 0.15769821E+04</pdfrwt>
<totfact> 0.88545608E+00</totfact>
</mgrwt>
</event>
<event>
12    5  0.5029243E-008  0.1460540E+04  0.7818608E-02  0.8911126E-01
         -2   -1    0    0    0  501 -0.00000000000E+00  0.00000000000E+00  0.64483007402E+03  0.64483007402E+03  0.00000000000E+00 0.  1.
          1   -1    0    0  501    0  0.00000000000E+00 -0.00000000000E+00 -0.82703024526E+03  0.82703024526E+03  0.00000000000E+00 0. -1.
        -24    2    1    2    0    0  0.33321954865E+03  0.21942092488E+03 -0.25164212799E+03  0.48072766665E+03  0.92706628820E+02 0.  0.
        254    2    1    2    0    0 -0.33321954865E+03 -0.21942092488E+03  0.69441956758E+02  0.99113265262E+03  0.90462198728E+03 0.  0.
         23    2    4    4    0    0 -0.53818905965E+03 -0.66557729134E+01  0.28202800195E+03  0.61447706803E+03  0.91381125042E+02 0.  0.
         23    2    4    4    0    0  0.20496951100E+03 -0.21276515197E+03 -0.21258604519E+03  0.37665558459E+03  0.96928285138E+02 0.  0.
          1    1    3    3  502    0  0.14696679039E+03  0.87089444533E+02 -0.16157536551E+03  0.23513912385E+03  0.00000000000E+00 0. -1.
         -2    1    3    3    0  502  0.18625275826E+03  0.13233148035E+03 -0.90066762484E+02  0.24558854280E+03  0.00000000000E+00 0.  1.
         13    1    5    5    0    0 -0.52792087408E+03  0.89420660270E+00  0.28688686714E+03  0.60083718546E+03  0.00000000000E+00 0. -1.
        -13    1    5    5    0    0 -0.10268185571E+02 -0.75499795161E+01 -0.48588651922E+01  0.13639882571E+02  0.00000000000E+00 0.  1.
          3    1    6    6  503    0  0.18365695725E+03 -0.16027308867E+03 -0.20688335121E+03  0.31971559534E+03  0.00000000000E+00 0. -1.
         -3    1    6    6    0  503  0.21312553756E+02 -0.52492063305E+02 -0.57026939867E+01  0.56939989255E+02  0.00000000000E+00 0.  1.
<mgrwt>
<rscale>  0 0.14605396E+04</rscale>
<asrwt>0</asrwt>
<pdfrwt beam="1">  1        1 0.12723542E+00 0.14605396E+04</pdfrwt>
<pdfrwt beam="2">  1       -2 0.99204627E-01 0.14605396E+04</pdfrwt>
<totfact> 0.14994320E+01</totfact>
</mgrwt>
</event>
<event>
12    5  0.5813071E-008  0.1890705E+04  0.7818608E-02  0.8659497E-01
         -2   -1    0    0    0  501 -0.00000000000E+00  0.00000000000E+00  0.39800803482E+03  0.39800803482E+03  0.00000000000E+00 0.  1.
          1   -1    0    0  501    0  0.00000000000E+00 -0.00000000000E+00 -0.22454104369E+04  0.22454104369E+04  0.00000000000E+00 0. -1.
        -24    2    1    2    0    0  0.16544905664E+03  0.15876840242E+03  0.25831069999E+03  0.35615329877E+03  0.86832934692E+02 0.  0.
        254    2    1    2    0    0 -0.16544905664E+03 -0.15876840242E+03 -0.21057131021E+04  0.22872651729E+04  0.86311847808E+03 0.  0.
         23    2    4    4    0    0  0.17141879181E+03  0.27419256204E+03 -0.85025125455E+03  0.91399854104E+03  0.88882922423E+02 0.  0.
         23    2    4    4    0    0 -0.33686784845E+03 -0.43296096445E+03 -0.12554618475E+04  0.13732666319E+04  0.93496778946E+02 0.  0.
          1    1    3    3  502    0  0.95537566646E+00  0.23735520851E+02  0.32649469112E+01  0.23978064373E+02  0.00000000000E+00 0. -1.
         -2    1    3    3    0  502  0.16449368098E+03  0.13503288157E+03  0.25504575308E+03  0.33217523440E+03  0.00000000000E+00 0.  1.
         13    1    5    5    0    0  0.14171677421E+02 -0.49131633492E+01 -0.36861795726E+02  0.39796577731E+02  0.00000000000E+00 0. -1.
        -13    1    5    5    0    0  0.15724711439E+03  0.27910572539E+03 -0.81338945882E+03  0.87420196331E+03  0.00000000000E+00 0.  1.
          1    1    6    6  503    0 -0.14679769990E+03 -0.11713351066E+03 -0.43432488920E+03  0.47318910955E+03  0.00000000000E+00 0. -1.
         -1    1    6    6    0  503 -0.19007014855E+03 -0.31582745380E+03 -0.82113695831E+03  0.90007752235E+03  0.00000000000E+00 0.  1.
<mgrwt>
<rscale>  0 0.18907050E+04</rscale>
<asrwt>0</asrwt>
<pdfrwt beam="1">  1        1 0.34544776E+00 0.18907050E+04</pdfrwt>
<pdfrwt beam="2">  1       -2 0.61232005E-01 0.18907050E+04</pdfrwt>
<totfact> 0.41391537E+00</totfact>
</mgrwt>
</event>
<event>
12    5  0.5029243E-008  0.2825502E+04  0.7818608E-02  0.8295394E-01
          1   -1    0    0  501    0  0.00000000000E+00  0.00000000000E+00  0.15085544218E+04  0.15085544218E+04  0.00000000000E+00 0. -1.
         -2   -1    0    0    0  501 -0.00000000000E+00 -0.00000000000E+00 -0.13230319454E+04  0.13230319454E+04  0.00000000000E+00 0.  1.
        -24    2    1    2    0    0  0.69110527535E+03  0.55649983408E+03  0.99044703219E+03  0.13314336338E+04  0.66420108032E+02 0.  0.
        254    2    1    2    0    0 -0.69110527535E+03 -0.55649983408E+03 -0.80492455584E+03  0.15001527334E+04  0.90290426727E+03 0.  0.
         23    2    4    4    0    0 -0.13592699178E+02 -0.43540331913E+03 -0.11681972406E+02  0.44548492586E+03  0.92517776187E+02 0.  0.
         23    2    4    4    0    0 -0.67751257617E+03 -0.12109651494E+03 -0.79324258344E+03  0.10546678075E+04  0.96967681141E+02 0.  0.
          3    1    3    3  502    0  0.60011369727E+03  0.45388578690E+03  0.82695336186E+03  0.11180342660E+04  0.00000000000E+00 0. -1.
         -4    1    3    3    0  502  0.90991578081E+02  0.10261404717E+03  0.16349367033E+03  0.21339936785E+03  0.00000000000E+00 0.  1.
         13    1    5    5    0    0 -0.20044805915E+02 -0.31656520526E+03  0.31773212074E+02  0.31878654368E+03  0.00000000000E+00 0.  1.
        -13    1    5    5    0    0  0.64521067372E+01 -0.11883811387E+03 -0.43455184480E+02  0.12669838218E+03  0.00000000000E+00 0. -1.
          3    1    6    6  503    0 -0.14688530176E+02 -0.17349539179E+02 -0.39676484445E+02  0.45727265897E+02  0.00000000000E+00 0. -1.
         -3    1    6    6    0  503 -0.66282404600E+03 -0.10374697577E+03 -0.75356609899E+03  0.10089405416E+04  0.00000000000E+00 0.  1.
<mgrwt>
<rscale>  0 0.28255022E+04</rscale>
<asrwt>0</asrwt>
<pdfrwt beam="1">  1        1 0.23208530E+00 0.28255022E+04</pdfrwt>
<pdfrwt beam="2">  1       -2 0.20354338E+00 0.28255022E+04</pdfrwt>
<totfact> 0.61726724E-01</totfact>
</mgrwt>
</event>
<event>
12    5  0.5029243E-008  0.1458309E+04  0.7818608E-02  0.8912660E-01
         -2   -1    0    0    0  501 -0.00000000000E+00  0.00000000000E+00  0.39146418931E+03  0.39146418931E+03  0.00000000000E+00 0.  1.
          1   -1    0    0  501    0  0.00000000000E+00 -0.00000000000E+00 -0.13581483239E+04  0.13581483239E+04  0.00000000000E+00 0. -1.
        -24    2    1    2    0    0 -0.30611762119E+02  0.35998489717E+03  0.26897608459E+02  0.37070337258E+03  0.78557640802E+02 0.  0.
        254    2    1    2    0    0  0.30611762119E+02 -0.35998489717E+03 -0.99358174309E+03  0.13789091407E+04  0.88524546419E+03 0.  0.
         23    2    4    4    0    0  0.38206820846E+03 -0.98121454569E+02 -0.78824346622E+03  0.88638584227E+03  0.93531618032E+02 0.  0.
         23    2    4    4    0    0 -0.35145644634E+03 -0.26186344260E+03 -0.20533827687E+03  0.49252329841E+03  0.91221133969E+02 0.  0.
          1    1    3    3  502    0  0.27938938844E+01  0.96835777708E+02 -0.25812691785E+02  0.10025601600E+03  0.00000000000E+00 0. -1.
         -2    1    3    3    0  502 -0.33405656004E+02  0.26314911947E+03  0.52710300243E+02  0.27044735658E+03  0.00000000000E+00 0.  1.
         13    1    5    5    0    0  0.54308484111E+02 -0.47845110992E+02 -0.17162955804E+03  0.18626666713E+03  0.00000000000E+00 0.  1.
        -13    1    5    5    0    0  0.32775972435E+03 -0.50276343578E+02 -0.61661390818E+03  0.70011917514E+03  0.00000000000E+00 0. -1.
          4    1    6    6  503    0 -0.26795616702E+03 -0.24030009749E+03 -0.14920294360E+03  0.38962310336E+03  0.00000000000E+00 0. -1.
         -4    1    6    6    0  503 -0.83500279321E+02 -0.21563345118E+02 -0.56135333272E+02  0.10290019505E+03  0.00000000000E+00 0.  1.
<mgrwt>
<rscale>  0 0.14583092E+04</rscale>
<asrwt>0</asrwt>
<pdfrwt beam="1">  1        1 0.20894590E+00 0.14583092E+04</pdfrwt>
<pdfrwt beam="2">  1       -2 0.60225260E-01 0.14583092E+04</pdfrwt>
<totfact> 0.17991090E+01</totfact>
</mgrwt>
</event>
<event>
12    5  0.5029243E-008  0.1673403E+04  0.7818608E-02  0.8776680E-01
         -2   -1    0    0    0  501 -0.00000000000E+00  0.00000000000E+00  0.32769574092E+03  0.32769574092E+03  0.00000000000E+00 0.  1.
          1   -1    0    0  501    0  0.00000000000E+00 -0.00000000000E+00 -0.21363405721E+04  0.21363405721E+04  0.00000000000E+00 0. -1.
        -24    2    1    2    0    0  0.55561697838E+03 -0.40028588478E+02 -0.90594031134E+03  0.10664870164E+04  0.79713197902E+02 0.  0.
        254    2    1    2    0    0 -0.55561697838E+03  0.40028588478E+02 -0.90270451980E+03  0.13975492966E+04  0.90992091509E+03 0.  0.
         23    2    4    4    0    0 -0.89467847444E+02 -0.33759668413E+03 -0.70792302552E+02  0.36761822230E+03  0.90308307506E+02 0.  0.
         23    2    4    4    0    0 -0.46614913093E+03  0.37762527261E+03 -0.83191221725E+03  0.10299310743E+04  0.93724179130E+02 0.  0.
          1    1    3    3  502    0  0.72116888160E+02 -0.59067457755E+01 -0.17578241719E+03  0.19009259165E+03  0.00000000000E+00 0. -1.
         -2    1    3    3    0  502  0.48350009022E+03 -0.34121842702E+02 -0.73015789415E+03  0.87639442477E+03  0.00000000000E+00 0.  1.
         13    1    5    5    0    0 -0.99583516491E+02 -0.24841634698E+03 -0.74436953591E+02  0.27779204140E+03  0.00000000000E+00 0.  1.
        -13    1    5    5    0    0  0.10115669047E+02 -0.89180337148E+02  0.36446510390E+01  0.89826180901E+02  0.00000000000E+00 0. -1.
          2    1    6    6  503    0 -0.12391034469E+03  0.91980980657E+02 -0.28746354203E+03  0.32626609128E+03  0.00000000000E+00 0. -1.
         -2    1    6    6    0  503 -0.34223878625E+03  0.28564429195E+03 -0.54444867522E+03  0.70366498299E+03  0.00000000000E+00 0.  1.
<mgrwt>
<rscale>  0 0.16734034E+04</rscale>
<asrwt>0</asrwt>
<pdfrwt beam="1">  1        1 0.32866778E+00 0.16734034E+04</pdfrwt>
<pdfrwt beam="2">  1       -2 0.50414729E-01 0.16734034E+04</pdfrwt>
<totfact> 0.75055618E+00</totfact>
</mgrwt>
</event>
<event>
12    5  0.5029243E-008  0.2443922E+04  0.7818608E-02  0.8423240E-01
          1   -1    0    0  501    0  0.00000000000E+00  0.00000000000E+00  0.18031989407E+04  0.18031989407E+04  0.00000000000E+00 0. -1.
         -2   -1    0    0    0  501 -0.00000000000E+00 -0.00000000000E+00 -0.82807789064E+03  0.82807789064E+03  0.00000000000E+00 0.  1.
        -24    2    1    2    0    0 -0.10168361504E+04 -0.23712302803E+03  0.65600240985E+03  0.12356566374E+04  0.79530350385E+02 0.  0.
        254    2    1    2    0    0  0.10168361504E+04  0.23712302803E+03  0.31911864025E+03  0.13956201940E+04  0.86933073805E+03 0.  0.
         23    2    4    4    0    0  0.10973330518E+03  0.37090562657E+03 -0.54866385948E+02  0.40128283412E+03  0.91679935427E+02 0.  0.
         23    2    4    4    0    0  0.90710284521E+03 -0.13378259854E+03  0.37398502620E+03  0.99433735986E+03  0.90047931309E+02 0.  0.
          1    1    3    3  502    0 -0.14703666194E+03 -0.43275235892E+02  0.12912247409E+03  0.20041242304E+03  0.00000000000E+00 0. -1.
         -2    1    3    3    0  502 -0.86979948846E+03 -0.19384779214E+03  0.52687993577E+03  0.10352442144E+04  0.00000000000E+00 0.  1.
         13    1    5    5    0    0  0.44945125598E+02  0.92412404843E+02  0.22233966400E+02  0.10514022135E+03  0.00000000000E+00 0.  1.
        -13    1    5    5    0    0  0.64788179586E+02  0.27849322173E+03 -0.77100352348E+02  0.29614261276E+03  0.00000000000E+00 0. -1.
          3    1    6    6  503    0  0.61726505870E+03 -0.13181452264E+03  0.26801867278E+03  0.68572970625E+03  0.00000000000E+00 0. -1.
         -3    1    6    6    0  503  0.28983778651E+03 -0.19680758998E+01  0.10596635341E+03  0.30860765361E+03  0.00000000000E+00 0.  1.
<mgrwt>
<rscale>  0 0.24439224E+04</rscale>
<asrwt>0</asrwt>
<pdfrwt beam="1">  1        1 0.27741522E+00 0.24439224E+04</pdfrwt>
<pdfrwt beam="2">  1       -2 0.12739660E+00 0.24439224E+04</pdfrwt>
<totfact> 0.14531651E+00</totfact>
</mgrwt>
</event>
<event>
12    5  0.5029243E-008  0.1007702E+04  0.7818608E-02  0.9300137E-01
         -2   -1    0    0    0  501 -0.00000000000E+00  0.00000000000E+00  0.27010463837E+03  0.27010463837E+03  0.00000000000E+00 0.  1.
          1   -1    0    0  501    0  0.00000000000E+00 -0.00000000000E+00 -0.93988033705E+03  0.93988033705E+03  0.00000000000E+00 0. -1.
        -24    2    1    2    0    0  0.25017205804E+02  0.16402416506E+02 -0.13734176588E+03  0.16546577432E+03  0.87299839430E+02 0.  0.
        254    2    1    2    0    0 -0.25017205804E+02 -0.16402416506E+02 -0.53243393281E+03  0.10445192011E+04  0.89813115345E+03 0.  0.
         23    2    4    4    0    0 -0.28560802436E+02 -0.34687761158E+03  0.56040162246E+02  0.36379301834E+03  0.89805698925E+02 0.  0.
         23    2    4    4    0    0  0.35435966320E+01  0.33047519508E+03 -0.58847409506E+03  0.68072618275E+03  0.88656436286E+02 0.  0.
          3    1    3    3  502    0  0.19014455521E+02 -0.28374607222E+02 -0.10358038691E+03  0.10906678874E+03  0.00000000000E+00 0. -1.
         -2    1    3    3    0  502  0.60027502832E+01  0.44777023727E+02 -0.33761378965E+02  0.56398985580E+02  0.00000000000E+00 0.  1.
         13    1    5    5    0    0  0.55407726509E+01 -0.26721855843E+02 -0.18930009851E+02  0.33212994659E+02  0.00000000000E+00 0.  1.
        -13    1    5    5    0    0 -0.34101575087E+02 -0.32015575574E+03  0.74970172097E+02  0.33058002369E+03  0.00000000000E+00 0. -1.
          4    1    6    6  503    0 -0.23174069668E+02  0.29495078071E+03 -0.53334013694E+03  0.60990548630E+03  0.00000000000E+00 0. -1.
         -4    1    6    6    0  503  0.26717666300E+02  0.35524414367E+02 -0.55133958115E+02  0.70820696453E+02  0.00000000000E+00 0.  1.
<mgrwt>
<rscale>  0 0.10077024E+04</rscale>
<asrwt>0</asrwt>
<pdfrwt beam="1">  1        1 0.14459697E+00 0.10077024E+04</pdfrwt>
<pdfrwt beam="2">  1       -2 0.41554560E-01 0.10077024E+04</pdfrwt>
<totfact> 0.81365327E+01</totfact>
</mgrwt>
</event>
<event>
12    5  0.5029243E-008  0.2287112E+04  0.7818608E-02  0.8483020E-01
         -2   -1    0    0    0  501 -0.00000000000E+00  0.00000000000E+00  0.76363633546E+03  0.76363633546E+03  0.00000000000E+00 0.  1.
          1   -1    0    0  501    0  0.00000000000E+00 -0.00000000000E+00 -0.17124905240E+04  0.17124905240E+04  0.00000000000E+00 0. -1.
        -24    2    1    2    0    0  0.25093595677E+02  0.93960900540E+03 -0.63311597025E+03  0.11360545264E+04  0.79305003962E+02 0.  0.
        254    2    1    2    0    0 -0.25093595677E+02 -0.93960900540E+03 -0.31573821829E+03  0.13400723330E+04  0.90144798167E+03 0.  0.
         23    2    4    4    0    0  0.34874347382E+02 -0.10862707448E+04 -0.36575810966E+03  0.11503031149E+04  0.90652689983E+02 0.  0.
         23    2    4    4    0    0 -0.59967943059E+02  0.14666173941E+03  0.50019891371E+02  0.18976921814E+03  0.91676314385E+02 0.  0.
          3    1    3    3  502    0  0.84130897276E+01  0.29816704742E+03 -0.24620898643E+03  0.38677284451E+03  0.00000000000E+00 0. -1.
         -4    1    3    3    0  502  0.16680505949E+02  0.64144195798E+03 -0.38690698382E+03  0.74928168192E+03  0.00000000000E+00 0.  1.
         13    1    5    5    0    0 -0.12637704702E+02 -0.31564293475E+02 -0.19507152635E+02  0.39198790882E+02  0.00000000000E+00 0.  1.
        -13    1    5    5    0    0  0.47512052085E+02 -0.10547064513E+04 -0.34625095702E+03  0.11111043240E+04  0.00000000000E+00 0. -1.
          4    1    6    6  503    0 -0.60345806025E+02  0.15403696802E+03  0.61180873447E+02  0.17638623273E+03  0.00000000000E+00 0. -1.
         -4    1    6    6    0  503  0.37786296593E+00 -0.73752286121E+01 -0.11160982076E+02  0.13382985407E+02  0.00000000000E+00 0.  1.
<mgrwt>
<rscale>  0 0.22871117E+04</rscale>
<asrwt>0</asrwt>
<pdfrwt beam="1">  1        1 0.26346008E+00 0.22871117E+04</pdfrwt>
<pdfrwt beam="2">  1       -2 0.11748251E+00 0.22871117E+04</pdfrwt>
<totfact> 0.20783624E+00</totfact>
</mgrwt>
</event>
<event>
12    5  0.5029243E-008  0.1624324E+04  0.7818608E-02  0.8805743E-01
         -2   -1    0    0    0  501 -0.00000000000E+00  0.00000000000E+00  0.96450211484E+03  0.96450211484E+03  0.00000000000E+00 0.  1.
          1   -1    0    0  501    0  0.00000000000E+00 -0.00000000000E+00 -0.68388364262E+03  0.68388364262E+03  0.00000000000E+00 0. -1.
        -24    2    1    2    0    0  0.30215451368E+03 -0.39239888644E+03  0.35873989355E+03  0.61669598491E+03  0.79657958573E+02 0.  0.
        254    2    1    2    0    0 -0.30215451368E+03  0.39239888644E+03 -0.78121421325E+02  0.10316897726E+04  0.90166878293E+03 0.  0.
         23    2    4    4    0    0  0.27191435421E+02  0.55600474329E+03  0.15954591605E+03  0.58590157641E+03  0.89135341980E+02 0.  0.
         23    2    4    4    0    0 -0.32934594910E+03 -0.16360585685E+03 -0.23766733737E+03  0.44578819614E+03  0.83700191044E+02 0.  0.
          1    1    3    3  502    0  0.20231921513E+02 -0.46600583472E+02  0.65107559319E+02  0.82582923831E+02  0.00000000000E+00 0. -1.
         -2    1    3    3    0  502  0.28192259216E+03 -0.34579830297E+03  0.29363233423E+03  0.53411306108E+03  0.00000000000E+00 0.  1.
         13    1    5    5    0    0 -0.15802892622E+02  0.43512264489E+02  0.31232434275E+02  0.55843652521E+02  0.00000000000E+00 0. -1.
        -13    1    5    5    0    0  0.42994328043E+02  0.51249247880E+03  0.12831348177E+03  0.53005792389E+03  0.00000000000E+00 0.  1.
          3    1    6    6  503    0 -0.18950136744E+03 -0.11167211880E+03 -0.18555652044E+03  0.28777187607E+03  0.00000000000E+00 0. -1.
         -3    1    6    6    0  503 -0.13984458166E+03 -0.51933738056E+02 -0.52110816930E+02  0.15801632007E+03  0.00000000000E+00 0.  1.
<mgrwt>
<rscale>  0 0.16243241E+04</rscale>
<asrwt>0</asrwt>
<pdfrwt beam="1">  1        1 0.10521287E+00 0.16243241E+04</pdfrwt>
<pdfrwt beam="2">  1       -2 0.14838494E+00 0.16243241E+04</pdfrwt>
<totfact> 0.72925048E+00</totfact>
</mgrwt>
</event>
<event>
12    5  0.5029243E-008  0.2047655E+04  0.7818608E-02  0.8584659E-01
         -2   -1    0    0    0  501 -0.00000000000E+00  0.00000000000E+00  0.69873428272E+03  0.69873428272E+03  0.00000000000E+00 0.  1.
          1   -1    0    0  501    0  0.00000000000E+00 -0.00000000000E+00 -0.15001732082E+04  0.15001732082E+04  0.00000000000E+00 0. -1.
        -24    2    1    2    0    0 -0.21799799598E+03 -0.17221321655E+03  0.51005059078E+03  0.58664624905E+03  0.82593572153E+02 0.  0.
        254    2    1    2    0    0  0.21799799598E+03  0.17221321655E+03 -0.13114895163E+04  0.16122612419E+04  0.89565676603E+03 0.  0.
         23    2    4    4    0    0  0.54930163114E+03  0.69972627636E+02 -0.64469806722E+03  0.85491555065E+03  0.92825375166E+02 0.  0.
         23    2    4    4    0    0 -0.33130363516E+03  0.10224058892E+03 -0.66679144904E+03  0.75734569121E+03  0.93522311682E+02 0.  0.
          3    1    3    3  502    0 -0.84616750350E+02 -0.20529546495E+02  0.17383994864E+03  0.19442681004E+03  0.00000000000E+00 0. -1.
         -4    1    3    3    0  502 -0.13338124563E+03 -0.15168367006E+03  0.33621064214E+03  0.39221943901E+03  0.00000000000E+00 0.  1.
         13    1    5    5    0    0  0.44193900541E+03  0.52907170345E+02 -0.45649128642E+03  0.63756846515E+03  0.00000000000E+00 0.  1.
        -13    1    5    5    0    0  0.10736262573E+03  0.17065457291E+02 -0.18820678080E+03  0.21734708551E+03  0.00000000000E+00 0. -1.
          4    1    6    6  503    0 -0.16070302089E+03  0.72779193690E+02 -0.24952766597E+03  0.30559176698E+03  0.00000000000E+00 0. -1.
         -4    1    6    6    0  503 -0.17060061427E+03  0.29461395229E+02 -0.41726378307E+03  0.45175392423E+03  0.00000000000E+00 0.  1.
<mgrwt>
<rscale>  0 0.20476547E+04</rscale>
<asrwt>0</asrwt>
<pdfrwt beam="1">  1        1 0.23079588E+00 0.20476547E+04</pdfrwt>
<pdfrwt beam="2">  1       -2 0.10749758E+00 0.20476547E+04</pdfrwt>
<totfact> 0.36838702E+00</totfact>
</mgrwt>
</event>
<event>
12    5  0.5029243E-008  0.1469163E+04  0.7818608E-02  0.8905222E-01
          1   -1    0    0  501    0  0.00000000000E+00  0.00000000000E+00  0.30490404217E+03  0.30490404217E+03  0.00000000000E+00 0. -1.
         -4   -1    0    0    0  501 -0.00000000000E+00 -0.00000000000E+00 -0.17697691695E+04  0.17697691695E+04  0.00000000000E+00 0.  1.
        -24    2    1    2    0    0 -0.26878697516E+03  0.33315312251E+03 -0.67980674180E+03  0.80834193763E+03  0.89677426820E+02 0.  0.
        254    2    1    2    0    0  0.26878697516E+03 -0.33315312251E+03 -0.78505838556E+03  0.12663312741E+04  0.89668321380E+03 0.  0.
         23    2    4    4    0    0 -0.32970343683E+02  0.27536818643E+03 -0.13619655454E+03  0.32204638266E+03  0.90827801113E+02 0.  0.
         23    2    4    4    0    0  0.30175731884E+03 -0.60852130894E+03 -0.64886183102E+03  0.94428489142E+03  0.96418968613E+02 0.  0.
          3    1    3    3  502    0 -0.28363111168E+02  0.69949484360E+02 -0.75726862027E+02  0.10692031645E+03  0.00000000000E+00 0. -1.
         -4    1    3    3    0  502 -0.24042386399E+03  0.26320363815E+03 -0.60407987977E+03  0.70142162118E+03  0.00000000000E+00 0.  1.
         13    1    5    5    0    0 -0.33414776387E+02  0.10255138920E+03 -0.10533061376E+02  0.10837102975E+03  0.00000000000E+00 0.  1.
        -13    1    5    5    0    0  0.44443270388E+00  0.17281679723E+03 -0.12566349316E+03  0.21367535290E+03  0.00000000000E+00 0. -1.
          3    1    6    6  503    0  0.19752390105E+03 -0.46629609111E+03 -0.43920436984E+03  0.67033440502E+03  0.00000000000E+00 0. -1.
         -3    1    6    6    0  503  0.10423341779E+03 -0.14222521783E+03 -0.20965746117E+03  0.27395048640E+03  0.00000000000E+00 0.  1.
<mgrwt>
<rscale>  0 0.14691627E+04</rscale>
<asrwt>0</asrwt>
<pdfrwt beam="1">  1        1 0.46908312E-01 0.14691627E+04</pdfrwt>
<pdfrwt beam="2">  1       -4 0.27227219E+00 0.14691627E+04</pdfrwt>
<totfact> 0.18175167E+00</totfact>
</mgrwt>
</event>
<event>
12    5  0.5029243E-008  0.1913248E+04  0.7818608E-02  0.8648290E-01
         -2   -1    0    0    0  501 -0.00000000000E+00  0.00000000000E+00  0.65355191678E+03  0.65355191678E+03  0.00000000000E+00 0.  1.
          1   -1    0    0  501    0  0.00000000000E+00 -0.00000000000E+00 -0.14002395768E+04  0.14002395768E+04  0.00000000000E+00 0. -1.
        -24    2    1    2    0    0  0.28375900053E+03  0.55592321019E+02 -0.10251068685E+04  0.10679602821E+04  0.78008946242E+02 0.  0.
        254    2    1    2    0    0 -0.28375900053E+03 -0.55592321019E+02  0.27841920852E+03  0.98583121148E+03  0.90040893227E+03 0.  0.
         23    2    4    4    0    0 -0.76808624716E+02  0.30652091477E+03 -0.16644608408E+03  0.36918846828E+03  0.93494332359E+02 0.  0.
         23    2    4    4    0    0 -0.20695037581E+03 -0.36211323579E+03  0.44486529260E+03  0.61664274320E+03  0.91589795227E+02 0.  0.
          1    1    3    3  502    0  0.24207505563E+03  0.75109485603E+02 -0.86534566733E+03  0.90170110977E+03  0.00000000000E+00 0. -1.
         -2    1    3    3    0  502  0.41683944901E+02 -0.19517164584E+02 -0.15976120118E+03  0.16625917232E+03  0.00000000000E+00 0.  1.
         13    1    5    5    0    0 -0.56045022313E+02  0.27790853781E+03 -0.11318462098E+03  0.30526211416E+03  0.00000000000E+00 0.  1.
        -13    1    5    5    0    0 -0.20763602403E+02  0.28612376964E+02 -0.53261463100E+02  0.63926354126E+02  0.00000000000E+00 0. -1.
          2    1    6    6  503    0 -0.63290588848E+02 -0.48668049791E+02  0.59697297319E+02  0.99689743778E+02  0.00000000000E+00 0. -1.
         -2    1    6    6    0  503 -0.14365978697E+03 -0.31344518600E+03  0.38516799528E+03  0.51695299942E+03  0.00000000000E+00 0.  1.
<mgrwt>
<rscale>  0 0.19132478E+04</rscale>
<asrwt>0</asrwt>
<pdfrwt beam="1">  1        1 0.21542147E+00 0.19132478E+04</pdfrwt>
<pdfrwt beam="2">  1       -2 0.10054645E+00 0.19132478E+04</pdfrwt>
<totfact> 0.51355640E+00</totfact>
</mgrwt>
</event>
<event>
12    5  0.5077071E-008  0.1702376E+04  0.7818608E-02  0.8760011E-01
         -2   -1    0    0    0  501 -0.00000000000E+00  0.00000000000E+00  0.37533615150E+03  0.37533615150E+03  0.00000000000E+00 0.  1.
          1   -1    0    0  501    0  0.00000000000E+00 -0.00000000000E+00 -0.19303248506E+04  0.19303248506E+04  0.00000000000E+00 0. -1.
        -24    2    1    2    0    0 -0.43477298588E+03 -0.37389343688E+03 -0.26703702655E+03  0.63757078948E+03  0.79773972328E+02 0.  0.
        254    2    1    2    0    0  0.43477298588E+03  0.37389343688E+03 -0.12879516725E+04  0.16680902126E+04  0.89156132442E+03 0.  0.
         23    2    4    4    0    0  0.56318379530E+03  0.96156774467E+02 -0.12064147779E+04  0.13380220759E+04  0.91893126426E+02 0.  0.
         23    2    4    4    0    0 -0.12841080942E+03  0.27773666241E+03 -0.81536894639E+02  0.33006813671E+03  0.93111331550E+02 0.  0.
          3    1    3    3  502    0 -0.40536377580E+02 -0.37296449212E+02 -0.14252776891E+01  0.55102218173E+02  0.00000000000E+00 0. -1.
         -4    1    3    3    0  502 -0.39423660830E+03 -0.33659698767E+03 -0.26561174886E+03  0.58246857131E+03  0.00000000000E+00 0.  1.
         13    1    5    5    0    0  0.50522092451E+03  0.81817578734E+02 -0.11341361336E+04  0.12442696927E+04  0.00000000000E+00 0. -1.
        -13    1    5    5    0    0  0.57962870793E+02  0.14339195733E+02 -0.72278644316E+02  0.93752383165E+02  0.00000000000E+00 0.  1.
          1    1    6    6  503    0 -0.14081786403E+03  0.25965426303E+03 -0.86089495384E+02  0.30767094168E+03  0.00000000000E+00 0. -1.
         -1    1    6    6    0  503  0.12407054617E+02  0.18082399385E+02  0.45526007454E+01  0.22397195032E+02  0.00000000000E+00 0.  1.
<mgrwt>
<rscale>  0 0.17023756E+04</rscale>
<asrwt>0</asrwt>
<pdfrwt beam="1">  1        1 0.29697306E+00 0.17023756E+04</pdfrwt>
<pdfrwt beam="2">  1       -2 0.57744022E-01 0.17023756E+04</pdfrwt>
<totfact> 0.77950276E+00</totfact>
</mgrwt>
</event>
<event>
12    5  0.5029243E-008  0.2585578E+04  0.7818608E-02  0.8373117E-01
          1   -1    0    0  501    0  0.00000000000E+00  0.00000000000E+00  0.11459291476E+04  0.11459291476E+04  0.00000000000E+00 0. -1.
         -2   -1    0    0    0  501 -0.00000000000E+00 -0.00000000000E+00 -0.14584697414E+04  0.14584697414E+04  0.00000000000E+00 0.  1.
        -24    2    1    2    0    0 -0.29161146682E+03  0.61346471953E+03  0.78295158704E+03  0.10413012129E+04  0.99593265760E+02 0.  0.
        254    2    1    2    0    0  0.29161146682E+03 -0.61346471953E+03 -0.10954921808E+04  0.15630976761E+04  0.88419173107E+03 0.  0.
         23    2    4    4    0    0 -0.25117391774E+03 -0.18153954754E+03 -0.84781651556E+02  0.33392535325E+03  0.90957511123E+02 0.  0.
         23    2    4    4    0    0  0.54278538456E+03 -0.43192517199E+03 -0.10107105292E+04  0.12291723229E+04  0.90296719626E+02 0.  0.
          3    1    3    3  502    0 -0.21357580927E+03  0.41977438550E+03  0.47241473385E+03  0.66708383415E+03  0.00000000000E+00 0. -1.
         -4    1    3    3    0  502 -0.78035657549E+02  0.19369033404E+03  0.31053685319E+03  0.37421737872E+03  0.00000000000E+00 0.  1.
         13    1    5    5    0    0 -0.43959805709E+02 -0.77609141447E+02 -0.72589942554E+01  0.89489308589E+02  0.00000000000E+00 0.  1.
        -13    1    5    5    0    0 -0.20721411203E+03 -0.10393040609E+03 -0.77522657300E+02  0.24443604466E+03  0.00000000000E+00 0. -1.
          1    1    6    6  503    0  0.42977871051E+03 -0.37801578112E+03 -0.79227897796E+03  0.97740045514E+03  0.00000000000E+00 0. -1.
         -1    1    6    6    0  503  0.11300667405E+03 -0.53909390877E+02 -0.21843155124E+03  0.25177186773E+03  0.00000000000E+00 0.  1.
<mgrwt>
<rscale>  0 0.25855777E+04</rscale>
<asrwt>0</asrwt>
<pdfrwt beam="1">  1        1 0.17629679E+00 0.25855777E+04</pdfrwt>
<pdfrwt beam="2">  1       -2 0.22437996E+00 0.25855777E+04</pdfrwt>
<totfact> 0.84042133E-01</totfact>
</mgrwt>
</event>
<event>
12    5  0.5029243E-008  0.1669003E+04  0.7818608E-02  0.8779243E-01
         -2   -1    0    0    0  501 -0.00000000000E+00  0.00000000000E+00  0.93157001492E+03  0.93157001492E+03  0.00000000000E+00 0.  1.
          1   -1    0    0  501    0  0.00000000000E+00 -0.00000000000E+00 -0.74754770784E+03  0.74754770784E+03  0.00000000000E+00 0. -1.
        -24    2    1    2    0    0 -0.39369875027E+03  0.44046290580E+03  0.18149542283E+03  0.62311543616E+03  0.79536035393E+02 0.  0.
        254    2    1    2    0    0  0.39369875027E+03 -0.44046290580E+03  0.25268842506E+01  0.10560022866E+04  0.87528747667E+03 0.  0.
         23    2    4    4    0    0  0.65194624970E+03 -0.31650559229E+03  0.10642303357E+03  0.73807155763E+03  0.90631449609E+02 0.  0.
         23    2    4    4    0    0 -0.25824749943E+03 -0.12395731350E+03 -0.10389614932E+03  0.31793072897E+03  0.90710264284E+02 0.  0.
          1    1    3    3  502    0 -0.44363264902E+02  0.66119377533E+02 -0.74492937789E+00  0.79626793719E+02  0.00000000000E+00 0. -1.
         -2    1    3    3    0  502 -0.34933548537E+03  0.37434352826E+03  0.18224035221E+03  0.54348864244E+03  0.00000000000E+00 0.  1.
         13    1    5    5    0    0  0.44923988332E+03 -0.25418265824E+03  0.10087167336E+03  0.52592812342E+03  0.00000000000E+00 0. -1.
        -13    1    5    5    0    0  0.20270636638E+03 -0.62322934057E+02  0.55513602132E+01  0.21214343421E+03  0.00000000000E+00 0.  1.
          1    1    6    6  503    0 -0.19405917478E+03 -0.85027336113E+02 -0.32532461068E+02  0.21435244861E+03  0.00000000000E+00 0. -1.
         -1    1    6    6    0  503 -0.64188324653E+02 -0.38929977388E+02 -0.71363688252E+02  0.10357828036E+03  0.00000000000E+00 0.  1.
<mgrwt>
<rscale>  0 0.16690033E+04</rscale>
<asrwt>0</asrwt>
<pdfrwt beam="1">  1        1 0.11500734E+00 0.16690033E+04</pdfrwt>
<pdfrwt beam="2">  1       -2 0.14331846E+00 0.16690033E+04</pdfrwt>
<totfact> 0.69471078E+00</totfact>
</mgrwt>
</event>
<event>
12    5  0.5029243E-008  0.1918818E+04  0.7818608E-02  0.8645546E-01
         -2   -1    0    0    0  501 -0.00000000000E+00  0.00000000000E+00  0.87487348647E+03  0.87487348647E+03  0.00000000000E+00 0.  1.
          1   -1    0    0  501    0  0.00000000000E+00 -0.00000000000E+00 -0.10521125076E+04  0.10521125076E+04  0.00000000000E+00 0. -1.
        -24    2    1    2    0    0  0.27414244996E+01  0.34642686458E+03  0.59892220478E+03  0.69649888232E+03  0.79898672033E+02 0.  0.
        254    2    1    2    0    0 -0.27414244996E+01 -0.34642686458E+03 -0.77616122586E+03  0.12304871117E+04  0.88974895090E+03 0.  0.
         23    2    4    4    0    0 -0.41473833726E+03 -0.30628094364E+03 -0.35503303458E+03  0.63272112036E+03  0.92041597514E+02 0.  0.
         23    2    4    4    0    0  0.41199691276E+03 -0.40145920938E+02 -0.42112819128E+03  0.59776599134E+03  0.92855133502E+02 0.  0.
          1    1    3    3  502    0  0.41084738295E+02  0.18408538833E+03  0.30920491321E+03  0.36219202679E+03  0.00000000000E+00 0. -1.
         -2    1    3    3    0  502 -0.38343313795E+02  0.16234147625E+03  0.28971729157E+03  0.33430685554E+03  0.00000000000E+00 0.  1.
         13    1    5    5    0    0 -0.38556656581E+03 -0.30787407320E+03 -0.32501048269E+03  0.59082978553E+03  0.00000000000E+00 0. -1.
        -13    1    5    5    0    0 -0.29171771458E+02  0.15931295533E+01 -0.30022551890E+02  0.41891334828E+02  0.00000000000E+00 0.  1.
          3    1    6    6  503    0  0.19972999399E+03  0.25475178447E+02 -0.18300186124E+03  0.27208589899E+03  0.00000000000E+00 0. -1.
         -3    1    6    6    0  503  0.21226691878E+03 -0.65621099385E+02 -0.23812633004E+03  0.32568009235E+03  0.00000000000E+00 0.  1.
<mgrwt>
<rscale>  0 0.19188177E+04</rscale>
<asrwt>0</asrwt>
<pdfrwt beam="1">  1        1 0.16186346E+00 0.19188177E+04</pdfrwt>
<pdfrwt beam="2">  1       -2 0.13459592E+00 0.19188177E+04</pdfrwt>
<totfact> 0.44891247E+00</totfact>
</mgrwt>
</event>
<event>
12    5  0.5029243E-008  0.2641039E+04  0.7818608E-02  0.8354393E-01
         -2   -1    0    0    0  501 -0.00000000000E+00  0.00000000000E+00  0.28755083956E+04  0.28755083956E+04  0.00000000000E+00 0.  1.
          1   -1    0    0  501    0  0.00000000000E+00 -0.00000000000E+00 -0.60642192304E+03  0.60642192304E+03  0.00000000000E+00 0. -1.
        -24    2    1    2    0    0 -0.66057068310E+03  0.51048463601E+03 -0.62251752583E+02  0.84116845773E+03  0.82102999908E+02 0.  0.
        254    2    1    2    0    0  0.66057068310E+03 -0.51048463601E+03  0.23313382252E+04  0.26407618610E+04  0.91735330984E+03 0.  0.
         23    2    4    4    0    0  0.53010667422E+03 -0.42039680756E+03  0.23590696516E+04  0.24555884235E+04  0.83416561376E+02 0.  0.
         23    2    4    4    0    0  0.13046400888E+03 -0.90087828455E+02 -0.27731426380E+02  0.18517343748E+03  0.91561430142E+02 0.  0.
          3    1    3    3  502    0 -0.32545987393E+03  0.20224642631E+03 -0.16047500618E+02  0.38351697324E+03  0.00000000000E+00 0. -1.
         -4    1    3    3    0  502 -0.33511080918E+03  0.30823820970E+03 -0.46204251965E+02  0.45765148448E+03  0.00000000000E+00 0.  1.
         13    1    5    5    0    0  0.48633969826E+03 -0.39102353720E+03  0.22414506872E+04  0.23266987110E+04  0.00000000000E+00 0. -1.
        -13    1    5    5    0    0  0.43766975965E+02 -0.29373270361E+02  0.11761896436E+03  0.12888971244E+03  0.00000000000E+00 0.  1.
          3    1    6    6  503    0  0.13214593230E+03 -0.10449014022E+03 -0.27325483418E+02  0.17066756831E+03  0.00000000000E+00 0. -1.
         -3    1    6    6    0  503 -0.16819234249E+01  0.14402311768E+02 -0.40594296146E+00  0.14505869169E+02  0.00000000000E+00 0.  1.
<mgrwt>
<rscale>  0 0.26410387E+04</rscale>
<asrwt>0</asrwt>
<pdfrwt beam="1">  1        1 0.93295682E-01 0.26410387E+04</pdfrwt>
<pdfrwt beam="2">  1       -2 0.44238590E+00 0.26410387E+04</pdfrwt>
<totfact> 0.10102687E-01</totfact>
</mgrwt>
</event>
<event>
12    5  0.5029243E-008  0.1640735E+04  0.7818608E-02  0.8795907E-01
         -2   -1    0    0    0  501 -0.00000000000E+00  0.00000000000E+00  0.39867692127E+03  0.39867692127E+03  0.00000000000E+00 0.  1.
          1   -1    0    0  501    0  0.00000000000E+00 -0.00000000000E+00 -0.16880905837E+04  0.16880905837E+04  0.00000000000E+00 0. -1.
        -24    2    1    2    0    0 -0.30761624483E+03 -0.47612690022E+03 -0.33488924403E+03  0.66310121500E+03  0.78916641881E+02 0.  0.
        254    2    1    2    0    0  0.30761624483E+03  0.47612690022E+03 -0.95452441843E+03  0.14236662900E+04  0.89128236868E+03 0.  0.
         23    2    4    4    0    0  0.26510649950E+03  0.41269112105E+03 -0.38828287213E+02  0.50012912024E+03  0.89588411961E+02 0.  0.
         23    2    4    4    0    0  0.42509745339E+02  0.63435779167E+02 -0.91569613122E+03  0.92353716977E+03  0.92683993686E+02 0.  0.
          1    1    3    3  502    0 -0.20620497203E+03 -0.32223700655E+03 -0.26774118382E+03  0.46695023332E+03  0.00000000000E+00 0. -1.
         -2    1    3    3    0  502 -0.10141127280E+03 -0.15388989367E+03 -0.67148060215E+02  0.19615098168E+03  0.00000000000E+00 0.  1.
         13    1    5    5    0    0  0.17503114543E+03  0.31730850986E+03  0.31147216200E+01  0.36239521767E+03  0.00000000000E+00 0.  1.
        -13    1    5    5    0    0  0.90075354067E+02  0.95382611193E+02 -0.41943008833E+02  0.13773390257E+03  0.00000000000E+00 0. -1.
          3    1    6    6  503    0  0.48140401068E+02  0.58445506127E+02 -0.36411386092E+03  0.37190358847E+03  0.00000000000E+00 0. -1.
         -3    1    6    6    0  503 -0.56306557288E+01  0.49902730397E+01 -0.55158227030E+03  0.55163358130E+03  0.00000000000E+00 0.  1.
<mgrwt>
<rscale>  0 0.16407349E+04</rscale>
<asrwt>0</asrwt>
<pdfrwt beam="1">  1        1 0.25970624E+00 0.16407349E+04</pdfrwt>
<pdfrwt beam="2">  1       -2 0.61334912E-01 0.16407349E+04</pdfrwt>
<totfact> 0.10075398E+01</totfact>
</mgrwt>
</event>
<event>
12    5  0.5029243E-008  0.1716555E+04  0.7818608E-02  0.8751978E-01
         -4   -1    0    0    0  501 -0.00000000000E+00  0.00000000000E+00  0.85262729403E+03  0.85262729403E+03  0.00000000000E+00 0.  1.
          1   -1    0    0  501    0  0.00000000000E+00 -0.00000000000E+00 -0.86396549332E+03  0.86396549332E+03  0.00000000000E+00 0. -1.
        -24    2    1    2    0    0  0.34093454453E+03 -0.21418378883E+03 -0.47232532917E+03  0.62596510895E+03  0.81425069843E+02 0.  0.
        254    2    1    2    0    0 -0.34093454453E+03  0.21418378883E+03  0.46098712988E+03  0.10906276784E+04  0.90268961438E+03 0.  0.
         23    2    4    4    0    0 -0.21247344389E+03 -0.34003285660E+03  0.16234911938E+03  0.44166213277E+03  0.89111699762E+02 0.  0.
         23    2    4    4    0    0 -0.12846110064E+03  0.55421664543E+03  0.29863801050E+03  0.64896554562E+03  0.91177155245E+02 0.  0.
          1    1    3    3  502    0  0.26823676102E+03 -0.19927822945E+03 -0.35851457844E+03  0.49009741445E+03  0.00000000000E+00 0. -1.
         -2    1    3    3    0  502  0.72697783515E+02 -0.14905559374E+02 -0.11381075073E+03  0.13586769450E+03  0.00000000000E+00 0.  1.
         13    1    5    5    0    0 -0.17370001399E+03 -0.28532454855E+03  0.96541072149E+02  0.34770960797E+03  0.00000000000E+00 0.  1.
        -13    1    5    5    0    0 -0.38773429894E+02 -0.54708308059E+02  0.65808047229E+02  0.93952524801E+02  0.00000000000E+00 0. -1.
          3    1    6    6  503    0 -0.13026657151E+03  0.38364098320E+03  0.22151927217E+03  0.46175813104E+03  0.00000000000E+00 0.  1.
         -3    1    6    6    0  503  0.18054708708E+01  0.17057566223E+03  0.77118738330E+02  0.18720741458E+03  0.00000000000E+00 0. -1.
<mgrwt>
<rscale>  0 0.17165553E+04</rscale>
<asrwt>0</asrwt>
<pdfrwt beam="1">  1        1 0.13291777E+00 0.17165553E+04</pdfrwt>
<pdfrwt beam="2">  1       -4 0.13117343E+00 0.17165553E+04</pdfrwt>
<totfact> 0.37905164E+00</totfact>
</mgrwt>
</event>
<event>
12    5  0.5029243E-008  0.1685520E+04  0.7818608E-02  0.8769666E-01
          1   -1    0    0  501    0  0.00000000000E+00  0.00000000000E+00  0.23931870553E+04  0.23931870553E+04  0.00000000000E+00 0. -1.
         -2   -1    0    0    0  501 -0.00000000000E+00 -0.00000000000E+00 -0.29677773761E+03  0.29677773761E+03  0.00000000000E+00 0.  1.
        -24    2    1    2    0    0  0.24058532368E+03 -0.53486054730E+03  0.94343339659E+03  0.11136997537E+04  0.79394361790E+02 0.  0.
        254    2    1    2    0    0 -0.24058532368E+03  0.53486054730E+03  0.11529759211E+04  0.15762650391E+04  0.90072243005E+03 0.  0.
         23    2    4    4    0    0 -0.37492790090E+03 -0.11398028653E+02  0.13308652859E+03  0.40857415371E+03  0.92303678445E+02 0.  0.
         23    2    4    4    0    0  0.13434257722E+03  0.54625857595E+03  0.10198893925E+04  0.11676908854E+04  0.82953427636E+02 0.  0.
          1    1    3    3  502    0 -0.46590050045E+01 -0.27816743176E+02  0.36961110742E+02  0.46493023518E+02  0.00000000000E+00 0. -1.
         -2    1    3    3    0  502  0.24524432868E+03 -0.50704380412E+03  0.90647228584E+03  0.10672067302E+04  0.00000000000E+00 0.  1.
         13    1    5    5    0    0 -0.31237758449E+03 -0.81721472922E+01  0.14553941940E+03  0.34471475437E+03  0.00000000000E+00 0.  1.
        -13    1    5    5    0    0 -0.62550316412E+02 -0.32258813613E+01 -0.12452890812E+02  0.63859399335E+02  0.00000000000E+00 0. -1.
          1    1    6    6  503    0  0.11588416344E+02  0.21541386331E+03  0.39032731599E+03  0.44597403232E+03  0.00000000000E+00 0. -1.
         -1    1    6    6    0  503  0.12275416088E+03  0.33084471264E+03  0.62956207651E+03  0.72171685312E+03  0.00000000000E+00 0.  1.
<mgrwt>
<rscale>  0 0.16855203E+04</rscale>
<asrwt>0</asrwt>
<pdfrwt beam="1">  1        1 0.36818261E+00 0.16855203E+04</pdfrwt>
<pdfrwt beam="2">  1       -2 0.45658115E-01 0.16855203E+04</pdfrwt>
<totfact> 0.61195343E+00</totfact>
</mgrwt>
</event>
<event>
12    5  0.5029243E-008  0.2066420E+04  0.7818608E-02  0.8576182E-01
         -2   -1    0    0    0  501 -0.00000000000E+00  0.00000000000E+00  0.56270368417E+03  0.56270368417E+03  0.00000000000E+00 0.  1.
          1   -1    0    0  501    0  0.00000000000E+00 -0.00000000000E+00 -0.18971315233E+04  0.18971315233E+04  0.00000000000E+00 0. -1.
        -24    2    1    2    0    0 -0.63396761266E+03 -0.86949942632E+02 -0.11861231151E+04  0.13502845002E+04  0.83096094155E+02 0.  0.
        254    2    1    2    0    0  0.63396761266E+03  0.86949942632E+02 -0.14830472398E+03  0.11095507072E+04  0.89422215045E+03 0.  0.
         23    2    4    4    0    0 -0.14935407662E+03 -0.13742056452E+03  0.11156171949E+03  0.24925568999E+03  0.92148412804E+02 0.  0.
         23    2    4    4    0    0  0.78332168928E+03  0.22437050715E+03 -0.25986644347E+03  0.86029501724E+03  0.92962115301E+02 0.  0.
          1    1    3    3  502    0 -0.23567500451E+03 -0.45889357102E+02 -0.36744339030E+03  0.43893414759E+03  0.00000000000E+00 0. -1.
         -2    1    3    3    0  502 -0.39829260815E+03 -0.41060585530E+02 -0.81867972481E+03  0.91135035261E+03  0.00000000000E+00 0.  1.
         13    1    5    5    0    0 -0.82540152914E+01 -0.14653663152E+02  0.49368035534E+02  0.52154209271E+02  0.00000000000E+00 0. -1.
        -13    1    5    5    0    0 -0.14110006133E+03 -0.12276690137E+03  0.62193683952E+02  0.19710148072E+03  0.00000000000E+00 0.  1.
          2    1    6    6  503    0  0.10683647898E+02  0.96486229865E+01 -0.17270956643E+02  0.22483820879E+02  0.00000000000E+00 0. -1.
         -2    1    6    6    0  503  0.77263804138E+03  0.21472188417E+03 -0.24259548682E+03  0.83781119636E+03  0.00000000000E+00 0.  1.
<mgrwt>
<rscale>  0 0.20664200E+04</rscale>
<asrwt>0</asrwt>
<pdfrwt beam="1">  1        1 0.29186639E+00 0.20664200E+04</pdfrwt>
<pdfrwt beam="2">  1       -2 0.86569797E-01 0.20664200E+04</pdfrwt>
<totfact> 0.32757812E+00</totfact>
</mgrwt>
</event>
<event>
12    5  0.5029243E-008  0.1908371E+04  0.7818608E-02  0.8650701E-01
          1   -1    0    0  501    0  0.00000000000E+00  0.00000000000E+00  0.45159153925E+03  0.45159153925E+03  0.00000000000E+00 0. -1.
         -2   -1    0    0    0  501 -0.00000000000E+00 -0.00000000000E+00 -0.20161368681E+04  0.20161368681E+04  0.00000000000E+00 0.  1.
        -24    2    1    2    0    0  0.59450456590E+03 -0.26651057252E+03 -0.10799000859E+04  0.12638141223E+04  0.81107188239E+02 0.  0.
        254    2    1    2    0    0 -0.59450456590E+03  0.26651057252E+03 -0.48464524293E+03  0.12039142851E+04  0.88885602330E+03 0.  0.
         23    2    4    4    0    0  0.11034955518E+03 -0.12347968009E+03 -0.32926660965E+03  0.37959612720E+03  0.90843072555E+02 0.  0.
         23    2    4    4    0    0 -0.70485412108E+03  0.38999025261E+03 -0.15537863328E+03  0.82431815787E+03  0.80288084885E+02 0.  0.
          1    1    3    3  502    0  0.12193820361E+03 -0.62537327422E+02 -0.16928669394E+03  0.21780226712E+03  0.00000000000E+00 0. -1.
         -2    1    3    3    0  502  0.47256636229E+03 -0.20397324510E+03 -0.91061339198E+03  0.10460118552E+04  0.00000000000E+00 0.  1.
         13    1    5    5    0    0  0.35229511084E-01 -0.29126527052E+02 -0.13585333791E+02  0.32139027886E+02  0.00000000000E+00 0.  1.
        -13    1    5    5    0    0  0.11031432567E+03 -0.94353153039E+02 -0.31568127585E+03  0.34745709931E+03  0.00000000000E+00 0. -1.
          2    1    6    6  503    0 -0.11597805412E+03  0.87357632658E+02 -0.45596728739E+01  0.14526890802E+03  0.00000000000E+00 0.  1.
         -2    1    6    6    0  503 -0.58887606696E+03  0.30263261995E+03 -0.15081896041E+03  0.67904924985E+03  0.00000000000E+00 0. -1.
<mgrwt>
<rscale>  0 0.19083714E+04</rscale>
<asrwt>0</asrwt>
<pdfrwt beam="1">  1        1 0.69475622E-01 0.19083714E+04</pdfrwt>
<pdfrwt beam="2">  1       -2 0.31017490E+00 0.19083714E+04</pdfrwt>
<totfact> 0.11494951E+00</totfact>
</mgrwt>
</event>
<event>
12    5  0.5029243E-008  0.1800825E+04  0.7818608E-02  0.8705861E-01
         -2   -1    0    0    0  501 -0.00000000000E+00  0.00000000000E+00  0.80455529763E+03  0.80455529763E+03  0.00000000000E+00 0.  1.
          1   -1    0    0  501    0  0.00000000000E+00 -0.00000000000E+00 -0.10076908936E+04  0.10076908936E+04  0.00000000000E+00 0. -1.
        -24    2    1    2    0    0  0.20905743096E+02 -0.39556611678E+03 -0.62364425095E+03  0.74319724932E+03  0.80625038418E+02 0.  0.
        254    2    1    2    0    0 -0.20905743096E+02  0.39556611678E+03  0.42050865496E+03  0.10690489419E+04  0.89951570774E+03 0.  0.
         23    2    4    4    0    0  0.73850935496E+02 -0.26559043052E+03  0.22581403982E+03  0.36724359095E+03  0.88789847697E+02 0.  0.
         23    2    4    4    0    0 -0.94756678592E+02  0.66115654730E+03  0.19469461514E+03  0.70180535097E+03  0.92292737005E+02 0.  0.
          1    1    3    3  502    0  0.25356101935E+02 -0.28446974149E+03 -0.50797098055E+03  0.58275250562E+03  0.00000000000E+00 0. -1.
         -2    1    3    3    0  502 -0.44503588390E+01 -0.11109637529E+03 -0.11567327040E+03  0.16044474370E+03  0.00000000000E+00 0.  1.
         13    1    5    5    0    0  0.61587494691E+02 -0.10989739506E+03  0.14262019462E+03  0.19029182026E+03  0.00000000000E+00 0. -1.
        -13    1    5    5    0    0  0.12263440805E+02 -0.15569303546E+03  0.83193845199E+02  0.17695177069E+03  0.00000000000E+00 0.  1.
          4    1    6    6  503    0 -0.80895736620E+02  0.39916783332E+03  0.78074684777E+02  0.41469836721E+03  0.00000000000E+00 0. -1.
         -4    1    6    6    0  503 -0.13860941972E+02  0.26198871398E+03  0.11661993036E+03  0.28710698376E+03  0.00000000000E+00 0.  1.
<mgrwt>
<rscale>  0 0.18008254E+04</rscale>
<asrwt>0</asrwt>
<pdfrwt beam="1">  1        1 0.15502937E+00 0.18008254E+04</pdfrwt>
<pdfrwt beam="2">  1       -2 0.12377774E+00 0.18008254E+04</pdfrwt>
<totfact> 0.60661057E+00</totfact>
</mgrwt>
</event>
<event>
12    5  0.5029243E-008  0.2709747E+04  0.7818608E-02  0.8331849E-01
          1   -1    0    0  501    0  0.00000000000E+00  0.00000000000E+00  0.11835910669E+04  0.11835910669E+04  0.00000000000E+00 0. -1.
         -2   -1    0    0    0  501 -0.00000000000E+00 -0.00000000000E+00 -0.15509433415E+04  0.15509433415E+04  0.00000000000E+00 0.  1.
        -24    2    1    2    0    0  0.67589803063E+03 -0.98680107478E+03 -0.28913879680E+03  0.12330119053E+04  0.78119177220E+02 0.  0.
        254    2    1    2    0    0 -0.67589803063E+03  0.98680107478E+03 -0.78213477881E+02  0.15015225031E+04  0.90434394462E+03 0.  0.
         23    2    4    4    0    0 -0.73460377069E+03  0.69016385368E+03 -0.36413330024E+03  0.10755373653E+04  0.90657150287E+02 0.  0.
         23    2    4    4    0    0  0.58705740060E+02  0.29663722110E+03  0.28591982236E+03  0.42598513783E+03  0.90957066667E+02 0.  0.
          3    1    3    3  502    0  0.46545790935E+03 -0.73150290823E+03 -0.18973773073E+03  0.88755167545E+03  0.00000000000E+00 0. -1.
         -4    1    3    3    0  502  0.21044012128E+03 -0.25529816655E+03 -0.99401066073E+02  0.34546022987E+03  0.00000000000E+00 0.  1.
         13    1    5    5    0    0 -0.35851941620E+03  0.27850601317E+03 -0.14745625536E+03  0.47733124601E+03  0.00000000000E+00 0. -1.
        -13    1    5    5    0    0 -0.37608435448E+03  0.41165784051E+03 -0.21667704488E+03  0.59820611926E+03  0.00000000000E+00 0.  1.
          2    1    6    6  503    0  0.21791623905E+01  0.56878884673E+02  0.13093353485E+02  0.58407124358E+02  0.00000000000E+00 0. -1.
         -2    1    6    6    0  503  0.56526577669E+02  0.23975833642E+03  0.27282646887E+03  0.36757801347E+03  0.00000000000E+00 0.  1.
<mgrwt>
<rscale>  0 0.27097474E+04</rscale>
<asrwt>0</asrwt>
<pdfrwt beam="1">  1        1 0.18209093E+00 0.27097474E+04</pdfrwt>
<pdfrwt beam="2">  1       -2 0.23860667E+00 0.27097474E+04</pdfrwt>
<totfact> 0.63555519E-01</totfact>
</mgrwt>
</event>
<event>
12    5  0.5029243E-008  0.1324722E+04  0.7818608E-02  0.9010187E-01
         -4   -1    0    0    0  501 -0.00000000000E+00  0.00000000000E+00  0.44182176302E+03  0.44182176302E+03  0.00000000000E+00 0.  1.
          1   -1    0    0  501    0  0.00000000000E+00 -0.00000000000E+00 -0.99298501263E+03  0.99298501263E+03  0.00000000000E+00 0. -1.
        -24    2    1    2    0    0 -0.22437498958E+03  0.29338807544E+03 -0.35881362653E+02  0.37957290840E+03  0.79796126758E+02 0.  0.
        254    2    1    2    0    0  0.22437498958E+03 -0.29338807544E+03 -0.51528188695E+03  0.10552338673E+04  0.84355343211E+03 0.  0.
         23    2    4    4    0    0  0.52580992771E+02  0.13561732223E+02 -0.65648644796E+03  0.66532581504E+03  0.93462839824E+02 0.  0.
         23    2    4    4    0    0  0.17179399681E+03 -0.30694980766E+03  0.14120456100E+03  0.38990805221E+03  0.91423188359E+02 0.  0.
          3    1    3    3  502    0 -0.51167615653E+02  0.38014085281E+02  0.18215627563E+02  0.66294831314E+02  0.00000000000E+00 0. -1.
         -4    1    3    3    0  502 -0.17320737393E+03  0.25537399016E+03 -0.54096990216E+02  0.31327807709E+03  0.00000000000E+00 0.  1.
         13    1    5    5    0    0  0.59092270608E+02 -0.16068870341E+01 -0.20030501258E+03  0.20884582016E+03  0.00000000000E+00 0.  1.
        -13    1    5    5    0    0 -0.65112778369E+01  0.15168619257E+02 -0.45618143537E+03  0.45647999488E+03  0.00000000000E+00 0. -1.
          1    1    6    6  503    0  0.17559639662E+03 -0.31049373853E+03  0.14314773036E+03  0.38435885430E+03  0.00000000000E+00 0. -1.
         -1    1    6    6    0  503 -0.38023998108E+01  0.35439308686E+01 -0.19431693571E+01  0.55491979125E+01  0.00000000000E+00 0.  1.
<mgrwt>
<rscale>  0 0.13247224E+04</rscale>
<asrwt>0</asrwt>
<pdfrwt beam="1">  1        1 0.15276693E+00 0.13247224E+04</pdfrwt>
<pdfrwt beam="2">  1       -4 0.67972579E-01 0.13247224E+04</pdfrwt>
<totfact> 0.14623645E+01</totfact>
</mgrwt>
</event>
<event>
12    5  0.5029243E-008  0.1638924E+04  0.7818608E-02  0.8796986E-01
          1   -1    0    0  501    0  0.00000000000E+00  0.00000000000E+00  0.82952809173E+03  0.82952809173E+03  0.00000000000E+00 0. -1.
         -2   -1    0    0    0  501 -0.00000000000E+00 -0.00000000000E+00 -0.80951806467E+03  0.80951806467E+03  0.00000000000E+00 0.  1.
        -24    2    1    2    0    0 -0.30910595289E+03  0.47238621401E+03 -0.93661837847E+02  0.57776173757E+03  0.79629518646E+02 0.  0.
        254    2    1    2    0    0  0.30910595289E+03 -0.47238621401E+03  0.11367186491E+03  0.10612844188E+04  0.89146402030E+03 0.  0.
         23    2    4    4    0    0  0.43649011365E+03 -0.39333054681E+03  0.40640951894E+03  0.72010477699E+03  0.90275436299E+02 0.  0.
         23    2    4    4    0    0 -0.12738416076E+03 -0.79055667199E+02 -0.29273765403E+03  0.34117964184E+03  0.90728666844E+02 0.  0.
          1    1    3    3  502    0 -0.25522234999E+03  0.34586000416E+03 -0.95113679335E+02  0.44023198703E+03  0.00000000000E+00 0. -1.
         -2    1    3    3    0  502 -0.53883602902E+02  0.12652620985E+03  0.14518414879E+01  0.13752975054E+03  0.00000000000E+00 0.  1.
         13    1    5    5    0    0  0.22948478487E+03 -0.14733649975E+03  0.17622356327E+03  0.32469378635E+03  0.00000000000E+00 0.  1.
        -13    1    5    5    0    0  0.20700532878E+03 -0.24599404706E+03  0.23018595567E+03  0.39541099064E+03  0.00000000000E+00 0. -1.
          1    1    6    6  503    0 -0.91230400575E+02 -0.52666408853E+02 -0.27231605282E+03  0.29198076860E+03  0.00000000000E+00 0. -1.
         -1    1    6    6    0  503 -0.36153760183E+02 -0.26389258346E+02 -0.20421601213E+02  0.49198873235E+02  0.00000000000E+00 0.  1.
<mgrwt>
<rscale>  0 0.16389240E+04</rscale>
<asrwt>0</asrwt>
<pdfrwt beam="1">  1        1 0.12761971E+00 0.16389240E+04</pdfrwt>
<pdfrwt beam="2">  1       -2 0.12454124E+00 0.16389240E+04</pdfrwt>
<totfact> 0.84523133E+00</totfact>
</mgrwt>
</event>
<event>
12    5  0.5029243E-008  0.3287525E+04  0.7818608E-02  0.8166077E-01
         -2   -1    0    0    0  501 -0.00000000000E+00  0.00000000000E+00  0.21805168419E+04  0.21805168419E+04  0.00000000000E+00 0.  1.
          1   -1    0    0  501    0  0.00000000000E+00 -0.00000000000E+00 -0.12391352748E+04  0.12391352748E+04  0.00000000000E+00 0. -1.
        -24    2    1    2    0    0 -0.28522896198E+03  0.14904315304E+04  0.36865622962E+03  0.15636188578E+04  0.79087352569E+02 0.  0.
        254    2    1    2    0    0  0.28522896198E+03 -0.14904315304E+04  0.57272533742E+03  0.18560332589E+04  0.90227680810E+03 0.  0.
         23    2    4    4    0    0 -0.30516856892E+03 -0.39644553682E+03  0.79005018595E+02  0.51497054986E+03  0.93037385731E+02 0.  0.
         23    2    4    4    0    0  0.59039753091E+03 -0.10939859936E+04  0.49372031883E+03  0.13410627090E+04  0.96513406694E+02 0.  0.
          3    1    3    3  502    0 -0.25156662884E+03  0.12708638463E+04  0.28684284520E+03  0.13268984522E+04  0.00000000000E+00 0. -1.
         -4    1    3    3    0  502 -0.33662333144E+02  0.21956768412E+03  0.81813384418E+02  0.23672040566E+03  0.00000000000E+00 0.  1.
         13    1    5    5    0    0 -0.83912292914E+02 -0.12917492306E+03  0.66491614849E+02  0.16777535127E+03  0.00000000000E+00 0. -1.
        -13    1    5    5    0    0 -0.22125627601E+03 -0.26727061376E+03  0.12513403746E+02  0.34719519859E+03  0.00000000000E+00 0.  1.
          4    1    6    6  503    0  0.15897321845E+03 -0.24937934980E+03  0.80219124594E+02  0.30642723809E+03  0.00000000000E+00 0. -1.
         -4    1    6    6    0  503  0.43142431246E+03 -0.84460664379E+03  0.41350119423E+03  0.10346354709E+04  0.00000000000E+00 0.  1.
<mgrwt>
<rscale>  0 0.32875251E+04</rscale>
<asrwt>0</asrwt>
<pdfrwt beam="1">  1        1 0.19063620E+00 0.32875251E+04</pdfrwt>
<pdfrwt beam="2">  1       -2 0.33546413E+00 0.32875251E+04</pdfrwt>
<totfact> 0.13998603E-01</totfact>
</mgrwt>
</event>
<event>
12    5  0.5029243E-008  0.2416784E+04  0.7818608E-02  0.8433246E-01
         -2   -1    0    0    0  501 -0.00000000000E+00  0.00000000000E+00  0.17125184569E+04  0.17125184569E+04  0.00000000000E+00 0.  1.
          1   -1    0    0  501    0  0.00000000000E+00 -0.00000000000E+00 -0.85266898417E+03  0.85266898417E+03  0.00000000000E+00 0. -1.
        -24    2    1    2    0    0  0.10102192399E+04 -0.17810354089E+03  0.21857976794E+03  0.10518593257E+04  0.79794374617E+02 0.  0.
        254    2    1    2    0    0 -0.10102192399E+04  0.17810354089E+03  0.64126970475E+03  0.15133281153E+04  0.90921469771E+03 0.  0.
         23    2    4    4    0    0 -0.36734578107E+03 -0.84455241613E+02  0.71053975462E+03  0.80945983448E+03  0.91010274366E+02 0.  0.
         23    2    4    4    0    0 -0.64287345880E+03  0.26255878250E+03 -0.69270049867E+02  0.70386828085E+03  0.91699611134E+02 0.  0.
          3    1    3    3  502    0  0.63171832389E+03 -0.92635412926E+02  0.17060142079E+03  0.66087381945E+03  0.00000000000E+00 0. -1.
         -4    1    3    3    0  502  0.37850091599E+03 -0.85468127959E+02  0.47978347152E+02  0.39098550625E+03  0.00000000000E+00 0.  1.
         13    1    5    5    0    0 -0.13827077492E+03 -0.22209068328E+02  0.35831850869E+03  0.38471314455E+03  0.00000000000E+00 0. -1.
        -13    1    5    5    0    0 -0.22907500615E+03 -0.62246173286E+02  0.35222124592E+03  0.42474668994E+03  0.00000000000E+00 0.  1.
          3    1    6    6  503    0 -0.54465155150E+03  0.20737522360E+03 -0.88814546173E+02  0.58952338336E+03  0.00000000000E+00 0. -1.
         -3    1    6    6    0  503 -0.98221907294E+02  0.55183558901E+02  0.19544496307E+02  0.11434489749E+03  0.00000000000E+00 0.  1.
<mgrwt>
<rscale>  0 0.24167841E+04</rscale>
<asrwt>0</asrwt>
<pdfrwt beam="1">  1        1 0.13117984E+00 0.24167841E+04</pdfrwt>
<pdfrwt beam="2">  1       -2 0.26346438E+00 0.24167841E+04</pdfrwt>
<totfact> 0.83054012E-01</totfact>
</mgrwt>
</event>
<event>
12    5  0.5029243E-008  0.3442886E+04  0.7818608E-02  0.8127460E-01
          1   -1    0    0  501    0  0.00000000000E+00  0.00000000000E+00  0.18913123994E+04  0.18913123994E+04  0.00000000000E+00 0. -1.
         -2   -1    0    0    0  501 -0.00000000000E+00 -0.00000000000E+00 -0.15668308820E+04  0.15668308820E+04  0.00000000000E+00 0.  1.
        -24    2    1    2    0    0 -0.12134889035E+03  0.80504440701E+03  0.15399735768E+04  0.17437820564E+04  0.80219652392E+02 0.  0.
        254    2    1    2    0    0  0.12134889035E+03 -0.80504440701E+03 -0.12154920594E+04  0.17143612249E+04  0.89375131483E+03 0.  0.
         23    2    4    4    0    0  0.20021701086E+03  0.10888143644E+03 -0.94697090921E+02  0.26308106390E+03  0.91115797291E+02 0.  0.
         23    2    4    4    0    0 -0.78868120510E+02 -0.91392584346E+03 -0.11207949684E+04  0.14512801610E+04  0.92477655585E+02 0.  0.
          1    1    3    3  502    0 -0.11939477227E+03  0.57936618825E+03  0.11495997992E+04  0.12928650317E+04  0.00000000000E+00 0. -1.
         -2    1    3    3    0  502 -0.19541180792E+01  0.22567821876E+03  0.39037377759E+03  0.45091702477E+03  0.00000000000E+00 0.  1.
         13    1    5    5    0    0  0.13679650829E+03  0.25815295653E+02 -0.38577019063E+02  0.14445726208E+03  0.00000000000E+00 0.  1.
        -13    1    5    5    0    0  0.63420502570E+02  0.83066140792E+02 -0.56120071858E+02  0.11862380182E+03  0.00000000000E+00 0. -1.
          3    1    6    6  503    0 -0.34759697527E+02 -0.11900411570E+03 -0.18411384097E+03  0.22196423712E+03  0.00000000000E+00 0. -1.
         -3    1    6    6    0  503 -0.44108422983E+02 -0.79492172776E+03 -0.93668112748E+03  0.12293159239E+04  0.00000000000E+00 0.  1.
<mgrwt>
<rscale>  0 0.34428864E+04</rscale>
<asrwt>0</asrwt>
<pdfrwt beam="1">  1        1 0.29097114E+00 0.34428864E+04</pdfrwt>
<pdfrwt beam="2">  1       -2 0.24105090E+00 0.34428864E+04</pdfrwt>
<totfact> 0.18571861E-01</totfact>
</mgrwt>
</event>
<event>
12    5  0.5029243E-008  0.1324618E+04  0.7818608E-02  0.9010268E-01
         -2   -1    0    0    0  501 -0.00000000000E+00  0.00000000000E+00  0.52754851853E+03  0.52754851853E+03  0.00000000000E+00 0.  1.
          1   -1    0    0  501    0  0.00000000000E+00 -0.00000000000E+00 -0.83149357255E+03  0.83149357255E+03  0.00000000000E+00 0. -1.
        -24    2    1    2    0    0 -0.16667828248E+03 -0.21555180990E+03 -0.29102573737E+03  0.40689187827E+03  0.81368225914E+02 0.  0.
        254    2    1    2    0    0  0.16667828248E+03  0.21555180990E+03 -0.12919316646E+02  0.95215021282E+03  0.91223839341E+03 0.  0.
         23    2    4    4    0    0  0.43510794085E+03  0.24987279219E+03  0.24610002119E+03  0.56665547537E+03  0.93690313634E+02 0.  0.
         23    2    4    4    0    0 -0.26842965837E+03 -0.34320982290E+02 -0.25901933784E+03  0.38549473744E+03  0.91009691281E+02 0.  0.
          1    1    3    3  502    0 -0.12869408523E+03 -0.19918389501E+03 -0.27344158552E+03  0.36194846635E+03  0.00000000000E+00 0. -1.
         -2    1    3    3    0  502 -0.37984197248E+02 -0.16367914895E+02 -0.17584151853E+02  0.44943411920E+02  0.00000000000E+00 0.  1.
         13    1    5    5    0    0  0.34517566898E+03  0.23790410202E+03  0.19276155237E+03  0.46141263559E+03  0.00000000000E+00 0.  1.
        -13    1    5    5    0    0  0.89932271870E+02  0.11968690172E+02  0.53338468820E+02  0.10524283978E+03  0.00000000000E+00 0. -1.
          4    1    6    6  503    0 -0.12068901693E+02  0.18311762845E+02 -0.33411039708E+02  0.39965943263E+02  0.00000000000E+00 0. -1.
         -4    1    6    6    0  503 -0.25636075668E+03 -0.52632745136E+02 -0.22560829813E+03  0.34552879418E+03  0.00000000000E+00 0.  1.
<mgrwt>
<rscale>  0 0.13246180E+04</rscale>
<asrwt>0</asrwt>
<pdfrwt beam="1">  1        1 0.12792209E+00 0.13246180E+04</pdfrwt>
<pdfrwt beam="2">  1       -2 0.81161311E-01 0.13246180E+04</pdfrwt>
<totfact> 0.23881694E+01</totfact>
</mgrwt>
</event>
<event>
12    5  0.8422559E-008  0.1840777E+04  0.7818608E-02  0.8684910E-01
         -4   -1    0    0    0  501 -0.00000000000E+00  0.00000000000E+00  0.63700216100E+03  0.63700216100E+03  0.00000000000E+00 0.  1.
          3   -1    0    0  501    0  0.00000000000E+00 -0.00000000000E+00 -0.13298462354E+04  0.13298462354E+04  0.00000000000E+00 0. -1.
        -24    2    1    2    0    0  0.26526574382E+03 -0.31665531982E+03 -0.86129967044E+03  0.95860534325E+03  0.80315474103E+02 0.  0.
        254    2    1    2    0    0 -0.26526574382E+03  0.31665531982E+03  0.16845559605E+03  0.10082430531E+04  0.90417932954E+03 0.  0.
         23    2    4    4    0    0  0.18828916356E+03  0.20325322171E+03 -0.24157366783E+03  0.37933770478E+03  0.93672706967E+02 0.  0.
         23    2    4    4    0    0 -0.45355490738E+03  0.11340209812E+03  0.41002926388E+03  0.62890534837E+03  0.93945995689E+02 0.  0.
          1    1    3    3  502    0  0.24531663683E+03 -0.27544303709E+03 -0.80885663572E+03  0.88898716309E+03  0.00000000000E+00 0. -1.
         -2    1    3    3    0  502  0.19949106995E+02 -0.41212282732E+02 -0.52443034722E+02  0.69618180159E+02  0.00000000000E+00 0.  1.
         13    1    5    5    0    0  0.40583460120E+02  0.11681285151E+02 -0.73530929645E+02  0.84795443702E+02  0.00000000000E+00 0.  1.
        -13    1    5    5    0    0  0.14770570344E+03  0.19157193656E+03 -0.16804273819E+03  0.29454226108E+03  0.00000000000E+00 0. -1.
          4    1    6    6  503    0 -0.44786361243E+03  0.10805256448E+03  0.41464835532E+03  0.61983096938E+03  0.00000000000E+00 0. -1.
         -4    1    6    6    0  503 -0.56912949465E+01  0.53495336340E+01 -0.46190914433E+01  0.90743789887E+01  0.00000000000E+00 0.  1.
<mgrwt>
<rscale>  0 0.18407769E+04</rscale>
<asrwt>0</asrwt>
<pdfrwt beam="1">  1        3 0.20459173E+00 0.18407769E+04</pdfrwt>
<pdfrwt beam="2">  1       -4 0.98000334E-01 0.18407769E+04</pdfrwt>
<totfact> 0.25747947E-01</totfact>
</mgrwt>
</event>
<event>
12    5  0.5029243E-008  0.1548127E+04  0.7818608E-02  0.8853065E-01
         -2   -1    0    0    0  501 -0.00000000000E+00  0.00000000000E+00  0.68995554099E+03  0.68995554099E+03  0.00000000000E+00 0.  1.
          1   -1    0    0  501    0  0.00000000000E+00 -0.00000000000E+00 -0.86842462191E+03  0.86842462191E+03  0.00000000000E+00 0. -1.
        -24    2    1    2    0    0  0.45992848824E+03 -0.62189622986E+01 -0.29920820236E+03  0.55461944999E+03  0.80649216720E+02 0.  0.
        254    2    1    2    0    0 -0.45992848824E+03  0.62189622986E+01  0.12073912144E+03  0.10037607129E+04  0.88395969566E+03 0.  0.
         23    2    4    4    0    0 -0.62048564688E+03 -0.14580489048E+03 -0.13013206221E+03  0.65722126797E+03  0.93509023022E+02 0.  0.
         23    2    4    4    0    0  0.16055715863E+03  0.15202385278E+03  0.25087118365E+03  0.34653944494E+03  0.90903152379E+02 0.  0.
          1    1    3    3  502    0  0.42671215078E+03 -0.25256362394E+02 -0.26277076343E+03  0.50176649707E+03  0.00000000000E+00 0. -1.
         -2    1    3    3    0  502  0.33216337462E+02  0.19037400095E+02 -0.36437438933E+02  0.52852952924E+02  0.00000000000E+00 0.  1.
         13    1    5    5    0    0 -0.53674019576E+03 -0.92985491680E+02 -0.10105891984E+03  0.55403000341E+03  0.00000000000E+00 0. -1.
        -13    1    5    5    0    0 -0.83745451120E+02 -0.52819398799E+02 -0.29073142376E+02  0.10319126455E+03  0.00000000000E+00 0.  1.
          2    1    6    6  503    0  0.23160191174E+02  0.70999966497E+02  0.11439255422E+03  0.13661275987E+03  0.00000000000E+00 0.  1.
         -2    1    6    6    0  503  0.13739696746E+03  0.81023886280E+02  0.13647862944E+03  0.20992668508E+03  0.00000000000E+00 0. -1.
<mgrwt>
<rscale>  0 0.15481271E+04</rscale>
<asrwt>0</asrwt>
<pdfrwt beam="1">  1        1 0.13360379E+00 0.15481271E+04</pdfrwt>
<pdfrwt beam="2">  1       -2 0.10614701E+00 0.15481271E+04</pdfrwt>
<totfact> 0.11685789E+01</totfact>
</mgrwt>
</event>
<event>
12    5  0.5029243E-008  0.1380121E+04  0.7818608E-02  0.8968335E-01
         -2   -1    0    0    0  501 -0.00000000000E+00  0.00000000000E+00  0.21555541779E+04  0.21555541779E+04  0.00000000000E+00 0.  1.
          1   -1    0    0  501    0  0.00000000000E+00 -0.00000000000E+00 -0.22091007333E+03  0.22091007333E+03  0.00000000000E+00 0. -1.
        -24    2    1    2    0    0 -0.99891976723E+02  0.30287356946E+03  0.94251885239E+03  0.99812111655E+03  0.78696696965E+02 0.  0.
        254    2    1    2    0    0  0.99891976723E+02 -0.30287356946E+03  0.99212525215E+03  0.13783431346E+04  0.90211222959E+03 0.  0.
         23    2    4    4    0    0  0.46860419182E+03 -0.21981637391E+03  0.36721207317E+03  0.64250146966E+03  0.10027115740E+03 0.  0.
         23    2    4    4    0    0 -0.36871221510E+03 -0.83057195548E+02  0.62491317899E+03  0.73584166499E+03  0.89995996409E+02 0.  0.
          3    1    3    3  502    0 -0.12946904638E+01  0.90008239433E+02  0.19763760799E+03  0.21717224381E+03  0.00000000000E+00 0. -1.
         -4    1    3    3    0  502 -0.98597286259E+02  0.21286533002E+03  0.74488124440E+03  0.78094887274E+03  0.00000000000E+00 0.  1.
         13    1    5    5    0    0  0.72636772507E+02 -0.71554559061E+02  0.47857169928E+02  0.11263420598E+03  0.00000000000E+00 0.  1.
        -13    1    5    5    0    0  0.39596741931E+03 -0.14826181485E+03  0.31935490324E+03  0.52986726368E+03  0.00000000000E+00 0. -1.
          4    1    6    6  503    0 -0.25360737463E+03 -0.98932319279E+02  0.44565576950E+03  0.52221965604E+03  0.00000000000E+00 0. -1.
         -4    1    6    6    0  503 -0.11510484047E+03  0.15875123731E+02  0.17925740949E+03  0.21362200895E+03  0.00000000000E+00 0.  1.
<mgrwt>
<rscale>  0 0.13801212E+04</rscale>
<asrwt>0</asrwt>
<pdfrwt beam="1">  1        1 0.33986167E-01 0.13801212E+04</pdfrwt>
<pdfrwt beam="2">  1       -2 0.33162371E+00 0.13801212E+04</pdfrwt>
<totfact> 0.22753378E+00</totfact>
</mgrwt>
</event>
<event>
12    5  0.5029243E-008  0.1130934E+04  0.7818608E-02  0.9175555E-01
         -2   -1    0    0    0  501 -0.00000000000E+00  0.00000000000E+00  0.46170475461E+03  0.46170475461E+03  0.00000000000E+00 0.  1.
          1   -1    0    0  501    0  0.00000000000E+00 -0.00000000000E+00 -0.69254875937E+03  0.69254875937E+03  0.00000000000E+00 0. -1.
        -24    2    1    2    0    0  0.14565332095E+03  0.37366035898E+02  0.88802182685E+02  0.19195315102E+03  0.79681076766E+02 0.  0.
        254    2    1    2    0    0 -0.14565332095E+03 -0.37366035898E+02 -0.31964618744E+03  0.96230036295E+03  0.89511853564E+03 0.  0.
         23    2    4    4    0    0 -0.39173887935E+03  0.23586662048E+03  0.15326937059E+01  0.46549351952E+03  0.87117479951E+02 0.  0.
         23    2    4    4    0    0  0.24608555840E+03 -0.27323265638E+03 -0.32117888115E+03  0.49680684343E+03  0.91907450286E+02 0.  0.
          1    1    3    3  502    0  0.28337204717E+02  0.18849286846E+02 -0.12088798552E+02  0.36116918974E+02  0.00000000000E+00 0. -1.
         -2    1    3    3    0  502  0.11731611624E+03  0.18516749052E+02  0.10089098124E+03  0.15583623205E+03  0.00000000000E+00 0.  1.
         13    1    5    5    0    0 -0.17616796712E+01  0.58792947283E+01  0.11061412442E+02  0.12650077746E+02  0.00000000000E+00 0.  1.
        -13    1    5    5    0    0 -0.38997719968E+03  0.22998732575E+03 -0.95287187363E+01  0.45284344177E+03  0.00000000000E+00 0. -1.
          1    1    6    6  503    0  0.19274966061E+03 -0.16734831229E+03 -0.25598508895E+03  0.36150553946E+03  0.00000000000E+00 0. -1.
         -1    1    6    6    0  503  0.53335897783E+02 -0.10588434408E+03 -0.65193792196E+02  0.13530130397E+03  0.00000000000E+00 0.  1.
<mgrwt>
<rscale>  0 0.11309342E+04</rscale>
<asrwt>0</asrwt>
<pdfrwt beam="1">  1        1 0.10654596E+00 0.11309342E+04</pdfrwt>
<pdfrwt beam="2">  1       -2 0.71031501E-01 0.11309342E+04</pdfrwt>
<totfact> 0.43429537E+01</totfact>
</mgrwt>
</event>
<event>
12    5  0.5029243E-008  0.3826089E+04  0.7818608E-02  0.8040579E-01
          1   -1    0    0  501    0  0.00000000000E+00  0.00000000000E+00  0.26253143768E+04  0.26253143768E+04  0.00000000000E+00 0. -1.
         -2   -1    0    0    0  501 -0.00000000000E+00 -0.00000000000E+00 -0.13940197471E+04  0.13940197471E+04  0.00000000000E+00 0.  1.
        -24    2    1    2    0    0  0.16382963417E+04  0.39675861816E+03  0.12874586901E+04  0.21223103211E+04  0.72242066243E+02 0.  0.
        254    2    1    2    0    0 -0.16382963417E+04 -0.39675861816E+03 -0.56164060370E+02  0.18970238029E+04  0.86839656998E+03 0.  0.
         23    2    4    4    0    0 -0.25665582552E+03 -0.40702536346E+03 -0.14492486277E+03  0.50933335329E+03  0.82917969453E+02 0.  0.
         23    2    4    4    0    0 -0.13816405161E+04  0.10266745293E+02  0.88760802395E+02  0.13876904496E+04  0.93650317021E+02 0.  0.
          3    1    3    3  502    0  0.66271957945E+03  0.19101961487E+03  0.50193973139E+03  0.85301185702E+03  0.00000000000E+00 0. -1.
         -4    1    3    3    0  502  0.97557676220E+03  0.20573900329E+03  0.78551895868E+03  0.12692984641E+04  0.00000000000E+00 0.  1.
         13    1    5    5    0    0 -0.33726886728E+02 -0.43422443644E+02  0.93791602952E+01  0.55776161111E+02  0.00000000000E+00 0. -1.
        -13    1    5    5    0    0 -0.22292893879E+03 -0.36360291981E+03 -0.15430402306E+03  0.45355719218E+03  0.00000000000E+00 0.  1.
          3    1    6    6  503    0 -0.33813032720E+03  0.19892413092E+02 -0.14600713775E+02  0.33902950774E+03  0.00000000000E+00 0. -1.
         -3    1    6    6    0  503 -0.10435101889E+04 -0.96256677991E+01  0.10336151617E+03  0.10486609418E+04  0.00000000000E+00 0.  1.
<mgrwt>
<rscale>  0 0.38260894E+04</rscale>
<asrwt>0</asrwt>
<pdfrwt beam="1">  1        1 0.40389452E+00 0.38260894E+04</pdfrwt>
<pdfrwt beam="2">  1       -2 0.21446458E+00 0.38260894E+04</pdfrwt>
<totfact> 0.82953078E-02</totfact>
</mgrwt>
</event>
<event>
12    5  0.5029243E-008  0.1580949E+04  0.7818608E-02  0.8832338E-01
         -2   -1    0    0    0  501 -0.00000000000E+00  0.00000000000E+00  0.18856889103E+04  0.18856889103E+04  0.00000000000E+00 0.  1.
          1   -1    0    0  501    0  0.00000000000E+00 -0.00000000000E+00 -0.33136408791E+03  0.33136408791E+03  0.00000000000E+00 0. -1.
        -24    2    1    2    0    0 -0.90936222434E+02  0.42310503316E+03  0.93613955782E+03  0.10330131138E+04  0.58919911177E+02 0.  0.
        254    2    1    2    0    0  0.90936222434E+02 -0.42310503316E+03  0.61818526456E+03  0.11840398844E+04  0.91241994766E+03 0.  0.
         23    2    4    4    0    0 -0.22593130052E+03 -0.41524967862E+03 -0.64643945876E+00  0.48304317904E+03  0.99262514544E+02 0.  0.
         23    2    4    4    0    0  0.31686752295E+03 -0.78553545470E+01  0.61883170402E+03  0.70099670536E+03  0.89313880935E+02 0.  0.
          1    1    3    3  502    0  0.36446420948E+01  0.70327364299E+02  0.17996295532E+03  0.19325083925E+03  0.00000000000E+00 0. -1.
         -2    1    3    3    0  502 -0.94580864529E+02  0.35277766886E+03  0.75617660250E+03  0.83976227455E+03  0.00000000000E+00 0.  1.
         13    1    5    5    0    0 -0.13677156445E+03 -0.28294677256E+03 -0.44941620406E+02  0.31746666942E+03  0.00000000000E+00 0. -1.
        -13    1    5    5    0    0 -0.89159736062E+02 -0.13230290605E+03  0.44295180947E+02  0.16557650963E+03  0.00000000000E+00 0.  1.
          4    1    6    6  503    0  0.11735659047E+03 -0.45689946912E+02  0.25165529089E+03  0.28140811290E+03  0.00000000000E+00 0. -1.
         -4    1    6    6    0  503  0.19951093248E+03  0.37834592365E+02  0.36717641313E+03  0.41958859246E+03  0.00000000000E+00 0.  1.
<mgrwt>
<rscale>  0 0.15809486E+04</rscale>
<asrwt>0</asrwt>
<pdfrwt beam="1">  1        1 0.50979092E-01 0.15809486E+04</pdfrwt>
<pdfrwt beam="2">  1       -2 0.29010598E+00 0.15809486E+04</pdfrwt>
<totfact> 0.23669408E+00</totfact>
</mgrwt>
</event>
<event>
12    5  0.5029243E-008  0.1503673E+04  0.7818608E-02  0.8882014E-01
         -2   -1    0    0    0  501 -0.00000000000E+00  0.00000000000E+00  0.13251678120E+04  0.13251678120E+04  0.00000000000E+00 0.  1.
          1   -1    0    0  501    0  0.00000000000E+00 -0.00000000000E+00 -0.42655590112E+03  0.42655590112E+03  0.00000000000E+00 0. -1.
        -24    2    1    2    0    0  0.40959533294E+03  0.12570660320E+03  0.45118747870E+02  0.43854302554E+03  0.81937762925E+02 0.  0.
        254    2    1    2    0    0 -0.40959533294E+03 -0.12570660320E+03  0.85349316304E+03  0.13131806876E+04  0.90134480201E+03 0.  0.
         23    2    4    4    0    0 -0.33899911480E+03 -0.46295810215E+03  0.30058205050E+03  0.65527132241E+03  0.98895564611E+02 0.  0.
         23    2    4    4    0    0 -0.70596218135E+02  0.33725149895E+03  0.55291111253E+03  0.65790936520E+03  0.91714965493E+02 0.  0.
          1    1    3    3  502    0  0.35491482502E+03  0.12532806156E+03  0.61669014229E+02  0.38141148823E+03  0.00000000000E+00 0. -1.
         -2    1    3    3    0  502  0.54680507913E+02  0.37854163154E+00 -0.16550266359E+02  0.57131537315E+02  0.00000000000E+00 0.  1.
         13    1    5    5    0    0 -0.23626258577E+03 -0.24080447518E+03  0.16679723709E+03  0.37633512061E+03  0.00000000000E+00 0. -1.
        -13    1    5    5    0    0 -0.10273652903E+03 -0.22215362697E+03  0.13378481342E+03  0.27893620180E+03  0.00000000000E+00 0.  1.
          2    1    6    6  503    0 -0.90256635569E+02  0.24839244994E+03  0.43455317004E+03  0.50860743904E+03  0.00000000000E+00 0.  1.
         -2    1    6    6    0  503  0.19660417434E+02  0.88859049014E+02  0.11835794249E+03  0.14930192616E+03  0.00000000000E+00 0. -1.
<mgrwt>
<rscale>  0 0.15036730E+04</rscale>
<asrwt>0</asrwt>
<pdfrwt beam="1">  1        1 0.65623985E-01 0.15036730E+04</pdfrwt>
<pdfrwt beam="2">  1       -2 0.20387197E+00 0.15036730E+04</pdfrwt>
<totfact> 0.58331737E+00</totfact>
</mgrwt>
</event>
<event>
12    5  0.5029243E-008  0.1475773E+04  0.7818608E-02  0.8900726E-01
         -2   -1    0    0    0  501 -0.00000000000E+00  0.00000000000E+00  0.19405746880E+03  0.19405746880E+03  0.00000000000E+00 0.  1.
          1   -1    0    0  501    0  0.00000000000E+00 -0.00000000000E+00 -0.28057470740E+04  0.28057470740E+04  0.00000000000E+00 0. -1.
        -24    2    1    2    0    0  0.78384030061E+02  0.12522423529E+03  0.60751709819E+02  0.17889059816E+03  0.80535151283E+02 0.  0.
        254    2    1    2    0    0 -0.78384030061E+02 -0.12522423529E+03 -0.26724413150E+04  0.28209139446E+04  0.89094766151E+03 0.  0.
         23    2    4    4    0    0 -0.46507716735E+03 -0.14366487118E+03 -0.12731075422E+04  0.13660518617E+04  0.91424876295E+02 0.  0.
         23    2    4    4    0    0  0.38669313729E+03  0.18440635889E+02 -0.13993337728E+04  0.14548620830E+04  0.92827976294E+02 0.  0.
          3    1    3    3  502    0  0.10633563889E+02 -0.97456120706E+01 -0.33851832575E+01  0.14815839541E+02  0.00000000000E+00 0. -1.
         -4    1    3    3    0  502  0.67750466172E+02  0.13496984736E+03  0.64136893076E+02  0.16407475862E+03  0.00000000000E+00 0.  1.
         13    1    5    5    0    0 -0.10814754806E+03 -0.29750929679E+02 -0.19844498250E+03  0.22795047938E+03  0.00000000000E+00 0. -1.
        -13    1    5    5    0    0 -0.35692961929E+03 -0.11391394150E+03 -0.10746625597E+04  0.11381013823E+04  0.00000000000E+00 0.  1.
          4    1    6    6  503    0  0.33319623868E+02 -0.17392002281E+02 -0.22053460978E+03  0.22371453505E+03  0.00000000000E+00 0. -1.
         -4    1    6    6    0  503  0.35337351342E+03  0.35832638170E+02 -0.11787991630E+04  0.12311475479E+04  0.00000000000E+00 0.  1.
<mgrwt>
<rscale>  0 0.14757726E+04</rscale>
<asrwt>0</asrwt>
<pdfrwt beam="1">  1        1 0.43165339E+00 0.14757726E+04</pdfrwt>
<pdfrwt beam="2">  1       -2 0.29854996E-01 0.14757726E+04</pdfrwt>
<totfact> 0.73066222E+00</totfact>
</mgrwt>
</event>
<event>
12    5  0.5029243E-008  0.3224824E+04  0.7818608E-02  0.8182292E-01
          1   -1    0    0  501    0  0.00000000000E+00  0.00000000000E+00  0.17862509180E+04  0.17862509180E+04  0.00000000000E+00 0. -1.
         -2   -1    0    0    0  501 -0.00000000000E+00 -0.00000000000E+00 -0.14554908445E+04  0.14554908445E+04  0.00000000000E+00 0.  1.
        -24    2    1    2    0    0 -0.37248832114E+03  0.11798971068E+04 -0.67227920972E+03  0.14110599170E+04  0.90697417940E+02 0.  0.
        254    2    1    2    0    0  0.37248832114E+03 -0.11798971068E+04  0.10030392832E+04  0.18306818454E+04  0.90244306397E+03 0.  0.
         23    2    4    4    0    0  0.26072739417E+03 -0.94160511743E+03  0.11531406154E+04  0.15140803981E+04  0.90040001161E+02 0.  0.
         23    2    4    4    0    0  0.11176092698E+03 -0.23829198933E+03 -0.15010133226E+03  0.31660144731E+03  0.91828587659E+02 0.  0.
          3    1    3    3  502    0 -0.23428864744E+02  0.11552553813E+03 -0.38278627773E+02  0.12393673792E+03  0.00000000000E+00 0. -1.
         -4    1    3    3    0  502 -0.34905945640E+03  0.10643715686E+04 -0.63400058195E+03  0.12871231791E+04  0.00000000000E+00 0.  1.
         13    1    5    5    0    0  0.68265477034E+02 -0.36661563505E+03  0.39376737979E+03  0.54232826647E+03  0.00000000000E+00 0.  1.
        -13    1    5    5    0    0  0.19246191713E+03 -0.57498948238E+03  0.75937323565E+03  0.97175213168E+03  0.00000000000E+00 0. -1.
          1    1    6    6  503    0  0.34979416384E+02 -0.15626461444E+03 -0.12051645375E+03  0.20041558054E+03  0.00000000000E+00 0. -1.
         -1    1    6    6    0  503  0.76781510592E+02 -0.82027374891E+02 -0.29584878505E+02  0.11618586677E+03  0.00000000000E+00 0.  1.
<mgrwt>
<rscale>  0 0.32248236E+04</rscale>
<asrwt>0</asrwt>
<pdfrwt beam="1">  1        1 0.27480783E+00 0.32248236E+04</pdfrwt>
<pdfrwt beam="2">  1       -2 0.22392167E+00 0.32248236E+04</pdfrwt>
<totfact> 0.28514218E-01</totfact>
</mgrwt>
</event>
<event>
12    5  0.5029243E-008  0.1977132E+04  0.7818608E-02  0.8617387E-01
         -2   -1    0    0    0  501 -0.00000000000E+00  0.00000000000E+00  0.35131281595E+03  0.35131281595E+03  0.00000000000E+00 0.  1.
          1   -1    0    0  501    0  0.00000000000E+00 -0.00000000000E+00 -0.27817461704E+04  0.27817461704E+04  0.00000000000E+00 0. -1.
        -24    2    1    2    0    0 -0.72501754105E+02 -0.72780125182E+03 -0.13011737662E+04  0.14947933381E+04  0.80017417995E+02 0.  0.
        254    2    1    2    0    0  0.72501754105E+02  0.72780125182E+03 -0.11292595882E+04  0.16382656482E+04  0.93473843943E+03 0.  0.
         23    2    4    4    0    0  0.12851227218E+03 -0.19208176792E+03 -0.33926395138E+03  0.42108552497E+03  0.93819939061E+02 0.  0.
         23    2    4    4    0    0 -0.56010518073E+02  0.91988301974E+03 -0.78999563681E+03  0.12171801233E+04  0.90068852285E+02 0.  0.
          1    1    3    3  502    0 -0.14230092386E+02 -0.17705976652E+03 -0.38941973887E+03  0.42801914615E+03  0.00000000000E+00 0. -1.
         -2    1    3    3    0  502 -0.58271661719E+02 -0.55074148530E+03 -0.91175402738E+03  0.10667741920E+04  0.00000000000E+00 0.  1.
         13    1    5    5    0    0  0.12682208864E+03 -0.15960492771E+03 -0.23122100976E+03  0.30825432758E+03  0.00000000000E+00 0.  1.
        -13    1    5    5    0    0  0.16901835372E+01 -0.32476840208E+02 -0.10804294163E+03  0.11283119740E+03  0.00000000000E+00 0. -1.
          2    1    6    6  503    0  0.24071689374E+02  0.16259426711E+03 -0.13347169680E+03  0.21173340732E+03  0.00000000000E+00 0. -1.
         -2    1    6    6    0  503 -0.80082207447E+02  0.75728875262E+03 -0.65652394000E+03  0.10054467159E+04  0.00000000000E+00 0.  1.
<mgrwt>
<rscale>  0 0.19771323E+04</rscale>
<asrwt>0</asrwt>
<pdfrwt beam="1">  1        1 0.42796094E+00 0.19771323E+04</pdfrwt>
<pdfrwt beam="2">  1       -2 0.54048126E-01 0.19771323E+04</pdfrwt>
<totfact> 0.22634190E+00</totfact>
</mgrwt>
</event>
<event>
12    5  0.5029243E-008  0.2319667E+04  0.7818608E-02  0.8470207E-01
         -2   -1    0    0    0  501 -0.00000000000E+00  0.00000000000E+00  0.11718324539E+04  0.11718324539E+04  0.00000000000E+00 0.  1.
          1   -1    0    0  501    0  0.00000000000E+00 -0.00000000000E+00 -0.11479571883E+04  0.11479571883E+04  0.00000000000E+00 0. -1.
        -24    2    1    2    0    0 -0.60384325216E+03  0.22673970021E+03  0.72954882428E+03  0.97702532849E+03  0.79369015793E+02 0.  0.
        254    2    1    2    0    0  0.60384325216E+03 -0.22673970021E+03 -0.70567355871E+03  0.13427643138E+04  0.94286969727E+03 0.  0.
         23    2    4    4    0    0  0.15681647955E+03 -0.23419769780E+03 -0.82047422769E+03  0.87226403463E+03  0.90700705035E+02 0.  0.
         23    2    4    4    0    0  0.44702677260E+03  0.74579975914E+01  0.11480066897E+03  0.47050027914E+03  0.91119492527E+02 0.  0.
          1    1    3    3  502    0 -0.26564689942E+02  0.29123753707E+02  0.51527343872E+02  0.64876366638E+02  0.00000000000E+00 0. -1.
         -2    1    3    3    0  502 -0.57727856221E+03  0.19761594650E+03  0.67802148041E+03  0.91214896185E+03  0.00000000000E+00 0.  1.
         13    1    5    5    0    0  0.13594389831E+03 -0.21691826750E+03 -0.79451709481E+03  0.83474049393E+03  0.00000000000E+00 0.  1.
        -13    1    5    5    0    0  0.20872581245E+02 -0.17279430299E+02 -0.25957132877E+02  0.37523540698E+02  0.00000000000E+00 0. -1.
          4    1    6    6  503    0  0.12850633575E+03  0.12328776061E+02  0.75432985571E+02  0.14951927086E+03  0.00000000000E+00 0. -1.
         -4    1    6    6    0  503  0.31852043685E+03 -0.48707784693E+01  0.39367683401E+02  0.32098100827E+03  0.00000000000E+00 0.  1.
<mgrwt>
<rscale>  0 0.23196668E+04</rscale>
<asrwt>0</asrwt>
<pdfrwt beam="1">  1        1 0.17660880E+00 0.23196668E+04</pdfrwt>
<pdfrwt beam="2">  1       -2 0.18028192E+00 0.23196668E+04</pdfrwt>
<totfact> 0.16678879E+00</totfact>
</mgrwt>
</event>
<event>
12    5  0.5029243E-008  0.1633620E+04  0.7818608E-02  0.8800156E-01
         -2   -1    0    0    0  501 -0.00000000000E+00  0.00000000000E+00  0.13376684746E+04  0.13376684746E+04  0.00000000000E+00 0.  1.
          1   -1    0    0  501    0  0.00000000000E+00 -0.00000000000E+00 -0.49876239561E+03  0.49876239561E+03  0.00000000000E+00 0. -1.
        -24    2    1    2    0    0  0.18212558872E+03 -0.25930944317E+03 -0.23561300925E+03  0.40261939940E+03  0.78598812098E+02 0.  0.
        254    2    1    2    0    0 -0.18212558872E+03  0.25930944317E+03  0.10745190882E+04  0.14338114708E+04  0.89488152593E+03 0.  0.
         23    2    4    4    0    0  0.29256384002E+03  0.34046126047E+03  0.48315491298E+03  0.66562588776E+03  0.90064877470E+02 0.  0.
         23    2    4    4    0    0 -0.47468942874E+03 -0.81151817301E+02  0.59136417523E+03  0.76818558303E+03  0.92096856711E+02 0.  0.
          3    1    3    3  502    0  0.14902830452E+03 -0.14677646261E+03 -0.15236903956E+03  0.25878386685E+03  0.00000000000E+00 0. -1.
         -4    1    3    3    0  502  0.33097284199E+02 -0.11253298056E+03 -0.83243969686E+02  0.14383553255E+03  0.00000000000E+00 0.  1.
         13    1    5    5    0    0  0.83851898440E+02  0.43997330725E+02  0.86771722861E+02  0.12843768089E+03  0.00000000000E+00 0. -1.
        -13    1    5    5    0    0  0.20871194158E+03  0.29646392975E+03  0.39638319012E+03  0.53718820688E+03  0.00000000000E+00 0.  1.
          3    1    6    6  503    0 -0.53331231918E+01  0.86528517271E+01  0.38575476462E+01  0.10871739504E+02  0.00000000000E+00 0. -1.
         -3    1    6    6    0  503 -0.46935630555E+03 -0.89804669028E+02  0.58750662759E+03  0.75731384353E+03  0.00000000000E+00 0.  1.
<mgrwt>
<rscale>  0 0.16336202E+04</rscale>
<asrwt>0</asrwt>
<pdfrwt beam="1">  1        1 0.76732677E-01 0.16336202E+04</pdfrwt>
<pdfrwt beam="2">  1       -2 0.20579515E+00 0.16336202E+04</pdfrwt>
<totfact> 0.45342385E+00</totfact>
</mgrwt>
</event>
<event>
12    5  0.5029243E-008  0.1526762E+04  0.7818608E-02  0.8866849E-01
         -2   -1    0    0    0  501 -0.00000000000E+00  0.00000000000E+00  0.25922415395E+03  0.25922415395E+03  0.00000000000E+00 0.  1.
          1   -1    0    0  501    0  0.00000000000E+00 -0.00000000000E+00 -0.22480562354E+04  0.22480562354E+04  0.00000000000E+00 0. -1.
        -24    2    1    2    0    0  0.24821072361E+03 -0.27226325115E+03 -0.23714172529E+03  0.44472519488E+03  0.76213252403E+02 0.  0.
        254    2    1    2    0    0 -0.24821072361E+03  0.27226325115E+03 -0.17516903562E+04  0.20625551945E+04  0.10246848223E+04 0.  0.
         23    2    4    4    0    0 -0.57260775662E+03  0.10385478221E+03 -0.55499975993E+03  0.80804140740E+03  0.78998251980E+02 0.  0.
         23    2    4    4    0    0  0.32439703301E+03  0.16840846894E+03 -0.11966905962E+04  0.12545137871E+04  0.90230878438E+02 0.  0.
          1    1    3    3  502    0  0.11547326023E+03 -0.81297467243E+02 -0.65459877257E+02  0.15565457763E+03  0.00000000000E+00 0. -1.
         -2    1    3    3    0  502  0.13273746338E+03 -0.19096578391E+03 -0.17168184803E+03  0.28907061724E+03  0.00000000000E+00 0.  1.
         13    1    5    5    0    0 -0.56388911639E+03  0.10022755411E+03 -0.52628055263E+03  0.77780956426E+03  0.00000000000E+00 0. -1.
        -13    1    5    5    0    0 -0.87186402331E+01  0.36272281066E+01 -0.28719207307E+02  0.30231843139E+02  0.00000000000E+00 0.  1.
          1    1    6    6  503    0  0.32258613116E+03  0.17503254522E+03 -0.11453407876E+04  0.12027068319E+04  0.00000000000E+00 0. -1.
         -1    1    6    6    0  503  0.18109018533E+01 -0.66240762802E+01 -0.51349808661E+02  0.51806955147E+02  0.00000000000E+00 0.  1.
<mgrwt>
<rscale>  0 0.15267619E+04</rscale>
<asrwt>0</asrwt>
<pdfrwt beam="1">  1        1 0.34585482E+00 0.15267619E+04</pdfrwt>
<pdfrwt beam="2">  1       -2 0.39880638E-01 0.15267619E+04</pdfrwt>
<totfact> 0.10197732E+01</totfact>
</mgrwt>
</event>
<event>
12    5  0.5029243E-008  0.1454878E+04  0.7818608E-02  0.8915026E-01
          1   -1    0    0  501    0  0.00000000000E+00  0.00000000000E+00  0.86533922710E+03  0.86533922710E+03  0.00000000000E+00 0. -1.
         -2   -1    0    0    0  501 -0.00000000000E+00 -0.00000000000E+00 -0.61151447910E+03  0.61151447910E+03  0.00000000000E+00 0.  1.
        -24    2    1    2    0    0 -0.54168390134E+02 -0.22603412791E+03 -0.30950646958E+03  0.39568885134E+03  0.82156989281E+02 0.  0.
        254    2    1    2    0    0  0.54168390134E+02  0.22603412791E+03  0.56333121759E+03  0.10811648549E+04  0.89305640427E+03 0.  0.
         23    2    4    4    0    0  0.12321807083E+03  0.36629024933E+03 -0.87053223996E+02  0.40608582242E+03  0.89309527096E+02 0.  0.
         23    2    4    4    0    0 -0.69049680692E+02 -0.14025612142E+03  0.65038444158E+03  0.67507903244E+03  0.91061189257E+02 0.  0.
          1    1    3    3  502    0 -0.31210435275E+02 -0.27190821655E+02 -0.26862280403E+02  0.49345862650E+02  0.00000000000E+00 0. -1.
         -2    1    3    3    0  502 -0.22957954860E+02 -0.19884330626E+03 -0.28264418918E+03  0.34634298869E+03  0.00000000000E+00 0.  1.
         13    1    5    5    0    0  0.73468900569E+02  0.32121120181E+03 -0.71624938081E+02  0.33720090046E+03  0.00000000000E+00 0. -1.
        -13    1    5    5    0    0  0.49749170257E+02  0.45079047521E+02 -0.15428285915E+02  0.68884921957E+02  0.00000000000E+00 0.  1.
          3    1    6    6  503    0 -0.41666958233E+02 -0.14424560219E+03  0.58737657348E+03  0.60626245821E+03  0.00000000000E+00 0. -1.
         -3    1    6    6    0  503 -0.27382722458E+02  0.39894807753E+01  0.63007868103E+02  0.68816574232E+02  0.00000000000E+00 0.  1.
<mgrwt>
<rscale>  0 0.14548780E+04</rscale>
<asrwt>0</asrwt>
<pdfrwt beam="1">  1        1 0.13312911E+00 0.14548780E+04</pdfrwt>
<pdfrwt beam="2">  1       -2 0.94079151E-01 0.14548780E+04</pdfrwt>
<totfact> 0.15770781E+01</totfact>
</mgrwt>
</event>
<event>
12    5  0.5029243E-008  0.1717864E+04  0.7818608E-02  0.8751241E-01
          1   -1    0    0  501    0  0.00000000000E+00  0.00000000000E+00  0.89604651888E+03  0.89604651888E+03  0.00000000000E+00 0. -1.
         -2   -1    0    0    0  501 -0.00000000000E+00 -0.00000000000E+00 -0.82335448265E+03  0.82335448265E+03  0.00000000000E+00 0.  1.
        -24    2    1    2    0    0 -0.29614348839E+03 -0.52696938294E+03  0.16561141514E+03  0.63176992961E+03  0.79425479928E+02 0.  0.
        254    2    1    2    0    0  0.29614348839E+03  0.52696938294E+03 -0.92919378916E+02  0.10876310719E+04  0.89939404120E+03 0.  0.
         23    2    4    4    0    0  0.22155350106E+03 -0.21991352164E+02  0.31320769281E+03  0.39480073612E+03  0.90548268892E+02 0.  0.
         23    2    4    4    0    0  0.74589987333E+02  0.54896073510E+03 -0.40612707173E+03  0.69283033580E+03  0.90294633934E+02 0.  0.
          1    1    3    3  502    0 -0.39934059570E+02 -0.13869961864E+03  0.33116056358E+02  0.14808438984E+03  0.00000000000E+00 0. -1.
         -2    1    3    3    0  502 -0.25620942882E+03 -0.38826976429E+03  0.13249535879E+03  0.48368553977E+03  0.00000000000E+00 0.  1.
         13    1    5    5    0    0  0.22224872256E+03 -0.12052651228E+02  0.26734990772E+03  0.34787315827E+03  0.00000000000E+00 0.  1.
        -13    1    5    5    0    0 -0.69522150864E+00 -0.99387009366E+01  0.45857785092E+02  0.46927577850E+02  0.00000000000E+00 0. -1.
          1    1    6    6  503    0  0.93742955157E+01  0.13904678635E+01 -0.37442421856E+01  0.10189708869E+02  0.00000000000E+00 0. -1.
         -1    1    6    6    0  503  0.65215691818E+02  0.54757026724E+03 -0.40238282955E+03  0.68264062693E+03  0.00000000000E+00 0.  1.
<mgrwt>
<rscale>  0 0.17178637E+04</rscale>
<asrwt>0</asrwt>
<pdfrwt beam="1">  1        1 0.13785331E+00 0.17178637E+04</pdfrwt>
<pdfrwt beam="2">  1       -2 0.12666992E+00 0.17178637E+04</pdfrwt>
<totfact> 0.70783033E+00</totfact>
</mgrwt>
</event>
<event>
12    5  0.5029243E-008  0.2163003E+04  0.7818608E-02  0.8533987E-01
          1   -1    0    0  501    0  0.00000000000E+00  0.00000000000E+00  0.17544078818E+04  0.17544078818E+04  0.00000000000E+00 0. -1.
         -2   -1    0    0    0  501 -0.00000000000E+00 -0.00000000000E+00 -0.66668934070E+03  0.66668934070E+03  0.00000000000E+00 0.  1.
        -24    2    1    2    0    0 -0.12704184371E+03 -0.40527733206E+03  0.13364845655E+04  0.14046442491E+04  0.80281548225E+02 0.  0.
        254    2    1    2    0    0  0.12704184371E+03  0.40527733206E+03 -0.24876602441E+03  0.10164529733E+04  0.88932714235E+03 0.  0.
         23    2    4    4    0    0 -0.43825970771E+02 -0.85014663096E+02 -0.43721536601E+03  0.45671138027E+03  0.90993405981E+02 0.  0.
         23    2    4    4    0    0  0.17086781448E+03  0.49029199516E+03  0.18844934160E+03  0.55974159305E+03  0.90639098074E+02 0.  0.
          3    1    3    3  502    0 -0.73821094470E+02 -0.33755640452E+03  0.10977874219E+04  0.11508827498E+04  0.00000000000E+00 0. -1.
         -4    1    3    3    0  502 -0.53220749243E+02 -0.67720927544E+02  0.23869714360E+03  0.25376149933E+03  0.00000000000E+00 0.  1.
         13    1    5    5    0    0  0.16674221501E+02 -0.50202060709E+01 -0.15760402744E+02  0.23486643573E+02  0.00000000000E+00 0.  1.
        -13    1    5    5    0    0 -0.60500192272E+02 -0.79994457025E+02 -0.42145496327E+03  0.43322473669E+03  0.00000000000E+00 0. -1.
          1    1    6    6  503    0  0.14931647588E+03  0.34391384614E+03  0.10273343455E+03  0.38874966510E+03  0.00000000000E+00 0. -1.
         -1    1    6    6    0  503  0.21551338607E+02  0.14637814901E+03  0.85715907050E+02  0.17099192795E+03  0.00000000000E+00 0.  1.
<mgrwt>
<rscale>  0 0.21630026E+04</rscale>
<asrwt>0</asrwt>
<pdfrwt beam="1">  1        1 0.26990890E+00 0.21630026E+04</pdfrwt>
<pdfrwt beam="2">  1       -2 0.10256759E+00 0.21630026E+04</pdfrwt>
<totfact> 0.27328865E+00</totfact>
</mgrwt>
</event>
<event>
12    5  0.5029243E-008  0.1738040E+04  0.7818608E-02  0.8739961E-01
         -2   -1    0    0    0  501 -0.00000000000E+00  0.00000000000E+00  0.51024286761E+03  0.51024286761E+03  0.00000000000E+00 0.  1.
          1   -1    0    0  501    0  0.00000000000E+00 -0.00000000000E+00 -0.14800717736E+04  0.14800717736E+04  0.00000000000E+00 0. -1.
        -24    2    1    2    0    0  0.98415194872E+01  0.12545663289E+03 -0.11078638829E+04  0.11182599317E+04  0.85479059209E+02 0.  0.
        254    2    1    2    0    0 -0.98415194872E+01 -0.12545663289E+03  0.13803497693E+03  0.87205470949E+03  0.85181543731E+03 0.  0.
         23    2    4    4    0    0 -0.21353057164E+02 -0.16094259772E+03 -0.33732135523E+03  0.38704111672E+03  0.98268288523E+02 0.  0.
         23    2    4    4    0    0  0.11511537677E+02  0.35485964825E+02  0.47535633216E+03  0.48501359276E+03  0.88784984306E+02 0.  0.
          3    1    3    3  502    0  0.47777497563E+02  0.72410220218E+02 -0.60686837779E+03  0.61303764748E+03  0.00000000000E+00 0. -1.
         -4    1    3    3    0  502 -0.37935978076E+02  0.53046412672E+02 -0.50099550515E+03  0.50522228426E+03  0.00000000000E+00 0.  1.
         13    1    5    5    0    0  0.18410864908E+02  0.49482604140E+01 -0.29899402436E+02  0.35460111306E+02  0.00000000000E+00 0. -1.
        -13    1    5    5    0    0 -0.39763922072E+02 -0.16589085813E+03 -0.30742195280E+03  0.35158100542E+03  0.00000000000E+00 0.  1.
          4    1    6    6  503    0  0.44348749867E+02  0.14471723488E+02  0.14390884825E+03  0.15128119183E+03  0.00000000000E+00 0. -1.
         -4    1    6    6    0  503 -0.32837212190E+02  0.21014241337E+02  0.33144748391E+03  0.33373240094E+03  0.00000000000E+00 0.  1.
<mgrwt>
<rscale>  0 0.17380404E+04</rscale>
<asrwt>0</asrwt>
<pdfrwt beam="1">  1        1 0.22770334E+00 0.17380404E+04</pdfrwt>
<pdfrwt beam="2">  1       -2 0.78498905E-01 0.17380404E+04</pdfrwt>
<totfact> 0.81084716E+00</totfact>
</mgrwt>
</event>
<event>
12    5  0.5029243E-008  0.1853835E+04  0.7818608E-02  0.8678183E-01
          1   -1    0    0  501    0  0.00000000000E+00  0.00000000000E+00  0.22151082571E+04  0.22151082571E+04  0.00000000000E+00 0. -1.
         -2   -1    0    0    0  501 -0.00000000000E+00 -0.00000000000E+00 -0.38787082920E+03  0.38787082920E+03  0.00000000000E+00 0.  1.
        -24    2    1    2    0    0  0.28668239356E+03 -0.57820733898E+03  0.10568520808E+04  0.12411475998E+04  0.83669122503E+02 0.  0.
        254    2    1    2    0    0 -0.28668239356E+03  0.57820733898E+03  0.77038534709E+03  0.13618314865E+04  0.91901082316E+03 0.  0.
         23    2    4    4    0    0 -0.11529707036E+03 -0.16167113537E+03 -0.65831479676E+02  0.22845451785E+03  0.91797127212E+02 0.  0.
         23    2    4    4    0    0 -0.17138532320E+03  0.73987847435E+03  0.83621682676E+03  0.11333769687E+04  0.92150344424E+02 0.  0.
          3    1    3    3  502    0  0.92854888824E+02 -0.21239672670E+03  0.30805238989E+03  0.38552649041E+03  0.00000000000E+00 0. -1.
         -4    1    3    3    0  502  0.19382750473E+03 -0.36581061228E+03  0.74879969092E+03  0.85562110935E+03  0.00000000000E+00 0.  1.
         13    1    5    5    0    0 -0.43124313366E+02 -0.13428595321E+03 -0.50098517105E+02  0.14967392909E+03  0.00000000000E+00 0.  1.
        -13    1    5    5    0    0 -0.72172756997E+02 -0.27385182158E+02 -0.15732962570E+02  0.78780588761E+02  0.00000000000E+00 0. -1.
          4    1    6    6  503    0  0.42997479874E+01  0.14987409732E+02  0.45617442856E+01  0.16245608458E+02  0.00000000000E+00 0. -1.
         -4    1    6    6    0  503 -0.17568507118E+03  0.72489106461E+03  0.83165508248E+03  0.11171313602E+04  0.00000000000E+00 0.  1.
<mgrwt>
<rscale>  0 0.18538348E+04</rscale>
<asrwt>0</asrwt>
<pdfrwt beam="1">  1        1 0.34078588E+00 0.18538348E+04</pdfrwt>
<pdfrwt beam="2">  1       -2 0.59672436E-01 0.18538348E+04</pdfrwt>
<totfact> 0.45995281E+00</totfact>
</mgrwt>
</event>
<event>
12    5  0.5029243E-008  0.1495260E+04  0.7818608E-02  0.8887611E-01
          1   -1    0    0  501    0  0.00000000000E+00  0.00000000000E+00  0.12254087616E+04  0.12254087616E+04  0.00000000000E+00 0. -1.
         -2   -1    0    0    0  501 -0.00000000000E+00 -0.00000000000E+00 -0.45613399708E+03  0.45613399708E+03  0.00000000000E+00 0.  1.
        -24    2    1    2    0    0 -0.15654055225E+03 -0.30258162289E+03 -0.11974539732E+03  0.36989778305E+03  0.80155016793E+02 0.  0.
        254    2    1    2    0    0  0.15654055225E+03  0.30258162289E+03  0.88902016183E+03  0.13116449756E+04  0.90221677599E+03 0.  0.
         23    2    4    4    0    0  0.20032006493E+03  0.30966783119E+03  0.10513393820E+04  0.11178993889E+04  0.91445357065E+02 0.  0.
         23    2    4    4    0    0 -0.43779512678E+02 -0.70862083011E+01 -0.16231922022E+03  0.19374558672E+03  0.96036258987E+02 0.  0.
          1    1    3    3  502    0 -0.23424620115E+02 -0.67264627765E+01 -0.16543325303E+02  0.29455725099E+02  0.00000000000E+00 0. -1.
         -2    1    3    3    0  502 -0.13311593213E+03 -0.29585516012E+03 -0.10320207202E+03  0.34044205795E+03  0.00000000000E+00 0.  1.
         13    1    5    5    0    0  0.13643623018E+02  0.42732276404E+02  0.22986474047E+03  0.23420075749E+03  0.00000000000E+00 0. -1.
        -13    1    5    5    0    0  0.18667644191E+03  0.26693555479E+03  0.82147464158E+03  0.88369863139E+03  0.00000000000E+00 0.  1.
          2    1    6    6  503    0 -0.35068719042E+02 -0.21515815792E+02 -0.17022648067E+03  0.17512795352E+03  0.00000000000E+00 0.  1.
         -2    1    6    6    0  503 -0.87107936358E+01  0.14429607491E+02  0.79072604436E+01  0.18617633196E+02  0.00000000000E+00 0. -1.
<mgrwt>
<rscale>  0 0.14952600E+04</rscale>
<asrwt>0</asrwt>
<pdfrwt beam="1">  1        1 0.18852442E+00 0.14952600E+04</pdfrwt>
<pdfrwt beam="2">  1       -2 0.70174461E-01 0.14952600E+04</pdfrwt>
<totfact> 0.16067560E+01</totfact>
</mgrwt>
</event>
<event>
12    5  0.5029243E-008  0.2654682E+04  0.7818608E-02  0.8349861E-01
         -2   -1    0    0    0  501 -0.00000000000E+00  0.00000000000E+00  0.56515851290E+03  0.56515851290E+03  0.00000000000E+00 0.  1.
          1   -1    0    0  501    0  0.00000000000E+00 -0.00000000000E+00 -0.31174148850E+04  0.31174148850E+04  0.00000000000E+00 0. -1.
        -24    2    1    2    0    0 -0.49269184935E+03 -0.21300351455E+03  0.31581363771E+03  0.62785657351E+03  0.79686055892E+02 0.  0.
        254    2    1    2    0    0  0.49269184935E+03  0.21300351455E+03 -0.28680700098E+04  0.30547168244E+04  0.90407607003E+03 0.  0.
         23    2    4    4    0    0  0.62304513323E+03  0.37567937400E+03 -0.15174582840E+04  0.16851221076E+04  0.87387891947E+02 0.  0.
         23    2    4    4    0    0 -0.13035328388E+03 -0.16267585945E+03 -0.13506117258E+04  0.13695947168E+04  0.90455738175E+02 0.  0.
          1    1    3    3  502    0 -0.41484536530E+03 -0.15064002412E+03  0.23859445864E+03  0.50171347368E+03  0.00000000000E+00 0. -1.
         -2    1    3    3    0  502 -0.77846484049E+02 -0.62363490425E+02  0.77219179070E+02  0.12614309982E+03  0.00000000000E+00 0.  1.
         13    1    5    5    0    0  0.26977377724E+03  0.19294783102E+03 -0.61028414690E+03  0.69458872460E+03  0.00000000000E+00 0.  1.
        -13    1    5    5    0    0  0.35327135599E+03  0.18273154298E+03 -0.90717413712E+03  0.99053338299E+03  0.00000000000E+00 0. -1.
          3    1    6    6  503    0 -0.14403224824E+03 -0.14319932311E+03 -0.12302001507E+04  0.12468535381E+04  0.00000000000E+00 0. -1.
         -3    1    6    6    0  503  0.13678964362E+02 -0.19476536341E+02 -0.12041157509E+03  0.12274117870E+03  0.00000000000E+00 0.  1.
<mgrwt>
<rscale>  0 0.26546816E+04</rscale>
<asrwt>0</asrwt>
<pdfrwt beam="1">  1        1 0.47960228E+00 0.26546816E+04</pdfrwt>
<pdfrwt beam="2">  1       -2 0.86947465E-01 0.26546816E+04</pdfrwt>
<totfact> 0.43203318E-01</totfact>
</mgrwt>
</event>
<event>
12    5  0.5029243E-008  0.1766608E+04  0.7818608E-02  0.8724262E-01
         -2   -1    0    0    0  501 -0.00000000000E+00  0.00000000000E+00  0.97558818736E+03  0.97558818736E+03  0.00000000000E+00 0.  1.
          1   -1    0    0  501    0  0.00000000000E+00 -0.00000000000E+00 -0.79974886455E+03  0.79974886455E+03  0.00000000000E+00 0. -1.
        -24    2    1    2    0    0 -0.41370641166E+03  0.28546052303E+03  0.47960255296E+03  0.69916439201E+03  0.78559105068E+02 0.  0.
        254    2    1    2    0    0  0.41370641166E+03 -0.28546052303E+03 -0.30376323015E+03  0.10761726599E+04  0.90179531418E+03 0.  0.
         23    2    4    4    0    0  0.54067731225E+03 -0.36055861356E+03 -0.49182757826E+03  0.81971548821E+03  0.87776107702E+02 0.  0.
         23    2    4    4    0    0 -0.12697090059E+03  0.75098090528E+02  0.18806434811E+03  0.25645717169E+03  0.92955629646E+02 0.  0.
          3    1    3    3  502    0 -0.10090501520E+02 -0.17015299631E+01  0.84276109648E+00  0.10267603002E+02  0.00000000000E+00 0. -1.
         -4    1    3    3    0  502 -0.40361591014E+03  0.28716205300E+03  0.47875979187E+03  0.68889678901E+03  0.00000000000E+00 0.  1.
         13    1    5    5    0    0  0.11224494632E+03 -0.11857088880E+03 -0.13586998697E+03  0.21241148039E+03  0.00000000000E+00 0.  1.
        -13    1    5    5    0    0  0.42843236593E+03 -0.24198772476E+03 -0.35595759129E+03  0.60730400782E+03  0.00000000000E+00 0. -1.
          3    1    6    6  503    0 -0.35100189260E+02 -0.21176213996E+02  0.50772260684E+02  0.65255480845E+02  0.00000000000E+00 0. -1.
         -3    1    6    6    0  503 -0.91870711328E+02  0.96274304524E+02  0.13729208743E+03  0.19120169084E+03  0.00000000000E+00 0.  1.
<mgrwt>
<rscale>  0 0.17666075E+04</rscale>
<asrwt>0</asrwt>
<pdfrwt beam="1">  1        1 0.12303829E+00 0.17666075E+04</pdfrwt>
<pdfrwt beam="2">  1       -2 0.15009049E+00 0.17666075E+04</pdfrwt>
<totfact> 0.54833217E+00</totfact>
</mgrwt>
</event>
<event>
12    5  0.5029243E-008  0.1663284E+04  0.7818608E-02  0.8782586E-01
          3   -1    0    0  501    0  0.00000000000E+00  0.00000000000E+00  0.17048595249E+03  0.17048595249E+03  0.00000000000E+00 0. -1.
         -4   -1    0    0    0  501 -0.00000000000E+00 -0.00000000000E+00 -0.40568076924E+04  0.40568076924E+04  0.00000000000E+00 0.  1.
        -24    2    1    2    0    0 -0.39941762817E+03 -0.29972445913E+03 -0.20659941762E+04  0.21269889724E+04  0.79880906459E+02 0.  0.
        254    2    1    2    0    0  0.39941762817E+03  0.29972445913E+03 -0.18203275637E+04  0.21003046725E+04  0.92104184771E+03 0.  0.
         23    2    4    4    0    0  0.63306238747E+03 -0.21154274810E+02 -0.11082657463E+04  0.12799282862E+04  0.93530548500E+02 0.  0.
         23    2    4    4    0    0 -0.23364475929E+03  0.32087873394E+03 -0.71206181737E+03  0.82037638636E+03  0.91827817724E+02 0.  0.
          3    1    3    3  502    0 -0.68759850438E+02 -0.76205578463E+02 -0.53972661206E+03  0.54939969329E+03  0.00000000000E+00 0. -1.
         -4    1    3    3    0  502 -0.33065777774E+03 -0.22351888066E+03 -0.15262675642E+04  0.15775892791E+04  0.00000000000E+00 0.  1.
         13    1    5    5    0    0  0.20319138549E+01 -0.11331732089E+01 -0.32492882351E+02  0.32576067272E+02  0.00000000000E+00 0. -1.
        -13    1    5    5    0    0  0.63103047361E+03 -0.20021101601E+02 -0.10757728640E+04  0.12473522189E+04  0.00000000000E+00 0.  1.
          2    1    6    6  503    0 -0.46377053568E+02  0.66029212988E+02 -0.23084309653E+03  0.24453879709E+03  0.00000000000E+00 0. -1.
         -2    1    6    6    0  503 -0.18726770573E+03  0.25484952095E+03 -0.48121872083E+03  0.57583758927E+03  0.00000000000E+00 0.  1.
<mgrwt>
<rscale>  0 0.16632844E+04</rscale>
<asrwt>0</asrwt>
<pdfrwt beam="1">  1        3 0.26228607E-01 0.16632844E+04</pdfrwt>
<pdfrwt beam="2">  1       -4 0.62412428E+00 0.16632844E+04</pdfrwt>
<totfact> 0.31548728E-03</totfact>
</mgrwt>
</event>
<event>
12    5  0.5029243E-008  0.1911823E+04  0.7818608E-02  0.8648994E-01
         -2   -1    0    0    0  501 -0.00000000000E+00  0.00000000000E+00  0.43699532167E+03  0.43699532167E+03  0.00000000000E+00 0.  1.
          1   -1    0    0  501    0  0.00000000000E+00 -0.00000000000E+00 -0.20910212127E+04  0.20910212127E+04  0.00000000000E+00 0. -1.
        -24    2    1    2    0    0  0.73179937286E+03 -0.12576434139E+03 -0.72539265715E+03  0.10411962473E+04  0.80920496395E+02 0.  0.
        254    2    1    2    0    0 -0.73179937286E+03  0.12576434139E+03 -0.92863323384E+03  0.14868202870E+04  0.89270817804E+03 0.  0.
         23    2    4    4    0    0  0.16408251493E+03 -0.22244244087E+02 -0.37173875613E+03  0.41733986867E+03  0.92547204571E+02 0.  0.
         23    2    4    4    0    0 -0.89588188779E+03  0.14800858547E+03 -0.55689447772E+03  0.10694804183E+04  0.95634761621E+02 0.  0.
          3    1    3    3  502    0  0.70206002506E+03 -0.10402380271E+03 -0.69630293099E+03  0.99425701005E+03  0.00000000000E+00 0. -1.
         -4    1    3    3    0  502  0.29739347800E+02 -0.21740538674E+02 -0.29089726158E+02  0.46939237290E+02  0.00000000000E+00 0.  1.
         13    1    5    5    0    0  0.13441055309E+03 -0.47904637490E+02 -0.33264182437E+03  0.36195529336E+03  0.00000000000E+00 0. -1.
        -13    1    5    5    0    0  0.29671961835E+02  0.25660393403E+02 -0.39096931759E+02  0.55384575305E+02  0.00000000000E+00 0.  1.
          1    1    6    6  503    0 -0.37129549380E+03  0.10459270218E+03 -0.21186094325E+03  0.44009662160E+03  0.00000000000E+00 0. -1.
         -1    1    6    6    0  503 -0.52458639398E+03  0.43415883294E+02 -0.34503353446E+03  0.62938379672E+03  0.00000000000E+00 0.  1.
<mgrwt>
<rscale>  0 0.19118227E+04</rscale>
<asrwt>0</asrwt>
<pdfrwt beam="1">  1        1 0.32169558E+00 0.19118227E+04</pdfrwt>
<pdfrwt beam="2">  1       -2 0.67230048E-01 0.19118227E+04</pdfrwt>
<totfact> 0.43064285E+00</totfact>
</mgrwt>
</event>
<event>
12    5  0.5029243E-008  0.1943295E+04  0.7818608E-02  0.8633601E-01
         -2   -1    0    0    0  501 -0.00000000000E+00  0.00000000000E+00  0.24678844436E+03  0.24678844436E+03  0.00000000000E+00 0.  1.
          1   -1    0    0  501    0  0.00000000000E+00 -0.00000000000E+00 -0.38255388003E+04  0.38255388003E+04  0.00000000000E+00 0. -1.
        -24    2    1    2    0    0  0.23932142887E+03  0.47281664820E+02 -0.29400881478E+04  0.29512915849E+04  0.80581637750E+02 0.  0.
        254    2    1    2    0    0 -0.23932142887E+03 -0.47281664820E+02 -0.63866220814E+03  0.11210356597E+04  0.88843752292E+03 0.  0.
         23    2    4    4    0    0  0.27979850355E+03  0.17816472288E+03 -0.29045100871E+03  0.45024046027E+03  0.91240410643E+02 0.  0.
         23    2    4    4    0    0 -0.51911993242E+03 -0.22544638770E+03 -0.34821119943E+03  0.67079519946E+03  0.91671054599E+02 0.  0.
          1    1    3    3  502    0  0.23413190064E+03  0.38028025910E+02 -0.25371746023E+04  0.25482383797E+04  0.00000000000E+00 0. -1.
         -2    1    3    3    0  502  0.51895282325E+01  0.92536389102E+01 -0.40291354553E+03  0.40305320518E+03  0.00000000000E+00 0.  1.
         13    1    5    5    0    0  0.64245539340E+02  0.51037449944E+02 -0.12748213281E+03  0.15160476512E+03  0.00000000000E+00 0. -1.
        -13    1    5    5    0    0  0.21555296421E+03  0.12712727294E+03 -0.16296887590E+03  0.29863569515E+03  0.00000000000E+00 0.  1.
          2    1    6    6  503    0 -0.28437460850E+03 -0.11170047287E+03 -0.13556473974E+03  0.33425097196E+03  0.00000000000E+00 0. -1.
         -2    1    6    6    0  503 -0.23474532392E+03 -0.11374591484E+03 -0.21264645969E+03  0.33654422750E+03  0.00000000000E+00 0.  1.
<mgrwt>
<rscale>  0 0.19432949E+04</rscale>
<asrwt>0</asrwt>
<pdfrwt beam="1">  1        1 0.58854442E+00 0.19432949E+04</pdfrwt>
<pdfrwt beam="2">  1       -2 0.37967453E-01 0.19432949E+04</pdfrwt>
<totfact> 0.73284317E-01</totfact>
</mgrwt>
</event>
<event>
12    5  0.5029243E-008  0.2305242E+04  0.7818608E-02  0.8475857E-01
          1   -1    0    0  501    0  0.00000000000E+00  0.00000000000E+00  0.19346083997E+04  0.19346083997E+04  0.00000000000E+00 0. -1.
         -2   -1    0    0    0  501 -0.00000000000E+00 -0.00000000000E+00 -0.68672031777E+03  0.68672031777E+03  0.00000000000E+00 0.  1.
        -24    2    1    2    0    0  0.77044631279E+03 -0.38356784142E+03  0.26618359082E+02  0.86475838232E+03  0.79916912356E+02 0.  0.
        254    2    1    2    0    0 -0.77044631279E+03  0.38356784142E+03  0.12212697229E+04  0.17565703352E+04  0.92375743384E+03 0.  0.
         23    2    4    4    0    0 -0.81568264040E+03 -0.37916421438E+02  0.87901684916E+03  0.12031478659E+04  0.90101838633E+02 0.  0.
         23    2    4    4    0    0  0.45236327603E+02  0.42148426286E+03  0.34225287371E+03  0.55342246926E+03  0.97180711782E+02 0.  0.
          1    1    3    3  502    0  0.95587118721E+02 -0.76174439899E+02 -0.69974624390E+01  0.12242714993E+03  0.00000000000E+00 0. -1.
         -2    1    3    3    0  502  0.67485919407E+03 -0.30739340152E+03  0.33615821521E+02  0.74233123239E+03  0.00000000000E+00 0.  1.
         13    1    5    5    0    0 -0.14557899857E+03  0.27084883643E+02  0.16864812926E+03  0.22443045081E+03  0.00000000000E+00 0. -1.
        -13    1    5    5    0    0 -0.67010364183E+03 -0.65001305081E+02  0.71036871989E+03  0.97871741512E+03  0.00000000000E+00 0.  1.
          1    1    6    6  503    0 -0.62112783702E+01  0.82523873381E+02  0.25353252467E+02  0.86553781358E+02  0.00000000000E+00 0. -1.
         -1    1    6    6    0  503  0.51447605973E+02  0.33896038948E+03  0.31689962125E+03  0.46686868790E+03  0.00000000000E+00 0.  1.
<mgrwt>
<rscale>  0 0.23052418E+04</rscale>
<asrwt>0</asrwt>
<pdfrwt beam="1">  1        1 0.29763206E+00 0.23052418E+04</pdfrwt>
<pdfrwt beam="2">  1       -2 0.10564928E+00 0.23052418E+04</pdfrwt>
<totfact> 0.18973036E+00</totfact>
</mgrwt>
</event>
<event>
12    5  0.5029243E-008  0.1565505E+04  0.7818608E-02  0.8842024E-01
         -2   -1    0    0    0  501 -0.00000000000E+00  0.00000000000E+00  0.34178635897E+03  0.34178635897E+03  0.00000000000E+00 0.  1.
          1   -1    0    0  501    0  0.00000000000E+00 -0.00000000000E+00 -0.17926448715E+04  0.17926448715E+04  0.00000000000E+00 0. -1.
        -24    2    1    2    0    0 -0.36835897505E+03 -0.15591717191E+03 -0.33317953289E+02  0.40994933534E+03  0.83365895536E+02 0.  0.
        254    2    1    2    0    0  0.36835897505E+03  0.15591717191E+03 -0.14175405592E+04  0.17244818951E+04  0.89689356702E+03 0.  0.
         23    2    4    4    0    0  0.44763646346E+03  0.11929071205E+03 -0.14985968737E+04  0.15711697307E+04  0.90404952134E+02 0.  0.
         23    2    4    4    0    0 -0.79277488409E+02  0.36626459860E+02  0.81056314436E+02  0.15331216447E+03  0.96478370294E+02 0.  0.
          3    1    3    3  502    0 -0.18938745976E+03 -0.94097530838E+02 -0.57269403132E+02  0.21909299341E+03  0.00000000000E+00 0. -1.
         -4    1    3    3    0  502 -0.17897151528E+03 -0.61819641070E+02  0.23951449843E+02  0.19085634193E+03  0.00000000000E+00 0.  1.
         13    1    5    5    0    0  0.40190016243E+03  0.13433964535E+03 -0.13548085266E+04  0.14195340872E+04  0.00000000000E+00 0. -1.
        -13    1    5    5    0    0  0.45736301025E+02 -0.15048933300E+02 -0.14378834705E+03  0.15163564347E+03  0.00000000000E+00 0.  1.
          4    1    6    6  503    0 -0.41360414519E+02  0.43438315399E+01  0.93197193248E+02  0.10205522814E+03  0.00000000000E+00 0. -1.
         -4    1    6    6    0  503 -0.37917073890E+02  0.32282628320E+02 -0.12140878812E+02  0.51256936330E+02  0.00000000000E+00 0.  1.
<mgrwt>
<rscale>  0 0.15655051E+04</rscale>
<asrwt>0</asrwt>
<pdfrwt beam="1">  1        1 0.27579152E+00 0.15655051E+04</pdfrwt>
<pdfrwt beam="2">  1       -2 0.52582517E-01 0.15655051E+04</pdfrwt>
<totfact> 0.11880361E+01</totfact>
</mgrwt>
</event>
<event>
12    5  0.5029243E-008  0.1539701E+04  0.7818608E-02  0.8858473E-01
         -2   -1    0    0    0  501 -0.00000000000E+00  0.00000000000E+00  0.24405237342E+03  0.24405237342E+03  0.00000000000E+00 0.  1.
          1   -1    0    0  501    0  0.00000000000E+00 -0.00000000000E+00 -0.24284527900E+04  0.24284527900E+04  0.00000000000E+00 0. -1.
        -24    2    1    2    0    0  0.45239912821E+03  0.32591266960E+02 -0.10879737804E+04  0.11815404114E+04  0.81385717863E+02 0.  0.
        254    2    1    2    0    0 -0.45239912821E+03 -0.32591266960E+02 -0.10964266361E+04  0.14909647520E+04  0.90282742609E+03 0.  0.
         23    2    4    4    0    0 -0.10622857875E+03 -0.43207909051E+03 -0.36443206720E+03  0.58345534202E+03  0.98145571128E+02 0.  0.
         23    2    4    4    0    0 -0.34617054947E+03  0.39948782355E+03 -0.73199456895E+03  0.90750940996E+03  0.91283677182E+02 0.  0.
          1    1    3    3  502    0  0.29556989032E+03  0.51310793087E+02 -0.77338324603E+03  0.82952757808E+03  0.00000000000E+00 0. -1.
         -2    1    3    3    0  502  0.15682923790E+03 -0.18719526127E+02 -0.31459053435E+03  0.35201283331E+03  0.00000000000E+00 0.  1.
         13    1    5    5    0    0 -0.44284936053E+02 -0.34889484618E+03 -0.27350228612E+03  0.44552471286E+03  0.00000000000E+00 0. -1.
        -13    1    5    5    0    0 -0.61943642692E+02 -0.83184244324E+02 -0.90929781076E+02  0.13793062916E+03  0.00000000000E+00 0.  1.
          1    1    6    6  503    0 -0.74082274200E+01 -0.49115233600E+01 -0.11867932160E+02  0.14827430963E+02  0.00000000000E+00 0.  1.
         -1    1    6    6    0  503 -0.33876232205E+03  0.40439934691E+03 -0.72012663679E+03  0.89268197900E+03  0.00000000000E+00 0. -1.
<mgrwt>
<rscale>  0 0.15397008E+04</rscale>
<asrwt>0</asrwt>
<pdfrwt beam="1">  1        1 0.37360812E+00 0.15397008E+04</pdfrwt>
<pdfrwt beam="2">  1       -2 0.37546519E-01 0.15397008E+04</pdfrwt>
<totfact> 0.86197481E+00</totfact>
</mgrwt>
</event>
<event>
12    5  0.5029243E-008  0.1899078E+04  0.7818608E-02  0.8655315E-01
          1   -1    0    0  501    0  0.00000000000E+00  0.00000000000E+00  0.14709891855E+04  0.14709891855E+04  0.00000000000E+00 0. -1.
         -2   -1    0    0    0  501 -0.00000000000E+00 -0.00000000000E+00 -0.61293751618E+03  0.61293751618E+03  0.00000000000E+00 0.  1.
        -24    2    1    2    0    0  0.16439496535E+03 -0.39464206373E+03  0.98794656773E+03  0.10796168848E+04  0.82256513934E+02 0.  0.
        254    2    1    2    0    0 -0.16439496535E+03  0.39464206373E+03 -0.12989489839E+03  0.10043098169E+04  0.89944286125E+03 0.  0.
         23    2    4    4    0    0  0.29583179660E+03 -0.67230718765E+02  0.50288614011E+02  0.32164855890E+03  0.94299678240E+02 0.  0.
         23    2    4    4    0    0 -0.46022676195E+03  0.46187278250E+03 -0.18018351240E+03  0.68266125802E+03  0.91788645478E+02 0.  0.
          1    1    3    3  502    0  0.15757195783E+03 -0.31754920913E+03  0.75344496560E+03  0.83267384870E+03  0.00000000000E+00 0. -1.
         -2    1    3    3    0  502  0.68230075190E+01 -0.77092854598E+02  0.23450160213E+03  0.24694303607E+03  0.00000000000E+00 0.  1.
         13    1    5    5    0    0  0.25916332865E+03 -0.81484600569E+02  0.20770026643E+02  0.27246424546E+03  0.00000000000E+00 0. -1.
        -13    1    5    5    0    0  0.36668467957E+02  0.14253881804E+02  0.29518587368E+02  0.49184313444E+02  0.00000000000E+00 0.  1.
          3    1    6    6  503    0 -0.40575734328E+03  0.36074227022E+03 -0.13703206770E+03  0.55995695792E+03  0.00000000000E+00 0. -1.
         -3    1    6    6    0  503 -0.54469418674E+02  0.10113051227E+03 -0.43151444698E+02  0.12270430010E+03  0.00000000000E+00 0.  1.
<mgrwt>
<rscale>  0 0.18990782E+04</rscale>
<asrwt>0</asrwt>
<pdfrwt beam="1">  1        1 0.22630603E+00 0.18990782E+04</pdfrwt>
<pdfrwt beam="2">  1       -2 0.94298080E-01 0.18990782E+04</pdfrwt>
<totfact> 0.53362789E+00</totfact>
</mgrwt>
</event>
<event>
12    5  0.5029243E-008  0.1829499E+04  0.7818608E-02  0.8690768E-01
         -2   -1    0    0    0  501 -0.00000000000E+00  0.00000000000E+00  0.44620779839E+03  0.44620779839E+03  0.00000000000E+00 0.  1.
          1   -1    0    0  501    0  0.00000000000E+00 -0.00000000000E+00 -0.18752853192E+04  0.18752853192E+04  0.00000000000E+00 0. -1.
        -24    2    1    2    0    0  0.23219932843E+03  0.38362542841E+03 -0.12083719883E+04  0.12912392869E+04  0.77788408351E+02 0.  0.
        254    2    1    2    0    0 -0.23219932843E+03 -0.38362542841E+03 -0.22070553250E+03  0.10302538307E+04  0.90090344994E+03 0.  0.
         23    2    4    4    0    0  0.19229714689E+03  0.18591305371E+03 -0.12454348424E+03  0.30758386228E+03  0.86918908338E+02 0.  0.
         23    2    4    4    0    0 -0.42449647532E+03 -0.56953848212E+03 -0.96162048266E+02  0.72266996841E+03  0.91833564354E+02 0.  0.
          1    1    3    3  502    0  0.10780913187E+03  0.17048501806E+03 -0.65445676415E+03  0.68483691960E+03  0.00000000000E+00 0. -1.
         -2    1    3    3    0  502  0.12439019656E+03  0.21314041036E+03 -0.55391522411E+03  0.60640236727E+03  0.00000000000E+00 0.  1.
         13    1    5    5    0    0  0.27682090392E+02  0.15140745476E+02  0.12161361834E+02  0.33814775228E+02  0.00000000000E+00 0.  1.
        -13    1    5    5    0    0  0.16461505650E+03  0.17077230823E+03 -0.13670484607E+03  0.27376908705E+03  0.00000000000E+00 0. -1.
          3    1    6    6  503    0 -0.22019259650E+03 -0.25418078152E+03 -0.64442426998E+01  0.33635424408E+03  0.00000000000E+00 0. -1.
         -3    1    6    6    0  503 -0.20430387881E+03 -0.31535770060E+03 -0.89717805566E+02  0.38631572432E+03  0.00000000000E+00 0.  1.
<mgrwt>
<rscale>  0 0.18294993E+04</rscale>
<asrwt>0</asrwt>
<pdfrwt beam="1">  1        1 0.28850544E+00 0.18294993E+04</pdfrwt>
<pdfrwt beam="2">  1       -2 0.68647353E-01 0.18294993E+04</pdfrwt>
<totfact> 0.58051389E+00</totfact>
</mgrwt>
</event>
<event>
12    5  0.5029243E-008  0.1236290E+04  0.7818608E-02  0.9081672E-01
         -2   -1    0    0    0  501 -0.00000000000E+00  0.00000000000E+00  0.11527525424E+03  0.11527525424E+03  0.00000000000E+00 0.  1.
          1   -1    0    0  501    0  0.00000000000E+00 -0.00000000000E+00 -0.33147021157E+04  0.33147021157E+04  0.00000000000E+00 0. -1.
        -24    2    1    2    0    0  0.27694187672E+03 -0.36427864762E+02 -0.60949849605E+03  0.67518792684E+03  0.79790522347E+02 0.  0.
        254    2    1    2    0    0 -0.27694187672E+03  0.36427864762E+02 -0.25899283654E+04  0.27547894431E+04  0.89616524449E+03 0.  0.
         23    2    4    4    0    0 -0.14854141582E+02  0.41735372634E+03 -0.16341538180E+04  0.16891011238E+04  0.90549030458E+02 0.  0.
         23    2    4    4    0    0 -0.26208773514E+03 -0.38092586158E+03 -0.95577454736E+03  0.10656883193E+04  0.91608490909E+02 0.  0.
          3    1    3    3  502    0  0.68522673843E+01 -0.10862089210E+02 -0.71631483333E+02  0.72773676249E+02  0.00000000000E+00 0. -1.
         -4    1    3    3    0  502  0.27008960934E+03 -0.25565775552E+02 -0.53786701271E+03  0.60241425059E+03  0.00000000000E+00 0.  1.
         13    1    5    5    0    0  0.94643275843E+01  0.34932408592E+03 -0.12362109000E+04  0.12846533695E+04  0.00000000000E+00 0.  1.
        -13    1    5    5    0    0 -0.24318469167E+02  0.68029640418E+02 -0.39794291798E+03  0.40444775422E+03  0.00000000000E+00 0. -1.
          2    1    6    6  503    0  0.67600820112E+01 -0.21191970787E+02 -0.42769516024E+02  0.48208192619E+02  0.00000000000E+00 0. -1.
         -2    1    6    6    0  503 -0.26884781715E+03 -0.35973389079E+03 -0.91300503133E+03  0.10174801267E+04  0.00000000000E+00 0.  1.
<mgrwt>
<rscale>  0 0.12362898E+04</rscale>
<asrwt>0</asrwt>
<pdfrwt beam="1">  1        1 0.50995415E+00 0.12362898E+04</pdfrwt>
<pdfrwt beam="2">  1       -2 0.17734655E-01 0.12362898E+04</pdfrwt>
<totfact> 0.80889380E+00</totfact>
</mgrwt>
</event>
<event>
12    5  0.5029243E-008  0.1294293E+04  0.7818608E-02  0.9034103E-01
         -2   -1    0    0    0  501 -0.00000000000E+00  0.00000000000E+00  0.15157804365E+03  0.15157804365E+03  0.00000000000E+00 0.  1.
          1   -1    0    0  501    0  0.00000000000E+00 -0.00000000000E+00 -0.27629254775E+04  0.27629254775E+04  0.00000000000E+00 0. -1.
        -24    2    1    2    0    0  0.21006510652E+03  0.25520714821E+03 -0.68487016548E+03  0.76464077534E+03  0.79814373828E+02 0.  0.
        254    2    1    2    0    0 -0.21006510652E+03 -0.25520714821E+03 -0.19264772683E+04  0.21498627458E+04  0.89517435328E+03 0.  0.
         23    2    4    4    0    0  0.11312271393E+03  0.15516306195E+03 -0.13491809512E+04  0.13658634346E+04  0.91767961177E+02 0.  0.
         23    2    4    4    0    0 -0.32318782045E+03 -0.41037021016E+03 -0.57729631712E+03  0.78399931115E+03  0.92356945904E+02 0.  0.
          3    1    3    3  502    0  0.18146256572E+03  0.16566827107E+03 -0.51020481277E+03  0.56628931632E+03  0.00000000000E+00 0. -1.
         -4    1    3    3    0  502  0.28602540799E+02  0.89538877139E+02 -0.17466535271E+03  0.19835145902E+03  0.00000000000E+00 0.  1.
         13    1    5    5    0    0  0.12193279489E+03  0.13770208237E+03 -0.10456512069E+04  0.10617042509E+04  0.00000000000E+00 0. -1.
        -13    1    5    5    0    0 -0.88100809549E+01  0.17460979577E+02 -0.30352974434E+03  0.30415918370E+03  0.00000000000E+00 0.  1.
          2    1    6    6  503    0 -0.17171614497E+03 -0.25996711927E+03 -0.39650137133E+03  0.50426448915E+03  0.00000000000E+00 0. -1.
         -2    1    6    6    0  503 -0.15147167548E+03 -0.15040309089E+03 -0.18079494579E+03  0.27973482201E+03  0.00000000000E+00 0.  1.
<mgrwt>
<rscale>  0 0.12942934E+04</rscale>
<asrwt>0</asrwt>
<pdfrwt beam="1">  1        1 0.42506543E+00 0.12942934E+04</pdfrwt>
<pdfrwt beam="2">  1       -2 0.23319701E-01 0.12942934E+04</pdfrwt>
<totfact> 0.12525727E+01</totfact>
</mgrwt>
</event>
<event>
12    5  0.5029243E-008  0.3217523E+04  0.7818608E-02  0.8184205E-01
          1   -1    0    0  501    0  0.00000000000E+00  0.00000000000E+00  0.23007433879E+04  0.23007433879E+04  0.00000000000E+00 0. -1.
         -2   -1    0    0    0  501 -0.00000000000E+00 -0.00000000000E+00 -0.11249030419E+04  0.11249030419E+04  0.00000000000E+00 0.  1.
        -24    2    1    2    0    0 -0.95120084085E+03 -0.23698819824E+03  0.17259727420E+04  0.19869191977E+04  0.88991832589E+02 0.  0.
        254    2    1    2    0    0  0.95120084085E+03  0.23698819824E+03 -0.55013239604E+03  0.14387272322E+04  0.89796656377E+03 0.  0.
         23    2    4    4    0    0  0.18140535303E+03 -0.14724074547E+03  0.17620485958E+03  0.30909544879E+03  0.99519368417E+02 0.  0.
         23    2    4    4    0    0  0.76979548782E+03  0.38422894371E+03 -0.72633725562E+03  0.11296317834E+04  0.91022979715E+02 0.  0.
          3    1    3    3  502    0 -0.79167088199E+03 -0.16242878156E+03  0.14251221741E+04  0.16383220396E+04  0.00000000000E+00 0. -1.
         -4    1    3    3    0  502 -0.15952995887E+03 -0.74559416681E+02  0.30085056787E+03  0.34859715802E+03  0.00000000000E+00 0.  1.
         13    1    5    5    0    0  0.11654423020E+02 -0.42823478322E+02  0.20487229569E+01  0.44428292081E+02  0.00000000000E+00 0. -1.
        -13    1    5    5    0    0  0.16975093001E+03 -0.10441726715E+03  0.17415613663E+03  0.26466715671E+03  0.00000000000E+00 0.  1.
          3    1    6    6  503    0  0.14639660095E+03  0.72333395227E+02 -0.18710564004E+03  0.24833969753E+03  0.00000000000E+00 0. -1.
         -3    1    6    6    0  503  0.62339888688E+03  0.31189554848E+03 -0.53923161558E+03  0.88129208584E+03  0.00000000000E+00 0.  1.
<mgrwt>
<rscale>  0 0.32175228E+04</rscale>
<asrwt>0</asrwt>
<pdfrwt beam="1">  1        1 0.35396052E+00 0.32175228E+04</pdfrwt>
<pdfrwt beam="2">  1       -2 0.17306201E+00 0.32175228E+04</pdfrwt>
<totfact> 0.27694877E-01</totfact>
</mgrwt>
</event>
<event>
12    5  0.5029243E-008  0.1443650E+04  0.7818608E-02  0.8922815E-01
         -2   -1    0    0    0  501 -0.00000000000E+00  0.00000000000E+00  0.31420748384E+03  0.31420748384E+03  0.00000000000E+00 0.  1.
          1   -1    0    0  501    0  0.00000000000E+00 -0.00000000000E+00 -0.16582398981E+04  0.16582398981E+04  0.00000000000E+00 0. -1.
        -24    2    1    2    0    0 -0.40023058326E+02 -0.17717601180E+03 -0.95274253047E+03  0.97315727139E+03  0.79520821994E+02 0.  0.
        254    2    1    2    0    0  0.40023058326E+02  0.17717601180E+03 -0.39128988382E+03  0.99929011059E+03  0.90137659587E+03 0.  0.
         23    2    4    4    0    0  0.45991894991E+03  0.12468269090E+03 -0.23728030367E+03  0.53970599151E+03  0.88934812496E+02 0.  0.
         23    2    4    4    0    0 -0.41989589158E+03  0.52493320897E+02 -0.15400958015E+03  0.45958411907E+03  0.91817771804E+02 0.  0.
          3    1    3    3  502    0 -0.23692586841E+02 -0.16315792884E+03 -0.91478139411E+03  0.92951968641E+03  0.00000000000E+00 0. -1.
         -4    1    3    3    0  502 -0.16330471485E+02 -0.14018082963E+02 -0.37961136365E+02  0.43637584981E+02  0.00000000000E+00 0.  1.
         13    1    5    5    0    0  0.18208657288E+03  0.67165039162E+02 -0.52282859445E+02  0.20099791019E+03  0.00000000000E+00 0.  1.
        -13    1    5    5    0    0  0.27783237703E+03  0.57517651739E+02 -0.18499744422E+03  0.33870808133E+03  0.00000000000E+00 0. -1.
          3    1    6    6  503    0 -0.39839419358E+03  0.68431411796E+02 -0.13296083655E+03  0.42553422384E+03  0.00000000000E+00 0. -1.
         -3    1    6    6    0  503 -0.21501698000E+02 -0.15938090899E+02 -0.21048743601E+02  0.34049895236E+02  0.00000000000E+00 0.  1.
<mgrwt>
<rscale>  0 0.14436501E+04</rscale>
<asrwt>0</asrwt>
<pdfrwt beam="1">  1        1 0.25511383E+00 0.14436501E+04</pdfrwt>
<pdfrwt beam="2">  1       -2 0.48339613E-01 0.14436501E+04</pdfrwt>
<totfact> 0.17597091E+01</totfact>
</mgrwt>
</event>
<event>
12    5  0.5029243E-008  0.1752170E+04  0.7818608E-02  0.8732157E-01
          1   -1    0    0  501    0  0.00000000000E+00  0.00000000000E+00  0.10436735977E+04  0.10436735977E+04  0.00000000000E+00 0. -1.
         -2   -1    0    0    0  501 -0.00000000000E+00 -0.00000000000E+00 -0.73540728167E+03  0.73540728167E+03  0.00000000000E+00 0.  1.
        -24    2    1    2    0    0 -0.14293760728E+03 -0.42217753997E+03 -0.35552852273E+03  0.57714740487E+03  0.89630138010E+02 0.  0.
        254    2    1    2    0    0  0.14293760728E+03  0.42217753997E+03  0.66379483879E+03  0.12019334745E+04  0.89741598735E+03 0.  0.
         23    2    4    4    0    0  0.19622186732E+03  0.61261427460E+03  0.18858086548E+03  0.67809877095E+03  0.10225424044E+03 0.  0.
         23    2    4    4    0    0 -0.53284260042E+02 -0.19043673462E+03  0.47521397330E+03  0.52383470357E+03  0.97309372524E+02 0.  0.
          3    1    3    3  502    0 -0.77086012837E+01 -0.40343005492E+02 -0.71366915595E+02  0.82342074709E+02  0.00000000000E+00 0. -1.
         -4    1    3    3    0  502 -0.13522900600E+03 -0.38183453448E+03 -0.28416160714E+03  0.49480533016E+03  0.00000000000E+00 0.  1.
         13    1    5    5    0    0  0.57123480007E+02  0.16883607673E+03  0.55891635259E+01  0.17832540908E+03  0.00000000000E+00 0. -1.
        -13    1    5    5    0    0  0.13909838732E+03  0.44377819786E+03  0.18299170196E+03  0.49977336187E+03  0.00000000000E+00 0.  1.
          1    1    6    6  503    0 -0.38853337985E+02 -0.15320762634E+03  0.25486366469E+03  0.29989605903E+03  0.00000000000E+00 0. -1.
         -1    1    6    6    0  503 -0.14430922056E+02 -0.37229108288E+02  0.22035030861E+03  0.22393864454E+03  0.00000000000E+00 0.  1.
<mgrwt>
<rscale>  0 0.17521703E+04</rscale>
<asrwt>0</asrwt>
<pdfrwt beam="1">  1        1 0.16056517E+00 0.17521703E+04</pdfrwt>
<pdfrwt beam="2">  1       -2 0.11313958E+00 0.17521703E+04</pdfrwt>
<totfact> 0.71331572E+00</totfact>
</mgrwt>
</event>
<event>
12    5  0.5029243E-008  0.2721967E+04  0.7818608E-02  0.8327912E-01
         -2   -1    0    0    0  501 -0.00000000000E+00  0.00000000000E+00  0.12273855735E+04  0.12273855735E+04  0.00000000000E+00 0.  1.
          1   -1    0    0  501    0  0.00000000000E+00 -0.00000000000E+00 -0.15091237872E+04  0.15091237872E+04  0.00000000000E+00 0. -1.
        -24    2    1    2    0    0 -0.56716616312E+03  0.11480239487E+03 -0.12042771055E+04  0.13384304751E+04  0.79093257075E+02 0.  0.
        254    2    1    2    0    0  0.56716616312E+03 -0.11480239487E+03  0.92253889190E+03  0.13980788856E+04  0.87674940364E+03 0.  0.
         23    2    4    4    0    0 -0.51744432178E+02 -0.36177669127E+03  0.35912240803E+03  0.52069603696E+03  0.92712449785E+02 0.  0.
         23    2    4    4    0    0  0.61891059530E+03  0.24697429640E+03  0.56341648387E+03  0.87738284862E+03  0.91191560525E+02 0.  0.
          3    1    3    3  502    0 -0.55957196795E+03  0.12227515070E+03 -0.11726984543E+04  0.13051029326E+04  0.00000000000E+00 0. -1.
         -4    1    3    3    0  502 -0.75941951668E+01 -0.74727558272E+01 -0.31578651202E+02  0.33327542538E+02  0.00000000000E+00 0.  1.
         13    1    5    5    0    0  0.24728361224E+02 -0.12423677471E+03  0.10499507557E+03  0.16453034350E+03  0.00000000000E+00 0. -1.
        -13    1    5    5    0    0 -0.76472793402E+02 -0.23753991656E+03  0.25412733247E+03  0.35616569346E+03  0.00000000000E+00 0.  1.
          3    1    6    6  503    0  0.68294504927E+02  0.56522125505E+02  0.93748945898E+02  0.12902617925E+03  0.00000000000E+00 0. -1.
         -3    1    6    6    0  503  0.55061609037E+03  0.19045217089E+03  0.46966753797E+03  0.74835666937E+03  0.00000000000E+00 0.  1.
<mgrwt>
<rscale>  0 0.27219675E+04</rscale>
<asrwt>0</asrwt>
<pdfrwt beam="1">  1        1 0.23217289E+00 0.27219675E+04</pdfrwt>
<pdfrwt beam="2">  1       -2 0.18882855E+00 0.27219675E+04</pdfrwt>
<totfact> 0.77886810E-01</totfact>
</mgrwt>
</event>
<event>
12    5  0.5029243E-008  0.1626466E+04  0.7818608E-02  0.8804452E-01
          1   -1    0    0  501    0  0.00000000000E+00  0.00000000000E+00  0.13623325008E+04  0.13623325008E+04  0.00000000000E+00 0. -1.
         -2   -1    0    0    0  501 -0.00000000000E+00 -0.00000000000E+00 -0.48545240707E+03  0.48545240707E+03  0.00000000000E+00 0.  1.
        -24    2    1    2    0    0  0.35031697501E+03 -0.15936014523E+03 -0.17609000439E+03  0.43396623142E+03  0.95923727530E+02 0.  0.
        254    2    1    2    0    0 -0.35031697501E+03  0.15936014523E+03  0.10529700981E+04  0.14138186764E+04  0.86140558594E+03 0.  0.
         23    2    4    4    0    0 -0.45033098981E+03  0.25909413127E+03  0.11162075152E+04  0.12346383722E+04  0.92113646856E+02 0.  0.
         23    2    4    4    0    0  0.10001401480E+03 -0.99733986041E+02 -0.63237417070E+02  0.17918030424E+03  0.90315775936E+02 0.  0.
          1    1    3    3  502    0  0.14618663666E+03 -0.27512371716E+02 -0.10031713262E+03  0.17941847851E+03  0.00000000000E+00 0. -1.
         -2    1    3    3    0  502  0.20413033835E+03 -0.13184777351E+03 -0.75772871768E+02  0.25454775291E+03  0.00000000000E+00 0.  1.
         13    1    5    5    0    0 -0.11443105109E+03  0.22722793888E+02  0.23138295690E+03  0.25913097762E+03  0.00000000000E+00 0.  1.
        -13    1    5    5    0    0 -0.33589993872E+03  0.23637133738E+03  0.88482455825E+03  0.97550739457E+03  0.00000000000E+00 0. -1.
          4    1    6    6  503    0  0.10152453574E+03 -0.87942751358E+02 -0.81706084524E+02  0.15721654850E+03  0.00000000000E+00 0. -1.
         -4    1    6    6    0  503 -0.15105209404E+01 -0.11791234684E+02  0.18468667454E+02  0.21963755744E+02  0.00000000000E+00 0.  1.
<mgrwt>
<rscale>  0 0.16264656E+04</rscale>
<asrwt>0</asrwt>
<pdfrwt beam="1">  1        1 0.20958961E+00 0.16264656E+04</pdfrwt>
<pdfrwt beam="2">  1       -2 0.74684986E-01 0.16264656E+04</pdfrwt>
<totfact> 0.11057783E+01</totfact>
</mgrwt>
</event>
<event>
12    5  0.5029243E-008  0.1281796E+04  0.7818608E-02  0.9044127E-01
         -2   -1    0    0    0  501 -0.00000000000E+00  0.00000000000E+00  0.85695033335E+03  0.85695033335E+03  0.00000000000E+00 0.  1.
          1   -1    0    0  501    0  0.00000000000E+00 -0.00000000000E+00 -0.47931613173E+03  0.47931613173E+03  0.00000000000E+00 0. -1.
        -24    2    1    2    0    0  0.92090844316E+00 -0.30435296559E+03  0.40532245917E+02  0.31714547522E+03  0.79415450358E+02 0.  0.
        254    2    1    2    0    0 -0.92090844316E+00  0.30435296559E+03  0.33710195571E+03  0.10191209899E+04  0.91232575745E+03 0.  0.
         23    2    4    4    0    0 -0.40416489944E+02  0.61708023570E+03  0.15453206137E+03  0.64353110928E+03  0.88490794242E+02 0.  0.
         23    2    4    4    0    0  0.39495581501E+02 -0.31272727011E+03  0.18256989433E+03  0.37558988058E+03  0.91530025945E+02 0.  0.
          1    1    3    3  502    0  0.36810071637E+01 -0.20769115372E+03 -0.10142146237E+02  0.20797121983E+03  0.00000000000E+00 0. -1.
         -2    1    3    3    0  502 -0.27600987205E+01 -0.96661811870E+02  0.50674392155E+02  0.10917425539E+03  0.00000000000E+00 0.  1.
         13    1    5    5    0    0 -0.42256778616E+02  0.50523850874E+03  0.91678556316E+02  0.51522475071E+03  0.00000000000E+00 0. -1.
        -13    1    5    5    0    0  0.18402886719E+01  0.11184172696E+03  0.62853505058E+02  0.12830635857E+03  0.00000000000E+00 0.  1.
          2    1    6    6  503    0  0.35770022650E+02 -0.23185963820E+03  0.86694486651E+02  0.25010861713E+03  0.00000000000E+00 0. -1.
         -2    1    6    6    0  503  0.37255588503E+01 -0.80867631912E+02  0.95875407681E+02  0.12548126345E+03  0.00000000000E+00 0.  1.
<mgrwt>
<rscale>  0 0.12817958E+04</rscale>
<asrwt>0</asrwt>
<pdfrwt beam="1">  1        1 0.73740944E-01 0.12817958E+04</pdfrwt>
<pdfrwt beam="2">  1       -2 0.13183851E+00 0.12817958E+04</pdfrwt>
<totfact> 0.16926426E+01</totfact>
</mgrwt>
</event>
<event>
12    5  0.5029243E-008  0.1187312E+04  0.7818608E-02  0.9124036E-01
          1   -1    0    0  501    0  0.00000000000E+00  0.00000000000E+00  0.69966325166E+03  0.69966325166E+03  0.00000000000E+00 0. -1.
         -2   -1    0    0    0  501 -0.00000000000E+00 -0.00000000000E+00 -0.50370991829E+03  0.50370991829E+03  0.00000000000E+00 0.  1.
        -24    2    1    2    0    0 -0.22422602288E+03  0.93120697922E+02  0.70957200265E+02  0.26505928618E+03  0.79200550518E+02 0.  0.
        254    2    1    2    0    0  0.22422602288E+03 -0.93120697922E+02  0.12499613311E+03  0.93831388377E+03  0.89769713014E+03 0.  0.
         23    2    4    4    0    0  0.37982061245E+03 -0.31959469050E+03 -0.16245173549E+03  0.53041267131E+03  0.92426033583E+02 0.  0.
         23    2    4    4    0    0 -0.15559458957E+03  0.22647399258E+03  0.28744786860E+03  0.40790121246E+03  0.90867906043E+02 0.  0.
          3    1    3    3  502    0 -0.11624771358E+03  0.87930262173E+01  0.48317274833E+02  0.12619590829E+03  0.00000000000E+00 0. -1.
         -4    1    3    3    0  502 -0.10797830930E+03  0.84327671705E+02  0.22639925432E+02  0.13886337789E+03  0.00000000000E+00 0.  1.
         13    1    5    5    0    0  0.12259532180E+03 -0.58599914897E+02 -0.20433555616E+02  0.13740849009E+03  0.00000000000E+00 0.  1.
        -13    1    5    5    0    0  0.25722529065E+03 -0.26099477560E+03 -0.14201817987E+03  0.39300418122E+03  0.00000000000E+00 0. -1.
          1    1    6    6  503    0  0.13137336974E+01  0.47614542410E+02  0.75439732530E+02  0.89218965412E+02  0.00000000000E+00 0. -1.
         -1    1    6    6    0  503 -0.15690832327E+03  0.17885945017E+03  0.21200813607E+03  0.31868224705E+03  0.00000000000E+00 0.  1.
<mgrwt>
<rscale>  0 0.11873118E+04</rscale>
<asrwt>0</asrwt>
<pdfrwt beam="1">  1        1 0.10764050E+00 0.11873118E+04</pdfrwt>
<pdfrwt beam="2">  1       -2 0.77493833E-01 0.11873118E+04</pdfrwt>
<totfact> 0.35123487E+01</totfact>
</mgrwt>
</event>
<event>
12    5  0.5029243E-008  0.1442079E+04  0.7818608E-02  0.8923911E-01
         -2   -1    0    0    0  501 -0.00000000000E+00  0.00000000000E+00  0.33779199697E+03  0.33779199697E+03  0.00000000000E+00 0.  1.
          1   -1    0    0  501    0  0.00000000000E+00 -0.00000000000E+00 -0.15391057514E+04  0.15391057514E+04  0.00000000000E+00 0. -1.
        -24    2    1    2    0    0 -0.38037813770E+03 -0.20605671823E+03 -0.47614124129E+03  0.65005595566E+03  0.93356119544E+02 0.  0.
        254    2    1    2    0    0  0.38037813770E+03  0.20605671823E+03 -0.72517251318E+03  0.12268417927E+04  0.89001051218E+03 0.  0.
         23    2    4    4    0    0 -0.67080254983E+02  0.84911722202E+02 -0.74100216440E+03  0.75451696125E+03  0.92205617978E+02 0.  0.
         23    2    4    4    0    0  0.44745839268E+03  0.12114499603E+03  0.15829651225E+02  0.47232483150E+03  0.89134983859E+02 0.  0.
          3    1    3    3  502    0 -0.24384751597E+03 -0.13303368882E+03 -0.23686608493E+03  0.36505494874E+03  0.00000000000E+00 0. -1.
         -4    1    3    3    0  502 -0.13653062173E+03 -0.73023029414E+02 -0.23927515636E+03  0.28500100692E+03  0.00000000000E+00 0.  1.
         13    1    5    5    0    0  0.78445316446E+01  0.27065417127E+02 -0.52924271147E+02  0.59958752133E+02  0.00000000000E+00 0. -1.
        -13    1    5    5    0    0 -0.74924786627E+02  0.57846305075E+02 -0.68807789325E+03  0.69455820911E+03  0.00000000000E+00 0.  1.
          1    1    6    6  503    0  0.73139282570E+02 -0.12770394060E+02 -0.32247372273E+01  0.74315789369E+02  0.00000000000E+00 0. -1.
         -1    1    6    6    0  503  0.37431911011E+03  0.13391539009E+03  0.19054388452E+02  0.39800904213E+03  0.00000000000E+00 0.  1.
<mgrwt>
<rscale>  0 0.14420785E+04</rscale>
<asrwt>0</asrwt>
<pdfrwt beam="1">  1        1 0.23678550E+00 0.14420785E+04</pdfrwt>
<pdfrwt beam="2">  1       -2 0.51968000E-01 0.14420785E+04</pdfrwt>
<totfact> 0.18325103E+01</totfact>
</mgrwt>
</event>
<event>
12    5  0.5029243E-008  0.2455363E+04  0.7818608E-02  0.8419063E-01
          1   -1    0    0  501    0  0.00000000000E+00  0.00000000000E+00  0.16885280441E+04  0.16885280441E+04  0.00000000000E+00 0. -1.
         -2   -1    0    0    0  501 -0.00000000000E+00 -0.00000000000E+00 -0.89261252673E+03  0.89261252673E+03  0.00000000000E+00 0.  1.
        -24    2    1    2    0    0 -0.23980556515E+03 -0.93963890893E+03  0.78872042448E+03  0.12525373549E+04  0.79636230713E+02 0.  0.
        254    2    1    2    0    0  0.23980556515E+03  0.93963890893E+03  0.71950928724E+01  0.13286032159E+04  0.90813366177E+03 0.  0.
         23    2    4    4    0    0  0.38831021645E+03  0.55152459213E+02  0.11840474735E+03  0.41997972951E+03  0.92394107239E+02 0.  0.
         23    2    4    4    0    0 -0.14850465130E+03  0.88448644972E+03 -0.11120965447E+03  0.90862348637E+03  0.94123012824E+02 0.  0.
          3    1    3    3  502    0 -0.24566096748E+02 -0.71741199947E+02  0.37119117555E+02  0.84428204809E+02  0.00000000000E+00 0. -1.
         -4    1    3    3    0  502 -0.21523946840E+03 -0.86789770899E+03  0.75160130693E+03  0.11681091501E+04  0.00000000000E+00 0.  1.
         13    1    5    5    0    0  0.14467996752E+03  0.24917286565E+02 -0.13797154134E+01  0.14681644249E+03  0.00000000000E+00 0.  1.
        -13    1    5    5    0    0  0.24363024893E+03  0.30235172649E+02  0.11978446276E+03  0.27316328703E+03  0.00000000000E+00 0. -1.
          1    1    6    6  503    0 -0.12627932940E+03  0.60210566986E+03 -0.11227942850E+03  0.62536739343E+03  0.00000000000E+00 0. -1.
         -1    1    6    6    0  503 -0.22225321900E+02  0.28238077986E+03  0.10697740248E+01  0.28325609294E+03  0.00000000000E+00 0.  1.
<mgrwt>
<rscale>  0 0.24553625E+04</rscale>
<asrwt>0</asrwt>
<pdfrwt beam="1">  1        1 0.25977354E+00 0.24553625E+04</pdfrwt>
<pdfrwt beam="2">  1       -2 0.13732500E+00 0.24553625E+04</pdfrwt>
<totfact> 0.14354255E+00</totfact>
</mgrwt>
</event>
<event>
12    5  0.5029243E-008  0.1386991E+04  0.7818608E-02  0.8963290E-01
          1   -1    0    0  501    0  0.00000000000E+00  0.00000000000E+00  0.85148508237E+03  0.85148508237E+03  0.00000000000E+00 0. -1.
         -2   -1    0    0    0  501 -0.00000000000E+00 -0.00000000000E+00 -0.56481998393E+03  0.56481998393E+03  0.00000000000E+00 0.  1.
        -24    2    1    2    0    0 -0.11676962225E+03 -0.36993539833E+03  0.59668800424E+01  0.39755847007E+03  0.86774361716E+02 0.  0.
        254    2    1    2    0    0  0.11676962225E+03  0.36993539833E+03  0.28069821840E+03  0.10187465962E+04  0.89920286581E+03 0.  0.
         23    2    4    4    0    0 -0.18766603348E+03 -0.15897124631E+03  0.30343155966E+03  0.40140806459E+03  0.92559848996E+02 0.  0.
         23    2    4    4    0    0  0.30443565573E+03  0.52890664464E+03 -0.22733341253E+02  0.61733853163E+03  0.90370075826E+02 0.  0.
          1    1    3    3  502    0 -0.76429461443E+02 -0.18012019057E+03  0.42165539859E+02  0.20015663461E+03  0.00000000000E+00 0. -1.
         -2    1    3    3    0  502 -0.40340160809E+02 -0.18981520777E+03 -0.36198659817E+02  0.19740183547E+03  0.00000000000E+00 0.  1.
         13    1    5    5    0    0 -0.15512739231E+03 -0.75281962012E+02  0.18681636745E+03  0.25422870962E+03  0.00000000000E+00 0.  1.
        -13    1    5    5    0    0 -0.32538641176E+02 -0.83689284299E+02  0.11661519221E+03  0.14717935497E+03  0.00000000000E+00 0. -1.
          1    1    6    6  503    0  0.74726554829E+02  0.21368063971E+03 -0.20409372478E+02  0.22728839889E+03  0.00000000000E+00 0. -1.
         -1    1    6    6    0  503  0.22970910090E+03  0.31522600493E+03 -0.23239687757E+01  0.39005013274E+03  0.00000000000E+00 0.  1.
<mgrwt>
<rscale>  0 0.13869907E+04</rscale>
<asrwt>0</asrwt>
<pdfrwt beam="1">  1        1 0.13099771E+00 0.13869907E+04</pdfrwt>
<pdfrwt beam="2">  1       -2 0.86895382E-01 0.13869907E+04</pdfrwt>
<totfact> 0.19569868E+01</totfact>
</mgrwt>
</event>
<event>
12    5  0.5029243E-008  0.1553160E+04  0.7818608E-02  0.8849852E-01
          3   -1    0    0  501    0  0.00000000000E+00  0.00000000000E+00  0.24036119016E+04  0.24036119016E+04  0.00000000000E+00 0. -1.
         -4   -1    0    0    0  501 -0.00000000000E+00 -0.00000000000E+00 -0.25090437458E+03  0.25090437458E+03  0.00000000000E+00 0.  1.
        -24    2    1    2    0    0 -0.29286439990E+03  0.34631872083E+03  0.11028082148E+04  0.11951459614E+04  0.80508989379E+02 0.  0.
        254    2    1    2    0    0  0.29286439990E+03 -0.34631872083E+03  0.10498993122E+04  0.14593703148E+04  0.90651361636E+03 0.  0.
         23    2    4    4    0    0 -0.77696981553E+01 -0.60114825813E+03  0.66785338269E+03  0.90303460031E+03  0.89463691619E+02 0.  0.
         23    2    4    4    0    0  0.30063409805E+03  0.25482953730E+03  0.38204592955E+03  0.55633571446E+03  0.90726957990E+02 0.  0.
          3    1    3    3  502    0 -0.20054594006E+03  0.18551614849E+03  0.71096822684E+03  0.76165000821E+03  0.00000000000E+00 0. -1.
         -4    1    3    3    0  502 -0.92318459837E+02  0.16080257234E+03  0.39183998796E+03  0.43349595322E+03  0.00000000000E+00 0.  1.
         13    1    5    5    0    0 -0.27433057162E+02 -0.12917407272E+03  0.10859716649E+03  0.17097326767E+03  0.00000000000E+00 0.  1.
        -13    1    5    5    0    0  0.19663359006E+02 -0.47197418540E+03  0.55925621621E+03  0.73206133264E+03  0.00000000000E+00 0. -1.
          1    1    6    6  503    0  0.14516597017E+03  0.16274863357E+03  0.16234499424E+03  0.27187529086E+03  0.00000000000E+00 0. -1.
         -1    1    6    6    0  503  0.15546812788E+03  0.92080903723E+02  0.21970093531E+03  0.28446042360E+03  0.00000000000E+00 0.  1.
<mgrwt>
<rscale>  0 0.15531603E+04</rscale>
<asrwt>0</asrwt>
<pdfrwt beam="1">  1        3 0.36978643E+00 0.15531603E+04</pdfrwt>
<pdfrwt beam="2">  1       -4 0.38600675E-01 0.15531603E+04</pdfrwt>
<totfact> 0.23516299E-01</totfact>
</mgrwt>
</event>
<event>
12    5  0.5029243E-008  0.1456078E+04  0.7818608E-02  0.8914198E-01
          1   -1    0    0  501    0  0.00000000000E+00  0.00000000000E+00  0.16668987392E+04  0.16668987392E+04  0.00000000000E+00 0. -1.
         -2   -1    0    0    0  501 -0.00000000000E+00 -0.00000000000E+00 -0.31798013336E+03  0.31798013336E+03  0.00000000000E+00 0.  1.
        -24    2    1    2    0    0 -0.44148268777E+03  0.67300908806E+02  0.43698097066E+03  0.62992833007E+03  0.80130870306E+02 0.  0.
        254    2    1    2    0    0  0.44148268777E+03 -0.67300908806E+02  0.91193763513E+03  0.13549505424E+04  0.89712002885E+03 0.  0.
         23    2    4    4    0    0  0.42688135533E+03 -0.95942692721E+02  0.10753848585E+04  0.11650132880E+04  0.96802248481E+02 0.  0.
         23    2    4    4    0    0  0.14601332444E+02  0.28641783915E+02 -0.16344722341E+03  0.18993725449E+03  0.91255767536E+02 0.  0.
          3    1    3    3  502    0 -0.41927152736E+03  0.81070171234E+02  0.40409364039E+03  0.58792232184E+03  0.00000000000E+00 0. -1.
         -4    1    3    3    0  502 -0.22211160410E+02 -0.13769262427E+02  0.32887330276E+02  0.42006008227E+02  0.00000000000E+00 0.  1.
         13    1    5    5    0    0  0.42858563805E+02 -0.42484374481E+02  0.15007653549E+03  0.16175520106E+03  0.00000000000E+00 0.  1.
        -13    1    5    5    0    0  0.38402279153E+03 -0.53458318240E+02  0.92530832305E+03  0.10032580869E+04  0.00000000000E+00 0. -1.
          4    1    6    6  503    0 -0.31254889491E+02 -0.13145223784E+02 -0.46450716281E+02  0.57509425910E+02  0.00000000000E+00 0. -1.
         -4    1    6    6    0  503  0.45856221935E+02  0.41787007699E+02 -0.11699650713E+03  0.13242782858E+03  0.00000000000E+00 0.  1.
<mgrwt>
<rscale>  0 0.14560779E+04</rscale>
<asrwt>0</asrwt>
<pdfrwt beam="1">  1        1 0.25644595E+00 0.14560779E+04</pdfrwt>
<pdfrwt beam="2">  1       -2 0.48920021E-01 0.14560779E+04</pdfrwt>
<totfact> 0.16926174E+01</totfact>
</mgrwt>
</event>
<event>
12    5  0.5029243E-008  0.1609505E+04  0.7818608E-02  0.8814730E-01
          1   -1    0    0  501    0  0.00000000000E+00  0.00000000000E+00  0.21601112128E+04  0.21601112128E+04  0.00000000000E+00 0. -1.
         -2   -1    0    0    0  501 -0.00000000000E+00 -0.00000000000E+00 -0.29981166639E+03  0.29981166639E+03  0.00000000000E+00 0.  1.
        -24    2    1    2    0    0 -0.39831363641E+03  0.34256995865E+03  0.41846262437E+03  0.67632650934E+03  0.79364032889E+02 0.  0.
        254    2    1    2    0    0  0.39831363641E+03 -0.34256995865E+03  0.14418369221E+04  0.17835963699E+04  0.90901835585E+03 0.  0.
         23    2    4    4    0    0  0.33467237035E+03 -0.38130674897E+03  0.22702588684E+03  0.56317547231E+03  0.90694140035E+02 0.  0.
         23    2    4    4    0    0  0.63641266065E+02  0.38736790314E+02  0.12148110352E+04  0.12204208976E+04  0.90058682138E+02 0.  0.
          1    1    3    3  502    0 -0.57526881308E+02  0.30545458581E+02  0.82141589171E+02  0.10483133017E+03  0.00000000000E+00 0. -1.
         -2    1    3    3    0  502 -0.34078675510E+03  0.31202450007E+03  0.33632103520E+03  0.57149517917E+03  0.00000000000E+00 0.  1.
         13    1    5    5    0    0  0.33555250275E+03 -0.37516320895E+03  0.23292379930E+03  0.55461375003E+03  0.00000000000E+00 0. -1.
        -13    1    5    5    0    0 -0.88013239879E+00 -0.61435400159E+01 -0.58979124581E+01  0.85617222759E+01  0.00000000000E+00 0.  1.
          4    1    6    6  503    0  0.57817194876E+02  0.65612614667E+02  0.81901804222E+03  0.82367371981E+03  0.00000000000E+00 0. -1.
         -4    1    6    6    0  503  0.58240711891E+01 -0.26875824353E+02  0.39579299302E+03  0.39674717776E+03  0.00000000000E+00 0.  1.
<mgrwt>
<rscale>  0 0.16095049E+04</rscale>
<asrwt>0</asrwt>
<pdfrwt beam="1">  1        1 0.33232479E+00 0.16095049E+04</pdfrwt>
<pdfrwt beam="2">  1       -2 0.46124873E-01 0.16095049E+04</pdfrwt>
<totfact> 0.87084416E+00</totfact>
</mgrwt>
</event>
<event>
12    5  0.5029243E-008  0.1576911E+04  0.7818608E-02  0.8834859E-01
         -4   -1    0    0    0  501 -0.00000000000E+00  0.00000000000E+00  0.37516178081E+03  0.37516178081E+03  0.00000000000E+00 0.  1.
          1   -1    0    0  501    0  0.00000000000E+00 -0.00000000000E+00 -0.16570516383E+04  0.16570516383E+04  0.00000000000E+00 0. -1.
        -24    2    1    2    0    0  0.39608968817E+03  0.19504642397E+03  0.59073931782E+01  0.44862119238E+03  0.79346886360E+02 0.  0.
        254    2    1    2    0    0 -0.39608968817E+03 -0.19504642397E+03 -0.12877972507E+04  0.15835922268E+04  0.80895762138E+03 0.  0.
         23    2    4    4    0    0 -0.32096828261E+03 -0.44766474346E+03 -0.11372208142E+04  0.12668932972E+04  0.91230945316E+02 0.  0.
         23    2    4    4    0    0 -0.75121405565E+02  0.25261831949E+03 -0.15057643651E+03  0.31669892953E+03  0.90364306095E+02 0.  0.
          3    1    3    3  502    0  0.10976104954E+03  0.46009249586E+02  0.36228410877E+02  0.12440593554E+03  0.00000000000E+00 0. -1.
         -4    1    3    3    0  502  0.28632863863E+03  0.14903717439E+03 -0.30321017698E+02  0.32421525683E+03  0.00000000000E+00 0.  1.
         13    1    5    5    0    0 -0.54901723474E+00 -0.25356932272E+02 -0.84677737754E+02  0.88394540019E+02  0.00000000000E+00 0. -1.
        -13    1    5    5    0    0 -0.32041926537E+03 -0.42230781119E+03 -0.10525430764E+04  0.11784987572E+04  0.00000000000E+00 0.  1.
          1    1    6    6  503    0  0.11306063201E+02  0.70646874791E+01  0.40321467370E+01  0.13928211715E+02  0.00000000000E+00 0. -1.
         -1    1    6    6    0  503 -0.86427468766E+02  0.24555363201E+03 -0.15460858325E+03  0.30277071781E+03  0.00000000000E+00 0.  1.
<mgrwt>
<rscale>  0 0.15769115E+04</rscale>
<asrwt>0</asrwt>
<pdfrwt beam="1">  1        1 0.25493102E+00 0.15769115E+04</pdfrwt>
<pdfrwt beam="2">  1       -4 0.57717197E-01 0.15769115E+04</pdfrwt>
<totfact> 0.68729854E+00</totfact>
</mgrwt>
</event>
<event>
12    5  0.5029243E-008  0.1611933E+04  0.7818608E-02  0.8813251E-01
         -2   -1    0    0    0  501 -0.00000000000E+00  0.00000000000E+00  0.27764450340E+03  0.27764450340E+03  0.00000000000E+00 0.  1.
          1   -1    0    0  501    0  0.00000000000E+00 -0.00000000000E+00 -0.23396166567E+04  0.23396166567E+04  0.00000000000E+00 0. -1.
        -24    2    1    2    0    0  0.54228185970E+03 -0.28828271235E+02 -0.88046087574E+03  0.10379217220E+04  0.84672679251E+02 0.  0.
        254    2    1    2    0    0 -0.54228185970E+03  0.28828271235E+02 -0.11815112776E+04  0.15793394382E+04  0.89635008636E+03 0.  0.
         23    2    4    4    0    0 -0.11371236088E+03 -0.39992986986E+03 -0.58766986119E+03  0.72548803600E+03  0.90014569983E+02 0.  0.
         23    2    4    4    0    0 -0.42856949882E+03  0.42875814109E+03 -0.59384141642E+03  0.85385140219E+03  0.94388719109E+02 0.  0.
          1    1    3    3  502    0  0.36046876409E+03  0.19100940375E+02 -0.60181156828E+03  0.70176900724E+03  0.00000000000E+00 0. -1.
         -2    1    3    3    0  502  0.18181309561E+03 -0.47929211610E+02 -0.27864930747E+03  0.33615271472E+03  0.00000000000E+00 0.  1.
         13    1    5    5    0    0 -0.11023746513E+03 -0.29595681197E+03 -0.48891196825E+03  0.58204608578E+03  0.00000000000E+00 0. -1.
        -13    1    5    5    0    0 -0.34748957529E+01 -0.10397305788E+03 -0.98757892944E+02  0.14344195023E+03  0.00000000000E+00 0.  1.
          1    1    6    6  503    0 -0.32841102188E+03  0.37700001934E+03 -0.50101167842E+03  0.70781036711E+03  0.00000000000E+00 0. -1.
         -1    1    6    6    0  503 -0.10015847693E+03  0.51758121746E+02 -0.92829737995E+02  0.14604103507E+03  0.00000000000E+00 0.  1.
<mgrwt>
<rscale>  0 0.16119326E+04</rscale>
<asrwt>0</asrwt>
<pdfrwt beam="1">  1        1 0.35994103E+00 0.16119326E+04</pdfrwt>
<pdfrwt beam="2">  1       -2 0.42714539E-01 0.16119326E+04</pdfrwt>
<totfact> 0.76561295E+00</totfact>
</mgrwt>
</event>
<event>
12    5  0.5029243E-008  0.1413944E+04  0.7818608E-02  0.8943786E-01
          1   -1    0    0  501    0  0.00000000000E+00  0.00000000000E+00  0.86015573213E+03  0.86015573213E+03  0.00000000000E+00 0. -1.
         -2   -1    0    0    0  501 -0.00000000000E+00 -0.00000000000E+00 -0.58106861463E+03  0.58106861463E+03  0.00000000000E+00 0.  1.
        -24    2    1    2    0    0 -0.25108671024E+02 -0.39134523608E+03 -0.38928243343E+02  0.40836220475E+03  0.10706420025E+03 0.  0.
        254    2    1    2    0    0  0.25108671024E+02  0.39134523608E+03  0.31801536084E+03  0.10328621420E+04  0.90104877532E+03 0.  0.
         23    2    4    4    0    0 -0.23891871121E+02 -0.16768364613E+03 -0.19041048835E+03  0.27006640915E+03  0.89392866551E+02 0.  0.
         23    2    4    4    0    0  0.49000542145E+02  0.55902888221E+03  0.50842584920E+03  0.76279573286E+03  0.91902892580E+02 0.  0.
          1    1    3    3  502    0 -0.33235376877E+02 -0.12174612359E+03 -0.56070637435E+02  0.13809643466E+03  0.00000000000E+00 0. -1.
         -2    1    3    3    0  502  0.81267058524E+01 -0.26959911249E+03  0.17142394092E+02  0.27026577008E+03  0.00000000000E+00 0.  1.
         13    1    5    5    0    0  0.20753375007E+02 -0.19459392750E+02 -0.64600982623E+02  0.70587941578E+02  0.00000000000E+00 0.  1.
        -13    1    5    5    0    0 -0.44645246128E+02 -0.14822425338E+03 -0.12580950573E+03  0.19947846757E+03  0.00000000000E+00 0. -1.
          1    1    6    6  503    0  0.50430060330E+02  0.28176486830E+03  0.20704050162E+03  0.35327100264E+03  0.00000000000E+00 0. -1.
         -1    1    6    6    0  503 -0.14295181850E+01  0.27726401391E+03  0.30138534757E+03  0.40952473022E+03  0.00000000000E+00 0.  1.
<mgrwt>
<rscale>  0 0.14139441E+04</rscale>
<asrwt>0</asrwt>
<pdfrwt beam="1">  1        1 0.13233165E+00 0.14139441E+04</pdfrwt>
<pdfrwt beam="2">  1       -2 0.89395171E-01 0.14139441E+04</pdfrwt>
<totfact> 0.17991401E+01</totfact>
</mgrwt>
</event>
<event>
12    5  0.5029243E-008  0.2207733E+04  0.7818608E-02  0.8515216E-01
         -2   -1    0    0    0  501 -0.00000000000E+00  0.00000000000E+00  0.52101563000E+03  0.52101563000E+03  0.00000000000E+00 0.  1.
          1   -1    0    0  501    0  0.00000000000E+00 -0.00000000000E+00 -0.23387424217E+04  0.23387424217E+04  0.00000000000E+00 0. -1.
        -24    2    1    2    0    0 -0.25591394715E+03 -0.37348661048E+03  0.27504911198E+03  0.53569226859E+03  0.79561272425E+02 0.  0.
        254    2    1    2    0    0  0.25591394715E+03  0.37348661048E+03 -0.20927759036E+04  0.23240657831E+04  0.90365180497E+03 0.  0.
         23    2    4    4    0    0 -0.32068689756E+03  0.24107115855E+03 -0.81981791832E+03  0.91730200097E+03  0.91575935898E+02 0.  0.
         23    2    4    4    0    0  0.57660084471E+03  0.13241545193E+03 -0.12729579853E+04  0.14067637821E+04  0.92519836811E+02 0.  0.
          1    1    3    3  502    0 -0.14076948637E+03 -0.23295603221E+03  0.12258215973E+03  0.29851456769E+03  0.00000000000E+00 0. -1.
         -2    1    3    3    0  502 -0.11514446077E+03 -0.14053057827E+03  0.15246695225E+03  0.23717770090E+03  0.00000000000E+00 0.  1.
         13    1    5    5    0    0 -0.10764593558E+02 -0.69490222479E+01 -0.13734380531E+02  0.18782933563E+02  0.00000000000E+00 0. -1.
        -13    1    5    5    0    0 -0.30992230400E+03  0.24802018080E+03 -0.80608353779E+03  0.89851906741E+03  0.00000000000E+00 0.  1.
          2    1    6    6  503    0  0.32736509231E+03  0.12103908538E+03 -0.76345266260E+03  0.83945120876E+03  0.00000000000E+00 0.  1.
         -2    1    6    6    0  503  0.24923575240E+03  0.11376366543E+02 -0.50950532273E+03  0.56731257335E+03  0.00000000000E+00 0. -1.
<mgrwt>
<rscale>  0 0.22077331E+04</rscale>
<asrwt>0</asrwt>
<pdfrwt beam="1">  1        1 0.35980653E+00 0.22077331E+04</pdfrwt>
<pdfrwt beam="2">  1       -2 0.80156250E-01 0.22077331E+04</pdfrwt>
<totfact> 0.19287066E+00</totfact>
</mgrwt>
</event>
<event>
12    5  0.5029243E-008  0.2757484E+04  0.7818608E-02  0.8316591E-01
         -2   -1    0    0    0  501 -0.00000000000E+00  0.00000000000E+00  0.71122796459E+03  0.71122796459E+03  0.00000000000E+00 0.  1.
          1   -1    0    0  501    0  0.00000000000E+00 -0.00000000000E+00 -0.26727425343E+04  0.26727425343E+04  0.00000000000E+00 0. -1.
        -24    2    1    2    0    0  0.11977946311E+04 -0.16989603097E+03 -0.59205690350E+03  0.13503585413E+04  0.96747988745E+02 0.  0.
        254    2    1    2    0    0 -0.11977946311E+04  0.16989603097E+03 -0.13694576663E+04  0.20336119576E+04  0.89251703335E+03 0.  0.
         23    2    4    4    0    0 -0.12900541726E+04  0.12478100958E+03 -0.13804189375E+04  0.18957334333E+04  0.91862607709E+02 0.  0.
         23    2    4    4    0    0  0.92259541486E+02  0.45115021391E+02  0.10961271200E+02  0.13787852430E+03  0.91340844352E+02 0.  0.
          3    1    3    3  502    0  0.41988707042E+02 -0.19557566618E+02 -0.37583392256E+02  0.59649487044E+02  0.00000000000E+00 0. -1.
         -4    1    3    3    0  502  0.11558059241E+04 -0.15033846436E+03 -0.55447351125E+03  0.12907090543E+04  0.00000000000E+00 0.  1.
         13    1    5    5    0    0 -0.25517484411E+03  0.24167640584E+02 -0.22162496418E+03  0.33884495077E+03  0.00000000000E+00 0. -1.
        -13    1    5    5    0    0 -0.10348793285E+04  0.10061336900E+03 -0.11587939733E+04  0.15568884826E+04  0.00000000000E+00 0.  1.
          1    1    6    6  503    0  0.23520508748E+02 -0.33226685054E+01 -0.34806444022E+02  0.42139565769E+02  0.00000000000E+00 0. -1.
         -1    1    6    6    0  503  0.68739032737E+02  0.48437689896E+02  0.45767715222E+02  0.95738958532E+02  0.00000000000E+00 0.  1.
<mgrwt>
<rscale>  0 0.27574838E+04</rscale>
<asrwt>0</asrwt>
<pdfrwt beam="1">  1        1 0.41119116E+00 0.27574838E+04</pdfrwt>
<pdfrwt beam="2">  1       -2 0.10941969E+00 0.27574838E+04</pdfrwt>
<totfact> 0.52151603E-01</totfact>
</mgrwt>
</event>
<event>
12    5  0.5029243E-008  0.1869567E+04  0.7818608E-02  0.8670155E-01
          3   -1    0    0  501    0  0.00000000000E+00  0.00000000000E+00  0.64328326004E+03  0.64328326004E+03  0.00000000000E+00 0. -1.
         -4   -1    0    0    0  501 -0.00000000000E+00 -0.00000000000E+00 -0.13583755563E+04  0.13583755563E+04  0.00000000000E+00 0.  1.
        -24    2    1    2    0    0  0.11295686730E+03  0.67986782936E+03 -0.47509687022E+03  0.84180530481E+03  0.89104522059E+02 0.  0.
        254    2    1    2    0    0 -0.11295686730E+03 -0.67986782936E+03 -0.23999542610E+03  0.11598535116E+04  0.90148923705E+03 0.  0.
         23    2    4    4    0    0 -0.70069933911E+02 -0.88979535230E+03 -0.14557919286E+03  0.90890198964E+03  0.90906329631E+02 0.  0.
         23    2    4    4    0    0 -0.42886933387E+02  0.20992752295E+03 -0.94416233234E+02  0.25095152193E+03  0.90296109089E+02 0.  0.
          3    1    3    3  502    0  0.74698136056E+02  0.41818364827E+03 -0.34405174449E+03  0.54665252044E+03  0.00000000000E+00 0. -1.
         -4    1    3    3    0  502  0.38258731242E+02  0.26168418109E+03 -0.13104512572E+03  0.29515278437E+03  0.00000000000E+00 0.  1.
         13    1    5    5    0    0 -0.46252980420E+02 -0.33307877516E+03 -0.94717727921E+02  0.34935978109E+03  0.00000000000E+00 0.  1.
        -13    1    5    5    0    0 -0.23816953491E+02 -0.55671657714E+03 -0.50861464940E+02  0.55954220855E+03  0.00000000000E+00 0. -1.
          2    1    6    6  503    0 -0.36262219593E+02  0.24178766606E+02 -0.34753017961E+02  0.55743462234E+02  0.00000000000E+00 0.  1.
         -2    1    6    6    0  503 -0.66247137940E+01  0.18574875634E+03 -0.59663215273E+02  0.19520805970E+03  0.00000000000E+00 0. -1.
<mgrwt>
<rscale>  0 0.18695671E+04</rscale>
<asrwt>0</asrwt>
<pdfrwt beam="1">  1        3 0.98966656E-01 0.18695671E+04</pdfrwt>
<pdfrwt beam="2">  1       -4 0.20898085E+00 0.18695671E+04</pdfrwt>
<totfact> 0.22100395E-01</totfact>
</mgrwt>
</event>
<event>
12    5  0.5029243E-008  0.3830028E+04  0.7818608E-02  0.8039741E-01
         -2   -1    0    0    0  501 -0.00000000000E+00  0.00000000000E+00  0.13222653061E+04  0.13222653061E+04  0.00000000000E+00 0.  1.
          1   -1    0    0  501    0  0.00000000000E+00 -0.00000000000E+00 -0.27734821141E+04  0.27734821141E+04  0.00000000000E+00 0. -1.
        -24    2    1    2    0    0 -0.16630143726E+04 -0.83217626043E+02  0.69959134299E+02  0.16684161606E+04  0.78588980738E+02 0.  0.
        254    2    1    2    0    0  0.16630143726E+04  0.83217626043E+02 -0.15211759423E+04  0.24273312596E+04  0.89745129116E+03 0.  0.
         23    2    4    4    0    0  0.10834450847E+04  0.30253710844E+03 -0.13841262579E+04  0.17858667851E+04  0.90181609755E+02 0.  0.
         23    2    4    4    0    0  0.57956928789E+03 -0.21931948240E+03 -0.13704968439E+03  0.64146447457E+03  0.93233370201E+02 0.  0.
          3    1    3    3  502    0 -0.88885727289E+02 -0.74916485125E+01  0.21336590274E+02  0.91717214293E+02  0.00000000000E+00 0. -1.
         -4    1    3    3    0  502 -0.15741286453E+04 -0.75725977531E+02  0.48622544025E+02  0.15766989463E+04  0.00000000000E+00 0.  1.
         13    1    5    5    0    0  0.86682289418E+03  0.20757519355E+03 -0.10687505594E+04  0.13916526683E+04  0.00000000000E+00 0.  1.
        -13    1    5    5    0    0  0.21662219049E+03  0.94961914896E+02 -0.31537569845E+03  0.39421411678E+03  0.00000000000E+00 0. -1.
          3    1    6    6  503    0  0.19074735891E+03 -0.27846430350E+02 -0.53741787388E+02  0.20012035960E+03  0.00000000000E+00 0. -1.
         -3    1    6    6    0  503  0.38882192898E+03 -0.19147305205E+03 -0.83307897004E+02  0.44134411497E+03  0.00000000000E+00 0.  1.
<mgrwt>
<rscale>  0 0.38300283E+04</rscale>
<asrwt>0</asrwt>
<pdfrwt beam="1">  1        1 0.42668956E+00 0.38300283E+04</pdfrwt>
<pdfrwt beam="2">  1       -2 0.20342543E+00 0.38300283E+04</pdfrwt>
<totfact> 0.76793439E-02</totfact>
</mgrwt>
</event>
<event>
12    5  0.5029243E-008  0.1493549E+04  0.7818608E-02  0.8888754E-01
         -2   -1    0    0    0  501 -0.00000000000E+00  0.00000000000E+00  0.34283545445E+03  0.34283545445E+03  0.00000000000E+00 0.  1.
          1   -1    0    0  501    0  0.00000000000E+00 -0.00000000000E+00 -0.16266475003E+04  0.16266475003E+04  0.00000000000E+00 0. -1.
        -24    2    1    2    0    0  0.12935382422E+03 -0.39814708334E+03 -0.69465850235E+03  0.81494581920E+03  0.79578524318E+02 0.  0.
        254    2    1    2    0    0 -0.12935382422E+03  0.39814708334E+03 -0.58915354349E+03  0.11545371355E+04  0.90033359802E+03 0.  0.
         23    2    4    4    0    0  0.21055691814E+03  0.51592658636E+03 -0.16012570043E+03  0.58699212149E+03  0.91679073208E+02 0.  0.
         23    2    4    4    0    0 -0.33991074237E+03 -0.11777950302E+03 -0.42902784306E+03  0.56754501405E+03  0.92903868305E+02 0.  0.
          1    1    3    3  502    0  0.13269339750E+03 -0.30147660171E+03 -0.53415028589E+03  0.62754458569E+03  0.00000000000E+00 0. -1.
         -2    1    3    3    0  502 -0.33395732786E+01 -0.96670481629E+02 -0.16050821646E+03  0.18740123351E+03  0.00000000000E+00 0.  1.
         13    1    5    5    0    0  0.22837259431E+02  0.11717113610E+03 -0.65690240026E+02  0.13625646109E+03  0.00000000000E+00 0. -1.
        -13    1    5    5    0    0  0.18771965871E+03  0.39875545026E+03 -0.94435460406E+02  0.45073566041E+03  0.00000000000E+00 0.  1.
          3    1    6    6  503    0 -0.21393866435E+03 -0.56501120680E+02 -0.19572338356E+03  0.29541457583E+03  0.00000000000E+00 0. -1.
         -3    1    6    6    0  503 -0.12597207801E+03 -0.61278382344E+02 -0.23330445950E+03  0.27213043822E+03  0.00000000000E+00 0.  1.
<mgrwt>
<rscale>  0 0.14935494E+04</rscale>
<asrwt>0</asrwt>
<pdfrwt beam="1">  1        1 0.25025346E+00 0.14935494E+04</pdfrwt>
<pdfrwt beam="2">  1       -2 0.52743916E-01 0.14935494E+04</pdfrwt>
<totfact> 0.15409838E+01</totfact>
</mgrwt>
</event>
<event>
12    5  0.5029243E-008  0.1153138E+04  0.7818608E-02  0.9154894E-01
         -2   -1    0    0    0  501 -0.00000000000E+00  0.00000000000E+00  0.12027418117E+04  0.12027418117E+04  0.00000000000E+00 0.  1.
          1   -1    0    0  501    0  0.00000000000E+00 -0.00000000000E+00 -0.27639488918E+03  0.27639488918E+03  0.00000000000E+00 0. -1.
        -24    2    1    2    0    0 -0.99586695819E+02  0.12541615162E+03 -0.69505888713E+01  0.17934453444E+03  0.80432768682E+02 0.  0.
        254    2    1    2    0    0  0.99586695819E+02 -0.12541615162E+03  0.93329751143E+03  0.12997921665E+04  0.89037560058E+03 0.  0.
         23    2    4    4    0    0 -0.29922182154E+03 -0.19230200255E+03  0.77315568564E+03  0.85583273262E+03  0.90366992382E+02 0.  0.
         23    2    4    4    0    0  0.39880851736E+03  0.66885850933E+02  0.16014182578E+03  0.44395943385E+03  0.89065279211E+02 0.  0.
          3    1    3    3  502    0 -0.59683152006E+02  0.25363188279E+02 -0.26163460401E+02  0.69927795713E+02  0.00000000000E+00 0. -1.
         -4    1    3    3    0  502 -0.39903543813E+02  0.10005296334E+03  0.19212871530E+02  0.10941673873E+03  0.00000000000E+00 0.  1.
         13    1    5    5    0    0 -0.17033424526E+03 -0.87539650065E+02  0.31676200853E+03  0.37015552879E+03  0.00000000000E+00 0. -1.
        -13    1    5    5    0    0 -0.12888757628E+03 -0.10476235249E+03  0.45639367711E+03  0.48567720383E+03  0.00000000000E+00 0.  1.
          1    1    6    6  503    0  0.29693753189E+03  0.24837054420E+02  0.14911055278E+03  0.33320074139E+03  0.00000000000E+00 0. -1.
         -1    1    6    6    0  503  0.10187098547E+03  0.42048796513E+02  0.11031273005E+02  0.11075869245E+03  0.00000000000E+00 0.  1.
<mgrwt>
<rscale>  0 0.11531378E+04</rscale>
<asrwt>0</asrwt>
<pdfrwt beam="1">  1        1 0.42522291E-01 0.11531378E+04</pdfrwt>
<pdfrwt beam="2">  1       -2 0.18503720E+00 0.11531378E+04</pdfrwt>
<totfact> 0.14141429E+01</totfact>
</mgrwt>
</event>
<event>
12    5  0.5029243E-008  0.1189327E+04  0.7818608E-02  0.9122250E-01
          1   -1    0    0  501    0  0.00000000000E+00  0.00000000000E+00  0.51205137428E+03  0.51205137428E+03  0.00000000000E+00 0. -1.
         -2   -1    0    0    0  501 -0.00000000000E+00 -0.00000000000E+00 -0.69060376752E+03  0.69060376752E+03  0.00000000000E+00 0.  1.
        -24    2    1    2    0    0 -0.20684593093E+03  0.83478512025E+02  0.57748332486E+02  0.24305696754E+03  0.77381641566E+02 0.  0.
        254    2    1    2    0    0  0.20684593093E+03 -0.83478512025E+02 -0.23630072572E+03  0.95959817426E+03  0.90290460291E+03 0.  0.
         23    2    4    4    0    0  0.47729219890E+03 -0.22322142739E+03  0.41571615004E+02  0.53708763901E+03  0.95390167317E+02 0.  0.
         23    2    4    4    0    0 -0.27044626797E+03  0.13974291537E+03 -0.27787234073E+03  0.42251053525E+03  0.92913122846E+02 0.  0.
          1    1    3    3  502    0 -0.19115524556E+03  0.95877255406E+02  0.61903738664E+02  0.22263164391E+03  0.00000000000E+00 0. -1.
         -2    1    3    3    0  502 -0.15690685371E+02 -0.12398743381E+02 -0.41554061781E+01  0.20425323629E+02  0.00000000000E+00 0.  1.
         13    1    5    5    0    0  0.42973013092E+03 -0.17488584139E+03  0.14822302168E+02  0.46419041737E+03  0.00000000000E+00 0. -1.
        -13    1    5    5    0    0  0.47562067984E+02 -0.48335586003E+02  0.26749312836E+02  0.72897221637E+02  0.00000000000E+00 0.  1.
          2    1    6    6  503    0 -0.17277212897E+03  0.42640417872E+02 -0.18306014995E+03  0.25530262883E+03  0.00000000000E+00 0. -1.
         -2    1    6    6    0  503 -0.97674139002E+02  0.97102497496E+02 -0.94812190779E+02  0.16720790642E+03  0.00000000000E+00 0.  1.
<mgrwt>
<rscale>  0 0.11893269E+04</rscale>
<asrwt>0</asrwt>
<pdfrwt beam="1">  1        1 0.78777135E-01 0.11893269E+04</pdfrwt>
<pdfrwt beam="2">  1       -2 0.10624673E+00 0.11893269E+04</pdfrwt>
<totfact> 0.26540986E+01</totfact>
</mgrwt>
</event>
<event>
12    5  0.5029243E-008  0.1253735E+04  0.7818608E-02  0.9067080E-01
         -2   -1    0    0    0  501 -0.00000000000E+00  0.00000000000E+00  0.14736115560E+03  0.14736115560E+03  0.00000000000E+00 0.  1.
          1   -1    0    0  501    0  0.00000000000E+00 -0.00000000000E+00 -0.26666648580E+04  0.26666648580E+04  0.00000000000E+00 0. -1.
        -24    2    1    2    0    0 -0.10536673073E+03  0.11303411361E+03 -0.49229082413E+02  0.18133219885E+03  0.81111065825E+02 0.  0.
        254    2    1    2    0    0  0.10536673073E+03 -0.11303411361E+03 -0.24700746200E+04  0.26326938148E+04  0.89773561539E+03 0.  0.
         23    2    4    4    0    0  0.42254094479E+03 -0.27669953903E+03 -0.17441754970E+04  0.18180411594E+04  0.89565662930E+02 0.  0.
         23    2    4    4    0    0 -0.31717421406E+03  0.16366542541E+03 -0.72589912296E+03  0.81465265534E+03  0.96662084568E+02 0.  0.
          1    1    3    3  502    0 -0.13155516140E+02  0.67560972036E+02 -0.35984129309E+02  0.77668591525E+02  0.00000000000E+00 0. -1.
         -2    1    3    3    0  502 -0.92211214586E+02  0.45473141578E+02 -0.13244953104E+02  0.10366360732E+03  0.00000000000E+00 0.  1.
         13    1    5    5    0    0  0.59554969303E+02 -0.43314997458E+02 -0.38579961174E+03  0.39276497272E+03  0.00000000000E+00 0.  1.
        -13    1    5    5    0    0  0.36298597548E+03 -0.23338454157E+03 -0.13583758853E+04  0.14252761867E+04  0.00000000000E+00 0. -1.
          1    1    6    6  503    0 -0.15781339588E+03  0.47361361033E+02 -0.41414305779E+03  0.44571587222E+03  0.00000000000E+00 0. -1.
         -1    1    6    6    0  503 -0.15936081818E+03  0.11630406438E+03 -0.31175606518E+03  0.36893678312E+03  0.00000000000E+00 0.  1.
<mgrwt>
<rscale>  0 0.12537349E+04</rscale>
<asrwt>0</asrwt>
<pdfrwt beam="1">  1        1 0.41025612E+00 0.12537349E+04</pdfrwt>
<pdfrwt beam="2">  1       -2 0.22670948E-01 0.12537349E+04</pdfrwt>
<totfact> 0.15454245E+01</totfact>
</mgrwt>
</event>
<event>
12    5  0.5029243E-008  0.1851770E+04  0.7818608E-02  0.8679243E-01
         -2   -1    0    0    0  501 -0.00000000000E+00  0.00000000000E+00  0.13585179780E+04  0.13585179780E+04  0.00000000000E+00 0.  1.
          1   -1    0    0  501    0  0.00000000000E+00 -0.00000000000E+00 -0.63102817010E+03  0.63102817010E+03  0.00000000000E+00 0. -1.
        -24    2    1    2    0    0  0.52575588213E+03 -0.30270070912E+03 -0.10033456771E+03  0.62054558527E+03  0.83443579877E+02 0.  0.
        254    2    1    2    0    0 -0.52575588213E+03  0.30270070912E+03  0.82782437561E+03  0.13690005628E+04  0.90599248192E+03 0.  0.
         23    2    4    4    0    0  0.99958396413E+02 -0.86026225359E+02  0.55422141638E+03  0.57669091619E+03  0.89547987021E+02 0.  0.
         23    2    4    4    0    0 -0.62571427854E+03  0.38872693448E+03  0.27360295923E+03  0.79230964664E+03  0.10133611848E+03 0.  0.
          1    1    3    3  502    0  0.33550885538E+03 -0.15108189076E+03 -0.78971089788E+02  0.37633543917E+03  0.00000000000E+00 0. -1.
         -2    1    3    3    0  502  0.19024702675E+03 -0.15161881836E+03 -0.21363477925E+02  0.24421014610E+03  0.00000000000E+00 0.  1.
         13    1    5    5    0    0  0.24404009813E+02  0.90514317876E+01  0.21137215581E+03  0.21296871217E+03  0.00000000000E+00 0. -1.
        -13    1    5    5    0    0  0.75554386599E+02 -0.95077657146E+02  0.34284926057E+03  0.36372220402E+03  0.00000000000E+00 0.  1.
          2    1    6    6  503    0 -0.30974175901E+03  0.13620200716E+03  0.10728295205E+03  0.35496559809E+03  0.00000000000E+00 0. -1.
         -2    1    6    6    0  503 -0.31597251953E+03  0.25252492732E+03  0.16632000718E+03  0.43734404855E+03  0.00000000000E+00 0.  1.
<mgrwt>
<rscale>  0 0.18517701E+04</rscale>
<asrwt>0</asrwt>
<pdfrwt beam="1">  1        1 0.97081257E-01 0.18517701E+04</pdfrwt>
<pdfrwt beam="2">  1       -2 0.20900277E+00 0.18517701E+04</pdfrwt>
<totfact> 0.30396316E+00</totfact>
</mgrwt>
</event>
<event>
12    5  0.5029243E-008  0.1376039E+04  0.7818608E-02  0.8971348E-01
         -2   -1    0    0    0  501 -0.00000000000E+00  0.00000000000E+00  0.86260331006E+03  0.86260331006E+03  0.00000000000E+00 0.  1.
          1   -1    0    0  501    0  0.00000000000E+00 -0.00000000000E+00 -0.54877016291E+03  0.54877016291E+03  0.00000000000E+00 0. -1.
        -24    2    1    2    0    0 -0.11431092306E+03 -0.17208552471E+03 -0.24728913001E+03  0.33151051268E+03  0.77890251315E+02 0.  0.
        254    2    1    2    0    0  0.11431092306E+03  0.17208552471E+03  0.56112227716E+03  0.10798629603E+04  0.89920264020E+03 0.  0.
         23    2    4    4    0    0  0.13572657060E+03  0.23964835909E+03  0.77818525751E+03  0.83141258889E+03  0.99103783926E+02 0.  0.
         23    2    4    4    0    0 -0.21415647536E+02 -0.67562834378E+02 -0.21706298035E+03  0.24845037140E+03  0.97917736202E+02 0.  0.
          1    1    3    3  502    0 -0.57253949854E+02 -0.14804439463E+03 -0.17246570507E+03  0.23439193029E+03  0.00000000000E+00 0. -1.
         -2    1    3    3    0  502 -0.57056973207E+02 -0.24041130074E+02 -0.74823424933E+02  0.97118582390E+02  0.00000000000E+00 0.  1.
         13    1    5    5    0    0  0.12494582779E+03  0.15239182794E+03  0.44236837543E+03  0.48427730556E+03  0.00000000000E+00 0. -1.
        -13    1    5    5    0    0  0.10780742812E+02  0.87256531146E+02  0.33581688208E+03  0.34713528333E+03  0.00000000000E+00 0.  1.
          2    1    6    6  503    0  0.16275101771E+02  0.60427041880E+01 -0.13303791684E+01  0.17411580063E+02  0.00000000000E+00 0. -1.
         -2    1    6    6    0  503 -0.37690749307E+02 -0.73605538566E+02 -0.21573260118E+03  0.23103879134E+03  0.00000000000E+00 0.  1.
<mgrwt>
<rscale>  0 0.13760392E+04</rscale>
<asrwt>0</asrwt>
<pdfrwt beam="1">  1        1 0.84426178E-01 0.13760392E+04</pdfrwt>
<pdfrwt beam="2">  1       -2 0.13270820E+00 0.13760392E+04</pdfrwt>
<totfact> 0.13698241E+01</totfact>
</mgrwt>
</event>
<event>
12    5  0.5029243E-008  0.1136645E+04  0.7818608E-02  0.9170194E-01
         -2   -1    0    0    0  501 -0.00000000000E+00  0.00000000000E+00  0.17267305649E+04  0.17267305649E+04  0.00000000000E+00 0.  1.
          1   -1    0    0  501    0  0.00000000000E+00 -0.00000000000E+00 -0.18705308685E+03  0.18705308685E+03  0.00000000000E+00 0. -1.
        -24    2    1    2    0    0  0.53666256262E+02  0.42939245348E+02 -0.20097559520E+02  0.10893735305E+03  0.82095000693E+02 0.  0.
        254    2    1    2    0    0 -0.53666256262E+02 -0.42939245348E+02  0.15597750376E+04  0.18048462987E+04  0.90545466383E+03 0.  0.
         23    2    4    4    0    0 -0.24906820667E+03  0.28329427598E+03  0.31399746634E+03  0.49904589050E+03  0.90342534746E+02 0.  0.
         23    2    4    4    0    0  0.19540195040E+03 -0.32623352133E+03  0.12457775712E+04  0.13058004082E+04  0.92426816498E+02 0.  0.
          3    1    3    3  502    0 -0.14134350043E+01  0.96926306926E+01 -0.40324193359E+02  0.41496812628E+02  0.00000000000E+00 0. -1.
         -4    1    3    3    0  502  0.55079691266E+02  0.33246614656E+02  0.20226633839E+02  0.67440540422E+02  0.00000000000E+00 0.  1.
         13    1    5    5    0    0 -0.54057939645E+01 -0.79907962829E+00  0.26608097796E+02  0.27163431391E+02  0.00000000000E+00 0. -1.
        -13    1    5    5    0    0 -0.24366241270E+03  0.28409335561E+03  0.28738936854E+03  0.47188245911E+03  0.00000000000E+00 0.  1.
          1    1    6    6  503    0  0.68112099908E+02 -0.10682588374E+03  0.57185856886E+03  0.58572455162E+03  0.00000000000E+00 0. -1.
         -1    1    6    6    0  503  0.12728985050E+03 -0.21940763759E+03  0.67391900236E+03  0.72007585657E+03  0.00000000000E+00 0.  1.
<mgrwt>
<rscale>  0 0.11366447E+04</rscale>
<asrwt>0</asrwt>
<pdfrwt beam="1">  1        1 0.28777399E-01 0.11366447E+04</pdfrwt>
<pdfrwt beam="2">  1       -2 0.26565085E+00 0.11366447E+04</pdfrwt>
<totfact> 0.72865993E+00</totfact>
</mgrwt>
</event>
<event>
12    5  0.5029243E-008  0.1694298E+04  0.7818608E-02  0.8764623E-01
          1   -1    0    0  501    0  0.00000000000E+00  0.00000000000E+00  0.11834009312E+04  0.11834009312E+04  0.00000000000E+00 0. -1.
         -2   -1    0    0    0  501 -0.00000000000E+00 -0.00000000000E+00 -0.60643978344E+03  0.60643978344E+03  0.00000000000E+00 0.  1.
        -24    2    1    2    0    0  0.59386816582E+03 -0.18144878542E+02  0.87492319573E+02  0.60644497135E+03  0.84332451005E+02 0.  0.
        254    2    1    2    0    0 -0.59386816582E+03  0.18144878542E+02  0.48946882815E+03  0.11833957433E+04  0.89879759481E+03 0.  0.
         23    2    4    4    0    0 -0.70239588429E+02  0.18790611040E+03 -0.19935306302E+03  0.29723386417E+03  0.91455017175E+02 0.  0.
         23    2    4    4    0    0 -0.52362857740E+03 -0.16976123186E+03  0.68882189117E+03  0.88616187909E+03  0.88326186864E+02 0.  0.
          1    1    3    3  502    0  0.13713872890E+03 -0.13452351316E+02  0.55560966148E+02  0.14857663908E+03  0.00000000000E+00 0. -1.
         -2    1    3    3    0  502  0.45672943693E+03 -0.46925272262E+01  0.31931353426E+02  0.45786833227E+03  0.00000000000E+00 0.  1.
         13    1    5    5    0    0 -0.71605785060E+02  0.15951993720E+03 -0.11770323919E+03  0.21077962742E+03  0.00000000000E+00 0. -1.
        -13    1    5    5    0    0  0.13661966312E+01  0.28386173207E+02 -0.81649823822E+02  0.86454236754E+02  0.00000000000E+00 0.  1.
          3    1    6    6  503    0 -0.48876766623E+03 -0.15711853275E+03  0.67138264561E+03  0.84518324741E+03  0.00000000000E+00 0. -1.
         -3    1    6    6    0  503 -0.34860911167E+02 -0.12642699107E+02  0.17439245561E+02  0.40978631674E+02  0.00000000000E+00 0.  1.
<mgrwt>
<rscale>  0 0.16942980E+04</rscale>
<asrwt>0</asrwt>
<pdfrwt beam="1">  1        1 0.18206168E+00 0.16942980E+04</pdfrwt>
<pdfrwt beam="2">  1       -2 0.93298428E-01 0.16942980E+04</pdfrwt>
<totfact> 0.89214002E+00</totfact>
</mgrwt>
</event>
<event>
12    5  0.5029243E-008  0.1113182E+04  0.7818608E-02  0.9192438E-01
         -2   -1    0    0    0  501 -0.00000000000E+00  0.00000000000E+00  0.30636880695E+03  0.30636880695E+03  0.00000000000E+00 0.  1.
          1   -1    0    0  501    0  0.00000000000E+00 -0.00000000000E+00 -0.10111787859E+04  0.10111787859E+04  0.00000000000E+00 0. -1.
        -24    2    1    2    0    0  0.13815158735E+02 -0.16840656880E+03 -0.15533555958E+03  0.24359279919E+03  0.81588508516E+02 0.  0.
        254    2    1    2    0    0 -0.13815158735E+02  0.16840656880E+03 -0.54947441941E+03  0.10739547937E+04  0.90714118543E+03 0.  0.
         23    2    4    4    0    0 -0.32378358409E+03  0.17637689353E+02 -0.62379482432E+03  0.70927493961E+03  0.93829950943E+02 0.  0.
         23    2    4    4    0    0  0.30996842535E+03  0.15076887945E+03  0.74320404913E+02  0.36467985410E+03  0.93038667612E+02 0.  0.
          3    1    3    3  502    0 -0.32650544302E+02 -0.57214153704E+02 -0.68647764495E+02  0.95142172550E+02  0.00000000000E+00 0. -1.
         -4    1    3    3    0  502  0.46465703037E+02 -0.11119241510E+03 -0.86687795086E+02  0.14845062664E+03  0.00000000000E+00 0.  1.
         13    1    5    5    0    0 -0.29820223356E+03  0.43298889585E+02 -0.55774198763E+03  0.63393650369E+03  0.00000000000E+00 0.  1.
        -13    1    5    5    0    0 -0.25581350530E+02 -0.25661200232E+02 -0.66052836692E+02  0.75338435923E+02  0.00000000000E+00 0. -1.
          4    1    6    6  503    0 -0.12354801843E+01 -0.67123250294E+01 -0.29607871988E+01  0.74396222635E+01  0.00000000000E+00 0. -1.
         -4    1    6    6    0  503  0.31120390554E+03  0.15748120448E+03  0.77281192112E+02  0.35724023183E+03  0.00000000000E+00 0.  1.
<mgrwt>
<rscale>  0 0.11131822E+04</rscale>
<asrwt>0</asrwt>
<pdfrwt beam="1">  1        1 0.15556597E+00 0.11131822E+04</pdfrwt>
<pdfrwt beam="2">  1       -2 0.47133663E-01 0.11131822E+04</pdfrwt>
<totfact> 0.55216166E+01</totfact>
</mgrwt>
</event>
<event>
12    5  0.5029243E-008  0.1568179E+04  0.7818608E-02  0.8840339E-01
          3   -1    0    0  501    0  0.00000000000E+00  0.00000000000E+00  0.20754356519E+04  0.20754356519E+04  0.00000000000E+00 0. -1.
         -4   -1    0    0    0  501 -0.00000000000E+00 -0.00000000000E+00 -0.29622524497E+03  0.29622524497E+03  0.00000000000E+00 0.  1.
        -24    2    1    2    0    0  0.35494110941E+03  0.77701799959E+02  0.10236930765E+04  0.10892842413E+04  0.81067149068E+02 0.  0.
        254    2    1    2    0    0 -0.35494110941E+03 -0.77701799959E+02  0.75551733050E+03  0.12823766556E+04  0.97039305918E+03 0.  0.
         23    2    4    4    0    0 -0.54009555102E+03 -0.24954393767E+03  0.80909771221E+03  0.10079366345E+04  0.85567343583E+02 0.  0.
         23    2    4    4    0    0  0.18515444161E+03  0.17184213771E+03 -0.53580381708E+02  0.27444002107E+03  0.92922442490E+02 0.  0.
          3    1    3    3  502    0  0.23274708632E+03  0.84230095987E+02  0.62475041149E+03  0.67199627373E+03  0.00000000000E+00 0. -1.
         -4    1    3    3    0  502  0.12219402309E+03 -0.65282960278E+01  0.39894266497E+03  0.41728796755E+03  0.00000000000E+00 0.  1.
         13    1    5    5    0    0 -0.36940725787E+02  0.14753045556E+01  0.71072679559E+02  0.80113166989E+02  0.00000000000E+00 0. -1.
        -13    1    5    5    0    0 -0.50315482523E+03 -0.25101924223E+03  0.73802503265E+03  0.92782346755E+03  0.00000000000E+00 0.  1.
          1    1    6    6  503    0 -0.17065833410E+01  0.28668447972E+02  0.10317861115E+02  0.30516398769E+02  0.00000000000E+00 0. -1.
         -1    1    6    6    0  503  0.18686102495E+03  0.14317368974E+03 -0.63898242823E+02  0.24392362230E+03  0.00000000000E+00 0.  1.
<mgrwt>
<rscale>  0 0.15681791E+04</rscale>
<asrwt>0</asrwt>
<pdfrwt beam="1">  1        3 0.31929778E+00 0.15681791E+04</pdfrwt>
<pdfrwt beam="2">  1       -4 0.45573116E-01 0.15681791E+04</pdfrwt>
<totfact> 0.31399974E-01</totfact>
</mgrwt>
</event>
<event>
12    5  0.5029243E-008  0.1530546E+04  0.7818608E-02  0.8864391E-01
         -2   -1    0    0    0  501 -0.00000000000E+00  0.00000000000E+00  0.92438907898E+03  0.92438907898E+03  0.00000000000E+00 0.  1.
          1   -1    0    0  501    0  0.00000000000E+00 -0.00000000000E+00 -0.63354559379E+03  0.63354559379E+03  0.00000000000E+00 0. -1.
        -24    2    1    2    0    0  0.42711068622E+03  0.24574482297E+03  0.76699774499E+02  0.50542228033E+03  0.82187406225E+02 0.  0.
        254    2    1    2    0    0 -0.42711068622E+03 -0.24574482297E+03  0.21414371069E+03  0.10525123924E+04  0.90504737507E+03 0.  0.
         23    2    4    4    0    0 -0.52641623216E+03 -0.36186791819E+00  0.44057134319E+03  0.69260040715E+03  0.92076246225E+02 0.  0.
         23    2    4    4    0    0  0.99305545943E+02 -0.24538295505E+03 -0.22642763249E+03  0.35991198529E+03  0.90513967506E+02 0.  0.
          3    1    3    3  502    0  0.30765979512E+03  0.16628387651E+03  0.17309959741E+02  0.35014927078E+03  0.00000000000E+00 0. -1.
         -4    1    3    3    0  502  0.11945089110E+03  0.79460946457E+02  0.59389814758E+02  0.15527300954E+03  0.00000000000E+00 0.  1.
         13    1    5    5    0    0 -0.30162089772E+03 -0.34620910313E+02  0.29019248041E+03  0.41998267709E+03  0.00000000000E+00 0.  1.
        -13    1    5    5    0    0 -0.22479533444E+03  0.34259042395E+02  0.15037886278E+03  0.27261773006E+03  0.00000000000E+00 0. -1.
          1    1    6    6  503    0  0.93027770399E+02 -0.16306164638E+03 -0.11131277104E+03  0.21825168861E+03  0.00000000000E+00 0. -1.
         -1    1    6    6    0  503  0.62777755440E+01 -0.82321308671E+02 -0.11511486145E+03  0.14166029668E+03  0.00000000000E+00 0.  1.
<mgrwt>
<rscale>  0 0.15305458E+04</rscale>
<asrwt>0</asrwt>
<pdfrwt beam="1">  1        1 0.97468553E-01 0.15305458E+04</pdfrwt>
<pdfrwt beam="2">  1       -2 0.14221370E+00 0.15305458E+04</pdfrwt>
<totfact> 0.92064542E+00</totfact>
</mgrwt>
</event>
<event>
12    5  0.5029243E-008  0.2294632E+04  0.7818608E-02  0.8480040E-01
          1   -1    0    0  501    0  0.00000000000E+00  0.00000000000E+00  0.10814743485E+04  0.10814743485E+04  0.00000000000E+00 0. -1.
         -2   -1    0    0    0  501 -0.00000000000E+00 -0.00000000000E+00 -0.12171666538E+04  0.12171666538E+04  0.00000000000E+00 0.  1.
        -24    2    1    2    0    0 -0.73125789239E+03 -0.82950913879E+02  0.57314372636E+03  0.93623007399E+03  0.80087833495E+02 0.  0.
        254    2    1    2    0    0  0.73125789239E+03  0.82950913879E+02 -0.70883603167E+03  0.13624109283E+04  0.90116372460E+03 0.  0.
         23    2    4    4    0    0 -0.87477197588E+02  0.27897863639E+03 -0.11124268828E+03  0.32562635349E+03  0.90422600788E+02 0.  0.
         23    2    4    4    0    0  0.81873508998E+03 -0.19602772251E+03 -0.59759334339E+03  0.10367845748E+04  0.95133774221E+02 0.  0.
          1    1    3    3  502    0 -0.68443756028E+03 -0.96825836381E+02  0.54068858397E+03  0.87759567076E+03  0.00000000000E+00 0. -1.
         -2    1    3    3    0  502 -0.46820332115E+02  0.13874922502E+02  0.32455142392E+02  0.58634403224E+02  0.00000000000E+00 0.  1.
         13    1    5    5    0    0 -0.96952300890E+02  0.17757190173E+03 -0.56787829878E+02  0.21013421081E+03  0.00000000000E+00 0. -1.
        -13    1    5    5    0    0  0.94751033023E+01  0.10140673466E+03 -0.54454858405E+02  0.11549214268E+03  0.00000000000E+00 0.  1.
          3    1    6    6  503    0  0.65017052324E+03 -0.18501439765E+03 -0.50789182436E+03  0.84552122497E+03  0.00000000000E+00 0. -1.
         -3    1    6    6    0  503  0.16856456674E+03 -0.11013324865E+02 -0.89701519027E+02  0.19126334987E+03  0.00000000000E+00 0.  1.
<mgrwt>
<rscale>  0 0.22946324E+04</rscale>
<asrwt>0</asrwt>
<pdfrwt beam="1">  1        1 0.16638067E+00 0.22946324E+04</pdfrwt>
<pdfrwt beam="2">  1       -2 0.18725641E+00 0.22946324E+04</pdfrwt>
<totfact> 0.16796610E+00</totfact>
</mgrwt>
</event>
<event>
12    5  0.5029243E-008  0.2896887E+04  0.7818608E-02  0.8273804E-01
         -4   -1    0    0    0  501 -0.00000000000E+00  0.00000000000E+00  0.20687255260E+04  0.20687255260E+04  0.00000000000E+00 0.  1.
          1   -1    0    0  501    0  0.00000000000E+00 -0.00000000000E+00 -0.10141450974E+04  0.10141450974E+04  0.00000000000E+00 0. -1.
        -24    2    1    2    0    0  0.26598908417E+03  0.95623264709E+03 -0.42884770968E+03  0.10842191606E+04  0.80559058625E+02 0.  0.
        254    2    1    2    0    0 -0.26598908417E+03 -0.95623264709E+03  0.14834281383E+04  0.19986514628E+04  0.89939844342E+03 0.  0.
         23    2    4    4    0    0 -0.25650024091E+02 -0.10584755792E+04  0.11867821628E+04  0.15932186263E+04  0.94155264920E+02 0.  0.
         23    2    4    4    0    0 -0.24033906008E+03  0.10224293207E+03  0.29664597545E+03  0.40543283645E+03  0.90335315133E+02 0.  0.
          3    1    3    3  502    0  0.24036084888E+03  0.75926021825E+03 -0.32597995198E+03  0.86053027011E+03  0.00000000000E+00 0. -1.
         -4    1    3    3    0  502  0.25628235298E+02  0.19697242884E+03 -0.10286775770E+03  0.22368889052E+03  0.00000000000E+00 0.  1.
         13    1    5    5    0    0 -0.53426074824E+02 -0.53309332340E+03  0.63475036315E+03  0.83063280723E+03  0.00000000000E+00 0. -1.
        -13    1    5    5    0    0  0.27776050733E+02 -0.52538225575E+03  0.55203179965E+03  0.76258581909E+03  0.00000000000E+00 0.  1.
          1    1    6    6  503    0 -0.30084712426E+02  0.15796810728E+02  0.30549064743E+01  0.34116881517E+02  0.00000000000E+00 0. -1.
         -1    1    6    6    0  503 -0.21025434766E+03  0.86446121339E+02  0.29359106898E+03  0.37131595493E+03  0.00000000000E+00 0.  1.
<mgrwt>
<rscale>  0 0.28968865E+04</rscale>
<asrwt>0</asrwt>
<pdfrwt beam="1">  1        1 0.15602232E+00 0.28968865E+04</pdfrwt>
<pdfrwt beam="2">  1       -4 0.31826547E+00 0.28968865E+04</pdfrwt>
<totfact> 0.14391049E-01</totfact>
</mgrwt>
</event>
<event>
12    5  0.5029243E-008  0.1823496E+04  0.7818608E-02  0.8693903E-01
          1   -1    0    0  501    0  0.00000000000E+00  0.00000000000E+00  0.15854487461E+04  0.15854487461E+04  0.00000000000E+00 0. -1.
         -2   -1    0    0    0  501 -0.00000000000E+00 -0.00000000000E+00 -0.52432115306E+03  0.52432115306E+03  0.00000000000E+00 0.  1.
        -24    2    1    2    0    0 -0.11042521624E+03  0.72023384197E+02 -0.34750160045E+03  0.38062914523E+03  0.82098036696E+02 0.  0.
        254    2    1    2    0    0  0.11042521624E+03 -0.72023384197E+02  0.14086291935E+04  0.17291407539E+04  0.99413804169E+03 0.  0.
         23    2    4    4    0    0 -0.29610204712E+03  0.30791573828E+03  0.66571797683E+03  0.79644786827E+03  0.93060507206E+02 0.  0.
         23    2    4    4    0    0  0.40652726336E+03 -0.37993912247E+03  0.74291121666E+03  0.93269288567E+03  0.91546657537E+02 0.  0.
          3    1    3    3  502    0 -0.21534974058E+02  0.17387522221E+01 -0.85482107953E+01  0.23234678280E+02  0.00000000000E+00 0. -1.
         -4    1    3    3    0  502 -0.88890242177E+02  0.70284631975E+02 -0.33895338965E+03  0.35739446695E+03  0.00000000000E+00 0.  1.
         13    1    5    5    0    0 -0.86216806160E+02  0.51026649369E+02  0.10631314118E+03  0.14608059624E+03  0.00000000000E+00 0.  1.
        -13    1    5    5    0    0 -0.20988524096E+03  0.25688908891E+03  0.55940483565E+03  0.65036727203E+03  0.00000000000E+00 0. -1.
          3    1    6    6  503    0  0.29281732280E+03 -0.25651119984E+03  0.44911960607E+03  0.59434703729E+03  0.00000000000E+00 0. -1.
         -3    1    6    6    0  503  0.11370994056E+03 -0.12342792264E+03  0.29379161058E+03  0.33834584838E+03  0.00000000000E+00 0.  1.
<mgrwt>
<rscale>  0 0.18234959E+04</rscale>
<asrwt>0</asrwt>
<pdfrwt beam="1">  1        1 0.24391519E+00 0.18234959E+04</pdfrwt>
<pdfrwt beam="2">  1       -2 0.80664794E-01 0.18234959E+04</pdfrwt>
<totfact> 0.64033991E+00</totfact>
</mgrwt>
</event>
<event>
12    5  0.5029243E-008  0.1217509E+04  0.7818608E-02  0.9097667E-01
          1   -1    0    0  501    0  0.00000000000E+00  0.00000000000E+00  0.95601303185E+03  0.95601303185E+03  0.00000000000E+00 0. -1.
         -2   -1    0    0    0  501 -0.00000000000E+00 -0.00000000000E+00 -0.38763290399E+03  0.38763290399E+03  0.00000000000E+00 0.  1.
        -24    2    1    2    0    0 -0.85485573297E+02 -0.50890126510E+02  0.39753284641E+03  0.41728540397E+03  0.78722018386E+02 0.  0.
        254    2    1    2    0    0  0.85485573297E+02  0.50890126510E+02  0.17084728145E+03  0.92636053187E+03  0.90501792977E+03 0.  0.
         23    2    4    4    0    0 -0.11669396519E+03 -0.35806947868E+03  0.23685921678E+03  0.45601745808E+03  0.10009195982E+03 0.  0.
         23    2    4    4    0    0  0.20217953849E+03  0.40895960519E+03 -0.66011935334E+02  0.47034307379E+03  0.93490678665E+02 0.  0.
          1    1    3    3  502    0 -0.56520096892E+02 -0.44876172765E+02  0.13489858513E+03  0.15299026277E+03  0.00000000000E+00 0. -1.
         -2    1    3    3    0  502 -0.28965476405E+02 -0.60139537450E+01  0.26263426128E+03  0.26429514120E+03  0.00000000000E+00 0.  1.
         13    1    5    5    0    0 -0.12506069950E+03 -0.34841521972E+03  0.24198128575E+03  0.44225364504E+03  0.00000000000E+00 0.  1.
        -13    1    5    5    0    0  0.83667343092E+01 -0.96542589540E+01 -0.51220689622E+01  0.13763813040E+02  0.00000000000E+00 0. -1.
          2    1    6    6  503    0  0.11395893996E+03  0.31197402791E+03 -0.68885669147E+02  0.33920446563E+03  0.00000000000E+00 0.  1.
         -2    1    6    6    0  503  0.88220598535E+02  0.96985577277E+02  0.28737338128E+01  0.13113860817E+03  0.00000000000E+00 0. -1.
<mgrwt>
<rscale>  0 0.12175091E+04</rscale>
<asrwt>0</asrwt>
<pdfrwt beam="1">  1        1 0.14707893E+00 0.12175091E+04</pdfrwt>
<pdfrwt beam="2">  1       -2 0.59635831E-01 0.12175091E+04</pdfrwt>
<totfact> 0.37265801E+01</totfact>
</mgrwt>
</event>
<event>
12    5  0.5029243E-008  0.1452009E+04  0.7818608E-02  0.8917009E-01
          1   -1    0    0  501    0  0.00000000000E+00  0.00000000000E+00  0.10298318996E+04  0.10298318996E+04  0.00000000000E+00 0. -1.
         -2   -1    0    0    0  501 -0.00000000000E+00 -0.00000000000E+00 -0.51181380065E+03  0.51181380065E+03  0.00000000000E+00 0.  1.
        -24    2    1    2    0    0 -0.39660146558E+03 -0.45041369288E+02  0.34343631479E+03  0.53268512190E+03  0.80520117592E+02 0.  0.
        254    2    1    2    0    0  0.39660146558E+03  0.45041369288E+02  0.17458178413E+03  0.10089605783E+04  0.91005560368E+03 0.  0.
         23    2    4    4    0    0  0.29457167228E+03  0.37688793180E+03  0.35876024314E+03  0.60521540437E+03  0.93593751790E+02 0.  0.
         23    2    4    4    0    0  0.10202979329E+03 -0.33184656251E+03 -0.18417845901E+03  0.40374517395E+03  0.92499951067E+02 0.  0.
          1    1    3    3  502    0 -0.28270365649E+03 -0.31896642766E+02  0.28979596335E+03  0.40610399356E+03  0.00000000000E+00 0. -1.
         -2    1    3    3    0  502 -0.11389780909E+03 -0.13144726522E+02  0.53640351440E+02  0.12658112834E+03  0.00000000000E+00 0.  1.
         13    1    5    5    0    0  0.17760844644E+03  0.29320375378E+03  0.26830234257E+03  0.43531522889E+03  0.00000000000E+00 0.  1.
        -13    1    5    5    0    0  0.11696322584E+03  0.83684178024E+02  0.90457900573E+02  0.16990017547E+03  0.00000000000E+00 0. -1.
          4    1    6    6  503    0  0.41063975836E+02 -0.26514400417E+03 -0.12734038514E+03  0.29699017954E+03  0.00000000000E+00 0. -1.
         -4    1    6    6    0  503  0.60965817458E+02 -0.66702558347E+02 -0.56838073870E+02  0.10675499440E+03  0.00000000000E+00 0.  1.
<mgrwt>
<rscale>  0 0.14520085E+04</rscale>
<asrwt>0</asrwt>
<pdfrwt beam="1">  1        1 0.15843568E+00 0.14520085E+04</pdfrwt>
<pdfrwt beam="2">  1       -2 0.78740585E-01 0.14520085E+04</pdfrwt>
<totfact> 0.17493772E+01</totfact>
</mgrwt>
</event>
<event>
12    5  0.5029243E-008  0.1782968E+04  0.7818608E-02  0.8715410E-01
          1   -1    0    0  501    0  0.00000000000E+00  0.00000000000E+00  0.74258291871E+03  0.74258291871E+03  0.00000000000E+00 0. -1.
         -2   -1    0    0    0  501 -0.00000000000E+00 -0.00000000000E+00 -0.10702425996E+04  0.10702425996E+04  0.00000000000E+00 0.  1.
        -24    2    1    2    0    0  0.22473742518E+03 -0.38834313486E+03 -0.61484460253E+03  0.76527522684E+03  0.79340953432E+02 0.  0.
        254    2    1    2    0    0 -0.22473742518E+03  0.38834313486E+03  0.28718492162E+03  0.10475502915E+04  0.90198067237E+03 0.  0.
         23    2    4    4    0    0 -0.42874257292E+03  0.59583665646E+02 -0.14129255232E+03  0.46300418286E+03  0.83898039047E+02 0.  0.
         23    2    4    4    0    0  0.20400514774E+03  0.32875946921E+03  0.42847747394E+03  0.58454610863E+03  0.91653251657E+02 0.  0.
          3    1    3    3  502    0  0.15439979401E+02 -0.14835492915E+02 -0.85763201687E+01  0.23065950697E+02  0.00000000000E+00 0. -1.
         -4    1    3    3    0  502  0.20929744578E+03 -0.37350764194E+03 -0.60626828236E+03  0.74220927615E+03  0.00000000000E+00 0.  1.
         13    1    5    5    0    0 -0.97869211120E+01 -0.11740634549E+02 -0.45367728499E+00  0.15291571128E+02  0.00000000000E+00 0.  1.
        -13    1    5    5    0    0 -0.41895565181E+03  0.71324300195E+02 -0.14083887504E+03  0.44771261173E+03  0.00000000000E+00 0. -1.
          2    1    6    6  503    0  0.19572058939E+03  0.29823879529E+03  0.42144370112E+03  0.55214827839E+03  0.00000000000E+00 0. -1.
         -2    1    6    6    0  503  0.82845583557E+01  0.30520673924E+02  0.70337728276E+01  0.32397830238E+02  0.00000000000E+00 0.  1.
<mgrwt>
<rscale>  0 0.17829682E+04</rscale>
<asrwt>0</asrwt>
<pdfrwt beam="1">  1        1 0.11424353E+00 0.17829682E+04</pdfrwt>
<pdfrwt beam="2">  1       -2 0.16465271E+00 0.17829682E+04</pdfrwt>
<totfact> 0.47916817E+00</totfact>
</mgrwt>
</event>
<event>
12    5  0.5029243E-008  0.2517914E+04  0.7818608E-02  0.8396631E-01
          1   -1    0    0  501    0  0.00000000000E+00  0.00000000000E+00  0.26920228650E+04  0.26920228650E+04  0.00000000000E+00 0. -1.
         -2   -1    0    0    0  501 -0.00000000000E+00 -0.00000000000E+00 -0.58876621074E+03  0.58876621074E+03  0.00000000000E+00 0.  1.
        -24    2    1    2    0    0  0.10022645480E+04  0.43789426895E+03  0.78645371579E+03  0.13494604451E+04  0.79047016722E+02 0.  0.
        254    2    1    2    0    0 -0.10022645480E+04 -0.43789426895E+03  0.13168029385E+04  0.19313286306E+04  0.89430122766E+03 0.  0.
         23    2    4    4    0    0 -0.11280043990E+04 -0.23260845252E+03  0.10913869203E+04  0.15891760777E+04  0.88626067321E+02 0.  0.
         23    2    4    4    0    0  0.12573985104E+03 -0.20528581643E+03  0.22541601818E+03  0.34215255290E+03  0.91121960257E+02 0.  0.
          3    1    3    3  502    0  0.30270757271E+03  0.14773813216E+03  0.28415417780E+03  0.44068359061E+03  0.00000000000E+00 0. -1.
         -4    1    3    3    0  502  0.69955697530E+03  0.29015613678E+03  0.50229953799E+03  0.90877685450E+03  0.00000000000E+00 0.  1.
         13    1    5    5    0    0 -0.89841849735E+02 -0.32321708027E+00  0.64626395094E+02  0.11067173702E+03  0.00000000000E+00 0. -1.
        -13    1    5    5    0    0 -0.10381625493E+04 -0.23228523544E+03  0.10267605252E+04  0.14785043407E+04  0.00000000000E+00 0.  1.
          2    1    6    6  503    0  0.76718702058E+02 -0.52296836351E+02  0.11210264200E+03  0.14556002433E+03  0.00000000000E+00 0. -1.
         -2    1    6    6    0  503  0.49021148981E+02 -0.15298898007E+03  0.11331337618E+03  0.19659252858E+03  0.00000000000E+00 0.  1.
<mgrwt>
<rscale>  0 0.25179135E+04</rscale>
<asrwt>0</asrwt>
<pdfrwt beam="1">  1        1 0.41415736E+00 0.25179135E+04</pdfrwt>
<pdfrwt beam="2">  1       -2 0.90579419E-01 0.25179135E+04</pdfrwt>
<totfact> 0.80719716E-01</totfact>
</mgrwt>
</event>
<event>
12    5  0.5029243E-008  0.1285902E+04  0.7818608E-02  0.9040821E-01
          1   -1    0    0  501    0  0.00000000000E+00  0.00000000000E+00  0.77451289154E+03  0.77451289154E+03  0.00000000000E+00 0. -1.
         -2   -1    0    0    0  501 -0.00000000000E+00 -0.00000000000E+00 -0.53373647689E+03  0.53373647689E+03  0.00000000000E+00 0.  1.
        -24    2    1    2    0    0 -0.23390099145E+03  0.38019757215E+02  0.31847872556E+03  0.40406808431E+03  0.75413144632E+02 0.  0.
        254    2    1    2    0    0  0.23390099145E+03 -0.38019757215E+02 -0.77702310907E+02  0.90418128413E+03  0.86910929676E+03 0.  0.
         23    2    4    4    0    0 -0.13632669339E+03 -0.35999081457E+03 -0.79101383396E+02  0.40501655426E+03  0.97995032852E+02 0.  0.
         23    2    4    4    0    0  0.37022768483E+03  0.32197105736E+03  0.13990724885E+01  0.49916472987E+03  0.91812688381E+02 0.  0.
          3    1    3    3  502    0 -0.17910202450E+03  0.61071363427E+02  0.24147614880E+03  0.30678653336E+03  0.00000000000E+00 0. -1.
         -4    1    3    3    0  502 -0.54798966948E+02 -0.23051606213E+02  0.77002576760E+02  0.97281550950E+02  0.00000000000E+00 0.  1.
         13    1    5    5    0    0 -0.23447992940E+02 -0.14765523824E+03 -0.68115542446E+02  0.16429121972E+03  0.00000000000E+00 0.  1.
        -13    1    5    5    0    0 -0.11287870044E+03 -0.21233557633E+03 -0.10985840950E+02  0.24072533454E+03  0.00000000000E+00 0. -1.
          4    1    6    6  503    0  0.26894905545E+03  0.17837671280E+03 -0.11895971173E+02  0.32294482536E+03  0.00000000000E+00 0. -1.
         -4    1    6    6    0  503  0.10127862938E+03  0.14359434456E+03  0.13295043661E+02  0.17621990451E+03  0.00000000000E+00 0.  1.
<mgrwt>
<rscale>  0 0.12859017E+04</rscale>
<asrwt>0</asrwt>
<pdfrwt beam="1">  1        1 0.11915583E+00 0.12859017E+04</pdfrwt>
<pdfrwt beam="2">  1       -2 0.82113304E-01 0.12859017E+04</pdfrwt>
<totfact> 0.26149735E+01</totfact>
</mgrwt>
</event>
<event>
12    5  0.5029243E-008  0.1853027E+04  0.7818608E-02  0.8678598E-01
          1   -1    0    0  501    0  0.00000000000E+00  0.00000000000E+00  0.16321779977E+04  0.16321779977E+04  0.00000000000E+00 0. -1.
         -2   -1    0    0    0  501 -0.00000000000E+00 -0.00000000000E+00 -0.52593948692E+03  0.52593948692E+03  0.00000000000E+00 0.  1.
        -24    2    1    2    0    0 -0.35403433170E+02  0.70399817172E+03  0.31215015950E+03  0.77495878474E+03  0.79098464601E+02 0.  0.
        254    2    1    2    0    0  0.35403433170E+02 -0.70399817172E+03  0.79408835132E+03  0.13831586999E+04  0.88638865662E+03 0.  0.
         23    2    4    4    0    0  0.27735326003E+03 -0.45638507178E+02  0.56890760742E+03  0.64084131050E+03  0.89521032609E+02 0.  0.
         23    2    4    4    0    0 -0.24194982686E+03 -0.65835966454E+03  0.22518074390E+03  0.74231738941E+03  0.91386938813E+02 0.  0.
          3    1    3    3  502    0 -0.35302262956E+02  0.32948116096E+03  0.18460403422E+03  0.37931877708E+03  0.00000000000E+00 0. -1.
         -4    1    3    3    0  502 -0.10117021441E+00  0.37451701076E+03  0.12754612528E+03  0.39564000765E+03  0.00000000000E+00 0.  1.
         13    1    5    5    0    0  0.24425294007E+03 -0.68568268875E+02  0.50802894192E+03  0.56785078327E+03  0.00000000000E+00 0. -1.
        -13    1    5    5    0    0  0.33100319966E+02  0.22929761697E+02  0.60878665499E+02  0.72990527236E+02  0.00000000000E+00 0.  1.
          2    1    6    6  503    0 -0.12365931803E+03 -0.33474154636E+03  0.66589013143E+02  0.36301188199E+03  0.00000000000E+00 0. -1.
         -2    1    6    6    0  503 -0.11829050884E+03 -0.32361811818E+03  0.15859173076E+03  0.37930550742E+03  0.00000000000E+00 0.  1.
<mgrwt>
<rscale>  0 0.18530266E+04</rscale>
<asrwt>0</asrwt>
<pdfrwt beam="1">  1        1 0.25110431E+00 0.18530266E+04</pdfrwt>
<pdfrwt beam="2">  1       -2 0.80913768E-01 0.18530266E+04</pdfrwt>
<totfact> 0.58916344E+00</totfact>
</mgrwt>
</event>
<event>
12    5  0.5029243E-008  0.2353548E+04  0.7818608E-02  0.8457102E-01
         -2   -1    0    0    0  501 -0.00000000000E+00  0.00000000000E+00  0.26737251649E+04  0.26737251649E+04  0.00000000000E+00 0.  1.
          1   -1    0    0  501    0  0.00000000000E+00 -0.00000000000E+00 -0.51792798542E+03  0.51792798542E+03  0.00000000000E+00 0. -1.
        -24    2    1    2    0    0  0.42826990897E+03 -0.46344249193E+03 -0.13416138848E+03  0.65016912502E+03  0.80787094982E+02 0.  0.
        254    2    1    2    0    0 -0.42826990897E+03  0.46344249193E+03  0.22899585680E+04  0.25414840253E+04  0.90390085166E+03 0.  0.
         23    2    4    4    0    0 -0.43001384651E+03  0.12348457479E+03  0.20845433852E+04  0.21339077059E+04  0.89892290837E+02 0.  0.
         23    2    4    4    0    0  0.17439375445E+01  0.33995791714E+03  0.20541518274E+03  0.40757631942E+03  0.91370849320E+02 0.  0.
          3    1    3    3  502    0  0.41952936692E+03 -0.43990219945E+03 -0.14125305482E+03  0.62407632569E+03  0.00000000000E+00 0. -1.
         -4    1    3    3    0  502  0.87405420447E+01 -0.23540292480E+02  0.70916663406E+01  0.26092799328E+02  0.00000000000E+00 0.  1.
         13    1    5    5    0    0 -0.23323920499E+03  0.31664820049E+02  0.12210923823E+04  0.12435713866E+04  0.00000000000E+00 0. -1.
        -13    1    5    5    0    0 -0.19677464152E+03  0.91819754738E+02  0.86345100294E+03  0.89033631926E+03  0.00000000000E+00 0.  1.
          1    1    6    6  503    0 -0.16987872091E+02  0.14897047897E+03  0.13914122519E+03  0.20455090308E+03  0.00000000000E+00 0. -1.
         -1    1    6    6    0  503  0.18731809636E+02  0.19098743817E+03  0.66273957555E+02  0.20302541634E+03  0.00000000000E+00 0.  1.
<mgrwt>
<rscale>  0 0.23535480E+04</rscale>
<asrwt>0</asrwt>
<pdfrwt beam="1">  1        1 0.79681230E-01 0.23535480E+04</pdfrwt>
<pdfrwt beam="2">  1       -2 0.41134233E+00 0.23535480E+04</pdfrwt>
<totfact> 0.20816838E-01</totfact>
</mgrwt>
</event>
<event>
12    5  0.5029243E-008  0.1277971E+04  0.7818608E-02  0.9047219E-01
         -2   -1    0    0    0  501 -0.00000000000E+00  0.00000000000E+00  0.76749049810E+03  0.76749049810E+03  0.00000000000E+00 0.  1.
          1   -1    0    0  501    0  0.00000000000E+00 -0.00000000000E+00 -0.53199696744E+03  0.53199696744E+03  0.00000000000E+00 0. -1.
        -24    2    1    2    0    0  0.13614615951E+03 -0.69683618973E+02 -0.21785522599E+03  0.27786699945E+03  0.79734474269E+02 0.  0.
        254    2    1    2    0    0 -0.13614615951E+03  0.69683618973E+02  0.45334875665E+03  0.10216204661E+04  0.90265812913E+03 0.  0.
         23    2    4    4    0    0 -0.35694312058E+03 -0.27129936736E+03  0.38883967725E+03  0.60018978395E+03  0.89553023951E+02 0.  0.
         23    2    4    4    0    0  0.22079696107E+03  0.34098298633E+03  0.64509079398E+02  0.42143068214E+03  0.91769840049E+02 0.  0.
          3    1    3    3  502    0  0.83653569455E+02 -0.93680969705E+01 -0.15413935460E+03  0.17562636920E+03  0.00000000000E+00 0. -1.
         -4    1    3    3    0  502  0.52492590058E+02 -0.60315522002E+02 -0.63715871392E+02  0.10224063024E+03  0.00000000000E+00 0.  1.
         13    1    5    5    0    0 -0.10922790603E+02  0.42799640984E+01  0.79656449923E+00  0.11758399646E+02  0.00000000000E+00 0.  1.
        -13    1    5    5    0    0 -0.34602032998E+03 -0.27557933145E+03  0.38804311275E+03  0.58843138431E+03  0.00000000000E+00 0. -1.
          4    1    6    6  503    0  0.40114152999E+02  0.12545818220E+03 -0.46960063748E+01  0.13179891209E+03  0.00000000000E+00 0. -1.
         -4    1    6    6    0  503  0.18068280807E+03  0.21552480412E+03  0.69205085773E+02  0.28963177005E+03  0.00000000000E+00 0.  1.
<mgrwt>
<rscale>  0 0.12779712E+04</rscale>
<asrwt>0</asrwt>
<pdfrwt beam="1">  1        1 0.81845688E-01 0.12779712E+04</pdfrwt>
<pdfrwt beam="2">  1       -2 0.11807546E+00 0.12779712E+04</pdfrwt>
<totfact> 0.19337407E+01</totfact>
</mgrwt>
</event>
<event>
12    5  0.5029243E-008  0.1346184E+04  0.7818608E-02  0.8993722E-01
         -2   -1    0    0    0  501 -0.00000000000E+00  0.00000000000E+00  0.21739915006E+03  0.21739915006E+03  0.00000000000E+00 0.  1.
          1   -1    0    0  501    0  0.00000000000E+00 -0.00000000000E+00 -0.20839678570E+04  0.20839678570E+04  0.00000000000E+00 0. -1.
        -24    2    1    2    0    0 -0.25816804557E+03 -0.14554999376E+03 -0.85812389659E+03  0.91043467536E+03  0.68404208635E+02 0.  0.
        254    2    1    2    0    0  0.25816804557E+03  0.14554999376E+03 -0.10084448103E+04  0.13909323317E+04  0.91098642985E+03 0.  0.
         23    2    4    4    0    0  0.55173178683E+03 -0.89261223553E+02 -0.52759261251E+03  0.77385989256E+03  0.90164504718E+02 0.  0.
         23    2    4    4    0    0 -0.29356374126E+03  0.23481121732E+03 -0.48085219779E+03  0.61707243909E+03  0.90794168283E+02 0.  0.
          1    1    3    3  502    0 -0.25083604920E+03 -0.13107706331E+03 -0.76017120404E+03  0.81114744625E+03  0.00000000000E+00 0. -1.
         -2    1    3    3    0  502 -0.73319963717E+01 -0.14472930455E+02 -0.97952692548E+02  0.99287229109E+02  0.00000000000E+00 0.  1.
         13    1    5    5    0    0  0.50525925268E+03 -0.69686836009E+02 -0.50769090129E+03  0.71964798255E+03  0.00000000000E+00 0. -1.
        -13    1    5    5    0    0  0.46472534147E+02 -0.19574387544E+02 -0.19901711224E+02  0.54211910015E+02  0.00000000000E+00 0.  1.
          2    1    6    6  503    0 -0.27356651870E+03  0.19182003306E+03 -0.38243202492E+03  0.50782656382E+03  0.00000000000E+00 0. -1.
         -2    1    6    6    0  503 -0.19997222562E+02  0.42991184255E+02 -0.98420172875E+02  0.10924587527E+03  0.00000000000E+00 0.  1.
<mgrwt>
<rscale>  0 0.13461840E+04</rscale>
<asrwt>0</asrwt>
<pdfrwt beam="1">  1        1 0.32061046E+00 0.13461840E+04</pdfrwt>
<pdfrwt beam="2">  1       -2 0.33446021E-01 0.13461840E+04</pdfrwt>
<totfact> 0.18793787E+01</totfact>
</mgrwt>
</event>
<event>
12    5  0.5029243E-008  0.1515880E+04  0.7818608E-02  0.8873961E-01
          1   -1    0    0  501    0  0.00000000000E+00  0.00000000000E+00  0.17905155447E+04  0.17905155447E+04  0.00000000000E+00 0. -1.
         -2   -1    0    0    0  501 -0.00000000000E+00 -0.00000000000E+00 -0.32084230699E+03  0.32084230699E+03  0.00000000000E+00 0.  1.
        -24    2    1    2    0    0 -0.13245527049E+03  0.46188589773E+03  0.53606942857E+03  0.72439975898E+03  0.80632483305E+02 0.  0.
        254    2    1    2    0    0  0.13245527049E+03 -0.46188589773E+03  0.93360380918E+03  0.13869580928E+04  0.90617531269E+03 0.  0.
         23    2    4    4    0    0  0.14790865515E+03 -0.63014998081E+03  0.29112352100E+03  0.71548184928E+03  0.90528468409E+02 0.  0.
         23    2    4    4    0    0 -0.15453384663E+02  0.16826408308E+03  0.64248028818E+03  0.67147624347E+03  0.97712926918E+02 0.  0.
          1    1    3    3  502    0 -0.72415519822E+01  0.23329314247E+02  0.60532014438E+01  0.25166211992E+02  0.00000000000E+00 0. -1.
         -2    1    3    3    0  502 -0.12521371851E+03  0.43855658348E+03  0.53001622713E+03  0.69923354699E+03  0.00000000000E+00 0.  1.
         13    1    5    5    0    0  0.13311540793E+03 -0.46659250561E+03  0.18157250043E+03  0.51807031475E+03  0.00000000000E+00 0. -1.
        -13    1    5    5    0    0  0.14793247223E+02 -0.16355747520E+03  0.10955102057E+03  0.19741153453E+03  0.00000000000E+00 0.  1.
          4    1    6    6  503    0 -0.17785993360E+02  0.17814675129E+03  0.54919225639E+03  0.57763720538E+03  0.00000000000E+00 0. -1.
         -4    1    6    6    0  503  0.23326086972E+01 -0.98826682131E+01  0.93288031791E+02  0.93839038091E+02  0.00000000000E+00 0.  1.
<mgrwt>
<rscale>  0 0.15158801E+04</rscale>
<asrwt>0</asrwt>
<pdfrwt beam="1">  1        1 0.27546392E+00 0.15158801E+04</pdfrwt>
<pdfrwt beam="2">  1       -2 0.49360356E-01 0.15158801E+04</pdfrwt>
<totfact> 0.13625338E+01</totfact>
</mgrwt>
</event>
<event>
12    5  0.5029243E-008  0.1597330E+04  0.7818608E-02  0.8822190E-01
         -2   -1    0    0    0  501 -0.00000000000E+00  0.00000000000E+00  0.63746725968E+03  0.63746725968E+03  0.00000000000E+00 0.  1.
          1   -1    0    0  501    0  0.00000000000E+00 -0.00000000000E+00 -0.10006248574E+04  0.10006248574E+04  0.00000000000E+00 0. -1.
        -24    2    1    2    0    0 -0.21945747982E+03  0.49447388103E+03 -0.28476658118E+03  0.61743751718E+03  0.86435394386E+02 0.  0.
        254    2    1    2    0    0  0.21945747982E+03 -0.49447388103E+03 -0.78391016535E+02  0.10206545999E+04  0.86193077235E+03 0.  0.
         23    2    4    4    0    0  0.52890198706E+03 -0.42161192617E+03 -0.54440815937E+01  0.68255237808E+03  0.91401217682E+02 0.  0.
         23    2    4    4    0    0 -0.30944450724E+03 -0.72861954859E+02 -0.72946934941E+02  0.33810222180E+03  0.89034204342E+02 0.  0.
          3    1    3    3  502    0 -0.21662935209E+03  0.42602696007E+03 -0.23385762389E+03  0.53208705598E+03  0.00000000000E+00 0. -1.
         -4    1    3    3    0  502 -0.28281277320E+01  0.68446920954E+02 -0.50908957290E+02  0.85350461200E+02  0.00000000000E+00 0.  1.
         13    1    5    5    0    0  0.50532115372E+03 -0.37199564322E+03 -0.84389998859E+01  0.62753600988E+03  0.00000000000E+00 0.  1.
        -13    1    5    5    0    0  0.23580833339E+02 -0.49616282950E+02  0.29949182922E+01  0.55016368204E+02  0.00000000000E+00 0. -1.
          3    1    6    6  503    0 -0.97182004045E+01 -0.14018308272E+02 -0.22941826801E+02  0.28588175927E+02  0.00000000000E+00 0. -1.
         -3    1    6    6    0  503 -0.29972630684E+03 -0.58843646587E+02 -0.50005108140E+02  0.30951404588E+03  0.00000000000E+00 0.  1.
<mgrwt>
<rscale>  0 0.15973298E+04</rscale>
<asrwt>0</asrwt>
<pdfrwt beam="1">  1        1 0.15394229E+00 0.15973298E+04</pdfrwt>
<pdfrwt beam="2">  1       -2 0.98071886E-01 0.15973298E+04</pdfrwt>
<totfact> 0.10998535E+01</totfact>
</mgrwt>
</event>
<event>
12    5  0.5029243E-008  0.1894830E+04  0.7818608E-02  0.8657434E-01
         -2   -1    0    0    0  501 -0.00000000000E+00  0.00000000000E+00  0.17405802609E+04  0.17405802609E+04  0.00000000000E+00 0.  1.
          1   -1    0    0  501    0  0.00000000000E+00 -0.00000000000E+00 -0.51568724276E+03  0.51568724276E+03  0.00000000000E+00 0. -1.
        -24    2    1    2    0    0  0.68598110710E+03 -0.17281080700E+03  0.70935375221E+03  0.10050166532E+04  0.80262526636E+02 0.  0.
        254    2    1    2    0    0 -0.68598110710E+03  0.17281080700E+03  0.51553926591E+03  0.12512508504E+04  0.89409971571E+03 0.  0.
         23    2    4    4    0    0  0.65965125375E+02 -0.24855925083E+03  0.10663841750E+03  0.29271133340E+03  0.90416114012E+02 0.  0.
         23    2    4    4    0    0 -0.75194623247E+03  0.42137005783E+03  0.40890084841E+03  0.95853951701E+03  0.92856015802E+02 0.  0.
          1    1    3    3  502    0  0.54702362701E+03 -0.11679268280E+03  0.59415884141E+03  0.81602702656E+03  0.00000000000E+00 0. -1.
         -2    1    3    3    0  502  0.13895748009E+03 -0.56018124200E+02  0.11519491080E+03  0.18898962666E+03  0.00000000000E+00 0.  1.
         13    1    5    5    0    0 -0.55410993742E+01 -0.13391306312E+03  0.76318060902E+02  0.15423313093E+03  0.00000000000E+00 0.  1.
        -13    1    5    5    0    0  0.71506224749E+02 -0.11464618771E+03  0.30320356596E+02  0.13847820247E+03  0.00000000000E+00 0. -1.
          1    1    6    6  503    0 -0.44074784946E+03  0.21836025775E+03  0.27539332033E+03  0.56372098582E+03  0.00000000000E+00 0. -1.
         -1    1    6    6    0  503 -0.31119838301E+03  0.20300980008E+03  0.13350752808E+03  0.39481853119E+03  0.00000000000E+00 0.  1.
<mgrwt>
<rscale>  0 0.18948298E+04</rscale>
<asrwt>0</asrwt>
<pdfrwt beam="1">  1        1 0.79336500E-01 0.18948298E+04</pdfrwt>
<pdfrwt beam="2">  1       -2 0.26778158E+00 0.18948298E+04</pdfrwt>
<totfact> 0.17400506E+00</totfact>
</mgrwt>
</event>
<event>
12    5  0.5029243E-008  0.2047671E+04  0.7818608E-02  0.8584652E-01
          1   -1    0    0  501    0  0.00000000000E+00  0.00000000000E+00  0.86756786983E+03  0.86756786983E+03  0.00000000000E+00 0. -1.
         -2   -1    0    0    0  501 -0.00000000000E+00 -0.00000000000E+00 -0.12082504738E+04  0.12082504738E+04  0.00000000000E+00 0.  1.
        -24    2    1    2    0    0 -0.17907195876E+03  0.62948913868E+03 -0.65589571244E+03  0.93002202893E+03  0.80115208101E+02 0.  0.
        254    2    1    2    0    0  0.17907195876E+03 -0.62948913868E+03  0.31521310849E+03  0.11457963147E+04  0.88609624130E+03 0.  0.
         23    2    4    4    0    0  0.28277635137E+03 -0.16887765571E+03 -0.23477561158E+03  0.41504053597E+03  0.93042631158E+02 0.  0.
         23    2    4    4    0    0 -0.10370439261E+03 -0.46061148297E+03  0.54998872007E+03  0.73075577871E+03  0.92730127934E+02 0.  0.
          3    1    3    3  502    0 -0.16448026325E+02  0.16224859497E+02 -0.11885190396E+02  0.25981558584E+02  0.00000000000E+00 0. -1.
         -4    1    3    3    0  502 -0.16262393243E+03  0.61326427918E+03 -0.64401052204E+03  0.90404047034E+03  0.00000000000E+00 0.  1.
         13    1    5    5    0    0  0.27660790593E+03 -0.13800673856E+03 -0.22405803953E+03  0.38178501619E+03  0.00000000000E+00 0.  1.
        -13    1    5    5    0    0  0.61684454398E+01 -0.30870917153E+02 -0.10717572048E+02  0.33255519777E+02  0.00000000000E+00 0. -1.
          1    1    6    6  503    0 -0.35151082304E+02 -0.12854166998E+03  0.96552233972E+02  0.16456273391E+03  0.00000000000E+00 0. -1.
         -1    1    6    6    0  503 -0.68553310303E+02 -0.33206981299E+03  0.45343648610E+03  0.56619304480E+03  0.00000000000E+00 0.  1.
<mgrwt>
<rscale>  0 0.20476712E+04</rscale>
<asrwt>0</asrwt>
<pdfrwt beam="1">  1        1 0.13347198E+00 0.20476712E+04</pdfrwt>
<pdfrwt beam="2">  1       -2 0.18588469E+00 0.20476712E+04</pdfrwt>
<totfact> 0.25890078E+00</totfact>
</mgrwt>
</event>
<event>
12    5  0.5029243E-008  0.2583982E+04  0.7818608E-02  0.8373663E-01
          1   -1    0    0  501    0  0.00000000000E+00  0.00000000000E+00  0.11730711837E+04  0.11730711837E+04  0.00000000000E+00 0. -1.
         -2   -1    0    0    0  501 -0.00000000000E+00 -0.00000000000E+00 -0.14229663357E+04  0.14229663357E+04  0.00000000000E+00 0.  1.
        -24    2    1    2    0    0 -0.10586512272E+04 -0.72101753060E+02  0.29332588009E+03  0.11037517938E+04  0.79289764170E+02 0.  0.
        254    2    1    2    0    0  0.10586512272E+04  0.72101753060E+02 -0.54322103211E+03  0.14922857256E+04  0.89771182092E+03 0.  0.
         23    2    4    4    0    0  0.25648970302E+03 -0.48797667942E+02 -0.61359476210E+03  0.67296651222E+03  0.90648851833E+02 0.  0.
         23    2    4    4    0    0  0.80216152417E+03  0.12089942100E+03  0.70373729986E+02  0.81931921336E+03  0.90839037050E+02 0.  0.
          3    1    3    3  502    0 -0.10381321268E+04 -0.80298860559E+02  0.29292585110E+03  0.10816523351E+04  0.00000000000E+00 0. -1.
         -4    1    3    3    0  502 -0.20519100367E+02  0.81971074990E+01  0.40002899308E+00  0.22099458691E+02  0.00000000000E+00 0.  1.
         13    1    5    5    0    0  0.24899616843E+03 -0.57071340597E+02 -0.60985265721E+03  0.66119323447E+03  0.00000000000E+00 0. -1.
        -13    1    5    5    0    0  0.74935345857E+01  0.82736726550E+01 -0.37421048926E+01  0.11773277743E+02  0.00000000000E+00 0.  1.
          1    1    6    6  503    0  0.69148321253E+03  0.72392303418E+02  0.66182966345E+02  0.69840522896E+03  0.00000000000E+00 0. -1.
         -1    1    6    6    0  503  0.11067831165E+03  0.48507117583E+02  0.41907636415E+01  0.12091398441E+03  0.00000000000E+00 0.  1.
<mgrwt>
<rscale>  0 0.25839820E+04</rscale>
<asrwt>0</asrwt>
<pdfrwt beam="1">  1        1 0.18047249E+00 0.25839820E+04</pdfrwt>
<pdfrwt beam="2">  1       -2 0.21891790E+00 0.25839820E+04</pdfrwt>
<totfact> 0.86901750E-01</totfact>
</mgrwt>
</event>
<event>
12    5  0.5029243E-008  0.1479911E+04  0.7818608E-02  0.8897923E-01
         -2   -1    0    0    0  501 -0.00000000000E+00  0.00000000000E+00  0.13424950786E+04  0.13424950786E+04  0.00000000000E+00 0.  1.
          1   -1    0    0  501    0  0.00000000000E+00 -0.00000000000E+00 -0.40784816632E+03  0.40784816632E+03  0.00000000000E+00 0. -1.
        -24    2    1    2    0    0 -0.36124694197E+03  0.75872488259E+01  0.64493313981E+03  0.74313814005E+03  0.75885578026E+02 0.  0.
        254    2    1    2    0    0  0.36124694197E+03 -0.75872488259E+01  0.28971377251E+03  0.10072051049E+04  0.89441105424E+03 0.  0.
         23    2    4    4    0    0 -0.40174828033E+02 -0.30537151174E+03 -0.13166672611E+03  0.34720126126E+03  0.91360889146E+02 0.  0.
         23    2    4    4    0    0  0.40142177000E+03  0.29778426292E+03  0.42138049863E+03  0.66000384365E+03  0.90711875420E+02 0.  0.
          3    1    3    3  502    0 -0.13228595495E+03 -0.23629749316E+02  0.18788610922E+03  0.23099595011E+03  0.00000000000E+00 0. -1.
         -4    1    3    3    0  502 -0.22896098702E+03  0.31216998142E+02  0.45704703059E+03  0.51214218994E+03  0.00000000000E+00 0.  1.
         13    1    5    5    0    0 -0.52866691173E+02 -0.22248402207E+03 -0.58815200767E+02  0.23612127171E+03  0.00000000000E+00 0.  1.
        -13    1    5    5    0    0  0.12691863140E+02 -0.82887489672E+02 -0.72851525344E+02  0.11107998955E+03  0.00000000000E+00 0. -1.
          3    1    6    6  503    0  0.70603504278E+01  0.23716143560E+02  0.38708617097E+02  0.45941931295E+02  0.00000000000E+00 0. -1.
         -3    1    6    6    0  503  0.39436141958E+03  0.27406811936E+03  0.38267188153E+03  0.61406191236E+03  0.00000000000E+00 0.  1.
<mgrwt>
<rscale>  0 0.14799110E+04</rscale>
<asrwt>0</asrwt>
<pdfrwt beam="1">  1        1 0.62745872E-01 0.14799110E+04</pdfrwt>
<pdfrwt beam="2">  1       -2 0.20653770E+00 0.14799110E+04</pdfrwt>
<totfact> 0.59635466E+00</totfact>
</mgrwt>
</event>
<event>
12    5  0.5029243E-008  0.1275892E+04  0.7818608E-02  0.9048904E-01
          1   -1    0    0  501    0  0.00000000000E+00  0.00000000000E+00  0.10886920015E+04  0.10886920015E+04  0.00000000000E+00 0. -1.
         -2   -1    0    0    0  501 -0.00000000000E+00 -0.00000000000E+00 -0.37382048488E+03  0.37382048488E+03  0.00000000000E+00 0.  1.
        -24    2    1    2    0    0 -0.13721814309E+03 -0.18889208420E+03  0.41190945760E+03  0.48062201790E+03  0.82577748575E+02 0.  0.
        254    2    1    2    0    0  0.13721814309E+03  0.18889208420E+03  0.30296205903E+03  0.98189046849E+03  0.90433060583E+03 0.  0.
         23    2    4    4    0    0  0.29725441081E+03 -0.28539810702E+03  0.94398500718E+02  0.43238582931E+03  0.90742295597E+02 0.  0.
         23    2    4    4    0    0 -0.16003626772E+03  0.47429019122E+03  0.20856355831E+03  0.54950463918E+03  0.88847049224E+02 0.  0.
          1    1    3    3  502    0 -0.52509435933E+02 -0.89564926985E+02  0.26210768488E+03  0.28192118665E+03  0.00000000000E+00 0. -1.
         -2    1    3    3    0  502 -0.84708707161E+02 -0.99327157213E+02  0.14980177272E+03  0.19870083125E+03  0.00000000000E+00 0.  1.
         13    1    5    5    0    0 -0.45099861304E+01 -0.76195536167E+01 -0.52647128951E+01  0.10301202555E+02  0.00000000000E+00 0. -1.
        -13    1    5    5    0    0  0.30176439694E+03 -0.27777855340E+03  0.99663213613E+02  0.42208462675E+03  0.00000000000E+00 0.  1.
          2    1    6    6  503    0 -0.10852697101E+03  0.41361767022E+03  0.18913674271E+03  0.46757928525E+03  0.00000000000E+00 0.  1.
         -2    1    6    6    0  503 -0.51509296713E+02  0.60672520998E+02  0.19426815603E+02  0.81925353930E+02  0.00000000000E+00 0. -1.
<mgrwt>
<rscale>  0 0.12758924E+04</rscale>
<asrwt>0</asrwt>
<pdfrwt beam="1">  1        1 0.16749108E+00 0.12758924E+04</pdfrwt>
<pdfrwt beam="2">  1       -2 0.57510844E-01 0.12758924E+04</pdfrwt>
<totfact> 0.31604061E+01</totfact>
</mgrwt>
</event>
<event>
12    5  0.5029243E-008  0.1552638E+04  0.7818608E-02  0.8850184E-01
          1   -1    0    0  501    0  0.00000000000E+00  0.00000000000E+00  0.12330074549E+04  0.12330074549E+04  0.00000000000E+00 0. -1.
         -2   -1    0    0    0  501 -0.00000000000E+00 -0.00000000000E+00 -0.48878160616E+03  0.48878160616E+03  0.00000000000E+00 0.  1.
        -24    2    1    2    0    0  0.19496871703E+02  0.23786586985E+03  0.75028491890E+03  0.79146623818E+03  0.80814890972E+02 0.  0.
        254    2    1    2    0    0 -0.19496871703E+02 -0.23786586985E+03 -0.60590701694E+01  0.93032282286E+03  0.89916825031E+03 0.  0.
         23    2    4    4    0    0 -0.45983123806E+02 -0.38542562042E+03 -0.36048467297E+03  0.53681472398E+03  0.86910827216E+02 0.  0.
         23    2    4    4    0    0  0.26486252103E+02  0.14755975057E+03  0.35442560280E+03  0.39350809888E+03  0.82193153193E+02 0.  0.
          3    1    3    3  502    0  0.20756153552E+02  0.17834059232E+03  0.65454460045E+03  0.67872293225E+03  0.00000000000E+00 0. -1.
         -4    1    3    3    0  502 -0.12592818484E+01  0.59525277529E+02  0.95740318454E+02  0.11274330594E+03  0.00000000000E+00 0.  1.
         13    1    5    5    0    0 -0.64862395886E+02 -0.35513671880E+03 -0.31595235432E+03  0.47974483805E+03  0.00000000000E+00 0. -1.
        -13    1    5    5    0    0  0.18879272080E+02 -0.30288901623E+02 -0.44532318646E+02  0.57069885927E+02  0.00000000000E+00 0.  1.
          4    1    6    6  503    0  0.29828198711E+02  0.10186869195E+03  0.31716490593E+03  0.33445557162E+03  0.00000000000E+00 0. -1.
         -4    1    6    6    0  503 -0.33419466078E+01  0.45691058618E+02  0.37260696869E+02  0.59052527261E+02  0.00000000000E+00 0.  1.
<mgrwt>
<rscale>  0 0.15526382E+04</rscale>
<asrwt>0</asrwt>
<pdfrwt beam="1">  1        1 0.18969345E+00 0.15526382E+04</pdfrwt>
<pdfrwt beam="2">  1       -2 0.75197171E-01 0.15526382E+04</pdfrwt>
<totfact> 0.13559619E+01</totfact>
</mgrwt>
</event>
<event>
12    5  0.5029243E-008  0.1709638E+04  0.7818608E-02  0.8755887E-01
          3   -1    0    0  501    0  0.00000000000E+00  0.00000000000E+00  0.29359046772E+04  0.29359046772E+04  0.00000000000E+00 0. -1.
         -4   -1    0    0    0  501 -0.00000000000E+00 -0.00000000000E+00 -0.24888935868E+03  0.24888935868E+03  0.00000000000E+00 0.  1.
        -24    2    1    2    0    0 -0.29994378828E+03 -0.49718374661E+03  0.71805242118E+03  0.92728007830E+03  0.84208728924E+02 0.  0.
        254    2    1    2    0    0  0.29994378828E+03  0.49718374661E+03  0.19689628974E+04  0.22575139576E+04  0.93935958160E+03 0.  0.
         23    2    4    4    0    0  0.62643359050E+03  0.40292527346E+03  0.14043715168E+04  0.15920568720E+04  0.87280622515E+02 0.  0.
         23    2    4    4    0    0 -0.32648980222E+03  0.94258473150E+02  0.56459138052E+03  0.66545708560E+03  0.92679313230E+02 0.  0.
          1    1    3    3  502    0 -0.28229645490E+03 -0.46103572199E+03  0.62786596435E+03  0.82852935650E+03  0.00000000000E+00 0. -1.
         -4    1    3    3    0  502 -0.17647333380E+02 -0.36148024620E+02  0.90186456835E+02  0.98750721799E+02  0.00000000000E+00 0.  1.
         13    1    5    5    0    0  0.12852796521E+02  0.27654553135E+02  0.50427166728E+02  0.58931043022E+02  0.00000000000E+00 0. -1.
        -13    1    5    5    0    0  0.61358079398E+03  0.37527072033E+03  0.13539443501E+04  0.15331258290E+04  0.00000000000E+00 0.  1.
          4    1    6    6  503    0 -0.12381147709E+01 -0.34118330206E-01 -0.37085896787E+01  0.39099526405E+01  0.00000000000E+00 0. -1.
         -4    1    6    6    0  503 -0.32525168745E+03  0.94292591481E+02  0.56829997019E+03  0.66154713295E+03  0.00000000000E+00 0.  1.
<mgrwt>
<rscale>  0 0.17096379E+04</rscale>
<asrwt>0</asrwt>
<pdfrwt beam="1">  1        3 0.45167762E+00 0.17096379E+04</pdfrwt>
<pdfrwt beam="2">  1       -4 0.38290673E-01 0.17096379E+04</pdfrwt>
<totfact> 0.87592608E-02</totfact>
</mgrwt>
</event>
<event>
12    5  0.5029243E-008  0.1482243E+04  0.7818608E-02  0.8896347E-01
         -4   -1    0    0    0  501 -0.00000000000E+00  0.00000000000E+00  0.42822327725E+03  0.42822327725E+03  0.00000000000E+00 0.  1.
          1   -1    0    0  501    0  0.00000000000E+00 -0.00000000000E+00 -0.12826518884E+04  0.12826518884E+04  0.00000000000E+00 0. -1.
        -24    2    1    2    0    0 -0.23006984045E+03  0.33605659772E+03 -0.52429800993E+03  0.66866574062E+03  0.79745226238E+02 0.  0.
        254    2    1    2    0    0  0.23006984045E+03 -0.33605659772E+03 -0.33013060117E+03  0.10422094250E+04  0.90074863493E+03 0.  0.
         23    2    4    4    0    0  0.31157438364E+03  0.20928488527E+02 -0.52505871977E+03  0.61738711624E+03  0.89238970862E+02 0.  0.
         23    2    4    4    0    0 -0.81504543189E+02 -0.35698508625E+03  0.19492811860E+03  0.42482230874E+03  0.91627944546E+02 0.  0.
          3    1    3    3  502    0 -0.76320161250E+01  0.49790369987E+02 -0.88098575068E+02  0.10148244943E+03  0.00000000000E+00 0. -1.
         -4    1    3    3    0  502 -0.22243782432E+03  0.28626622773E+03 -0.43619943486E+03  0.56718329119E+03  0.00000000000E+00 0.  1.
         13    1    5    5    0    0  0.21859403516E+03  0.53873761392E+02 -0.38673108051E+03  0.44748928815E+03  0.00000000000E+00 0.  1.
        -13    1    5    5    0    0  0.92980348478E+02 -0.32945272865E+02 -0.13832763926E+03  0.16989782809E+03  0.00000000000E+00 0. -1.
          3    1    6    6  503    0  0.71077213837E+01  0.21420922547E+01  0.55175954914E+01  0.92494390372E+01  0.00000000000E+00 0. -1.
         -3    1    6    6    0  503 -0.88612264573E+02 -0.35912717850E+03  0.18941052311E+03  0.41557286970E+03  0.00000000000E+00 0.  1.
<mgrwt>
<rscale>  0 0.14822434E+04</rscale>
<asrwt>0</asrwt>
<pdfrwt beam="1">  1        1 0.19733106E+00 0.14822434E+04</pdfrwt>
<pdfrwt beam="2">  1       -4 0.65880504E-01 0.14822434E+04</pdfrwt>
<totfact> 0.94431508E+00</totfact>
</mgrwt>
</event>
<event>
12    5  0.5029243E-008  0.1568957E+04  0.7818608E-02  0.8839849E-01
         -2   -1    0    0    0  501 -0.00000000000E+00  0.00000000000E+00  0.45855247279E+03  0.45855247279E+03  0.00000000000E+00 0.  1.
          1   -1    0    0  501    0  0.00000000000E+00 -0.00000000000E+00 -0.13420631976E+04  0.13420631976E+04  0.00000000000E+00 0. -1.
        -24    2    1    2    0    0  0.14751881253E+03  0.28046630184E+03 -0.79389297277E+03  0.85862624015E+03  0.80930967759E+02 0.  0.
        254    2    1    2    0    0 -0.14751881253E+03 -0.28046630184E+03 -0.89617752010E+02  0.94198943022E+03  0.88254722176E+03 0.  0.
         23    2    4    4    0    0 -0.55360687308E+02 -0.16738328867E+03 -0.47776873627E+03  0.51693194911E+03  0.88733892225E+02 0.  0.
         23    2    4    4    0    0 -0.92158125222E+02 -0.11308301317E+03  0.38815098425E+03  0.42505748111E+03  0.93444035420E+02 0.  0.
          1    1    3    3  502    0  0.14716999645E+03  0.28261360424E+03 -0.79478242499E+03  0.85627598368E+03  0.00000000000E+00 0. -1.
         -2    1    3    3    0  502  0.34881607632E+00 -0.21473023928E+01  0.88945222054E+00  0.23502564698E+01  0.00000000000E+00 0.  1.
         13    1    5    5    0    0 -0.14081050959E+02 -0.21280530305E+01 -0.61788685758E+01  0.15523627884E+02  0.00000000000E+00 0. -1.
        -13    1    5    5    0    0 -0.41279636349E+02 -0.16525523564E+03 -0.47158986769E+03  0.50140832122E+03  0.00000000000E+00 0.  1.
          2    1    6    6  503    0  0.16407840587E+02 -0.31446944755E+02  0.57066011129E+02  0.67191198779E+02  0.00000000000E+00 0. -1.
         -2    1    6    6    0  503 -0.10856596581E+03 -0.81636068417E+02  0.33108497313E+03  0.35786628233E+03  0.00000000000E+00 0.  1.
<mgrwt>
<rscale>  0 0.15689568E+04</rscale>
<asrwt>0</asrwt>
<pdfrwt beam="1">  1        1 0.20647126E+00 0.15689568E+04</pdfrwt>
<pdfrwt beam="2">  1       -2 0.70546533E-01 0.15689568E+04</pdfrwt>
<totfact> 0.13020199E+01</totfact>
</mgrwt>
</event>
<event>
12    5  0.5029243E-008  0.1805021E+04  0.7818608E-02  0.8703634E-01
         -2   -1    0    0    0  501 -0.00000000000E+00  0.00000000000E+00  0.89129124372E+03  0.89129124372E+03  0.00000000000E+00 0.  1.
          1   -1    0    0  501    0  0.00000000000E+00 -0.00000000000E+00 -0.91387092171E+03  0.91387092171E+03  0.00000000000E+00 0. -1.
        -24    2    1    2    0    0  0.50105803299E+03  0.19703894571E+03 -0.41491977078E+03  0.68446704094E+03  0.80331907695E+02 0.  0.
        254    2    1    2    0    0 -0.50105803299E+03 -0.19703894571E+03  0.39234009280E+03  0.11206951245E+04  0.90118994395E+03 0.  0.
         23    2    4    4    0    0  0.21302230601E+02  0.19738764562E+03 -0.15077863591E+03  0.26530475228E+03  0.90756525196E+02 0.  0.
         23    2    4    4    0    0 -0.52236026360E+03 -0.39442659132E+03  0.54311872871E+03  0.85539037221E+03  0.91006342995E+02 0.  0.
          3    1    3    3  502    0  0.26639734809E+03  0.13776832688E+03 -0.26150629277E+03  0.39791104548E+03  0.00000000000E+00 0. -1.
         -2    1    3    3    0  502  0.23466068490E+03  0.59270618828E+02 -0.15341347802E+03  0.28655599546E+03  0.00000000000E+00 0.  1.
         13    1    5    5    0    0  0.16813197150E+02  0.73947834871E+01  0.55884349841E+01  0.19198880874E+02  0.00000000000E+00 0.  1.
        -13    1    5    5    0    0  0.44890334513E+01  0.18999286213E+03 -0.15636707089E+03  0.24610587141E+03  0.00000000000E+00 0. -1.
          1    1    6    6  503    0 -0.32331206976E+03 -0.20820111709E+03  0.36193703087E+03  0.52808788466E+03  0.00000000000E+00 0. -1.
         -1    1    6    6    0  503 -0.19904819383E+03 -0.18622547424E+03  0.18118169784E+03  0.32730248755E+03  0.00000000000E+00 0.  1.
<mgrwt>
<rscale>  0 0.18050209E+04</rscale>
<asrwt>0</asrwt>
<pdfrwt beam="1">  1        1 0.14059553E+00 0.18050209E+04</pdfrwt>
<pdfrwt beam="2">  1       -2 0.13712173E+00 0.18050209E+04</pdfrwt>
<totfact> 0.55533064E+00</totfact>
</mgrwt>
</event>
<event>
12    5  0.5029243E-008  0.2269698E+04  0.7818608E-02  0.8489965E-01
          1   -1    0    0  501    0  0.00000000000E+00  0.00000000000E+00  0.47346887282E+04  0.47346887282E+04  0.00000000000E+00 0. -1.
         -2   -1    0    0    0  501 -0.00000000000E+00 -0.00000000000E+00 -0.27200990170E+03  0.27200990170E+03  0.00000000000E+00 0.  1.
        -24    2    1    2    0    0  0.90731030834E+03 -0.10650629230E+03  0.25079623062E+04  0.26703738590E+04  0.80411638927E+02 0.  0.
        254    2    1    2    0    0 -0.90731030834E+03  0.10650629230E+03  0.19547165204E+04  0.23363247710E+04  0.89606984910E+03 0.  0.
         23    2    4    4    0    0 -0.91477094882E+03 -0.15340600322E+03  0.17849942548E+04  0.20136269007E+04  0.90274663927E+02 0.  0.
         23    2    4    4    0    0  0.74606404785E+01  0.25991229552E+03  0.16972226553E+03  0.32269787022E+03  0.87853318137E+02 0.  0.
          1    1    3    3  502    0  0.86433837101E+03 -0.11245613821E+03  0.24224131734E+04  0.25744538809E+04  0.00000000000E+00 0. -1.
         -2    1    3    3    0  502  0.42971937325E+02  0.59498459089E+01  0.85549132822E+02  0.95919978057E+02  0.00000000000E+00 0.  1.
         13    1    5    5    0    0 -0.12032760939E+03 -0.48458722494E+02  0.27992187986E+03  0.30851781179E+03  0.00000000000E+00 0.  1.
        -13    1    5    5    0    0 -0.79444333942E+03 -0.10494728072E+03  0.15050723750E+04  0.17051090889E+04  0.00000000000E+00 0. -1.
          4    1    6    6  503    0 -0.16659814029E+02  0.24524248605E+03  0.14658523047E+03  0.28619688356E+03  0.00000000000E+00 0. -1.
         -4    1    6    6    0  503  0.24120454508E+02  0.14669809467E+02  0.23137035059E+02  0.36500986654E+02  0.00000000000E+00 0.  1.
<mgrwt>
<rscale>  0 0.22696980E+04</rscale>
<asrwt>0</asrwt>
<pdfrwt beam="1">  1        1 0.72841359E+00 0.22696980E+04</pdfrwt>
<pdfrwt beam="2">  1       -2 0.41847681E-01 0.22696980E+04</pdfrwt>
<totfact> 0.78451393E-02</totfact>
</mgrwt>
</event>
<event>
12    5  0.5029243E-008  0.1392793E+04  0.7818608E-02  0.8959052E-01
          1   -1    0    0  501    0  0.00000000000E+00  0.00000000000E+00  0.14908931186E+04  0.14908931186E+04  0.00000000000E+00 0. -1.
         -2   -1    0    0    0  501 -0.00000000000E+00 -0.00000000000E+00 -0.32528712633E+03  0.32528712633E+03  0.00000000000E+00 0.  1.
        -24    2    1    2    0    0  0.21390443205E+03 -0.19611351374E+03  0.55820735219E+02  0.30559973615E+03  0.77843611989E+02 0.  0.
        254    2    1    2    0    0 -0.21390443205E+03  0.19611351374E+03  0.11097852570E+04  0.15105805088E+04  0.98286038704E+03 0.  0.
         23    2    4    4    0    0  0.21883984242E+03 -0.54348512678E+01  0.97828216683E+03  0.10065424669E+04  0.90395384462E+02 0.  0.
         23    2    4    4    0    0 -0.43274427447E+03  0.20154836501E+03  0.13150309021E+03  0.50403804186E+03  0.94190946345E+02 0.  0.
          1    1    3    3  502    0  0.61296649745E+02 -0.10479934087E+03  0.36135293270E+02  0.12667257216E+03  0.00000000000E+00 0. -1.
         -2    1    3    3    0  502  0.15260778231E+03 -0.91314172869E+02  0.19685441949E+02  0.17892716399E+03  0.00000000000E+00 0.  1.
         13    1    5    5    0    0  0.41692419005E+02  0.35244180703E+02  0.25422371941E+03  0.26001944078E+03  0.00000000000E+00 0.  1.
        -13    1    5    5    0    0  0.17714742341E+03 -0.40679031971E+02  0.72405844743E+03  0.74652302614E+03  0.00000000000E+00 0. -1.
          4    1    6    6  503    0 -0.20099117633E+03  0.12254947057E+03  0.10499698764E+03  0.25775995250E+03  0.00000000000E+00 0. -1.
         -4    1    6    6    0  503 -0.23175309815E+03  0.78998894439E+02  0.26506102570E+02  0.24627808936E+03  0.00000000000E+00 0.  1.
<mgrwt>
<rscale>  0 0.13927934E+04</rscale>
<asrwt>0</asrwt>
<pdfrwt beam="1">  1        1 0.22936817E+00 0.13927934E+04</pdfrwt>
<pdfrwt beam="2">  1       -2 0.50044174E-01 0.13927934E+04</pdfrwt>
<totfact> 0.21462920E+01</totfact>
</mgrwt>
</event>
<event>
12    5  0.5029243E-008  0.1536467E+04  0.7818608E-02  0.8860559E-01
          1   -1    0    0  501    0  0.00000000000E+00  0.00000000000E+00  0.19950862967E+04  0.19950862967E+04  0.00000000000E+00 0. -1.
         -2   -1    0    0    0  501 -0.00000000000E+00 -0.00000000000E+00 -0.29581802445E+03  0.29581802445E+03  0.00000000000E+00 0.  1.
        -24    2    1    2    0    0  0.31881512795E+03 -0.22207738216E+03  0.10018112056E+04  0.10775136391E+04  0.80302561896E+02 0.  0.
        254    2    1    2    0    0 -0.31881512795E+03  0.22207738216E+03  0.69745706669E+03  0.12133906820E+04  0.91373362521E+03 0.  0.
         23    2    4    4    0    0 -0.29182742913E+03  0.50095536891E+03  0.70490141063E+03  0.91725935163E+03  0.91428602834E+02 0.  0.
         23    2    4    4    0    0 -0.26987698815E+02 -0.27887798676E+03 -0.74443439411E+01  0.29613133038E+03  0.95588070331E+02 0.  0.
          1    1    3    3  502    0  0.17338104226E+03 -0.13377500767E+03  0.66565457126E+03  0.70075155849E+03  0.00000000000E+00 0. -1.
         -2    1    3    3    0  502  0.14543408569E+03 -0.88302374484E+02  0.33615663429E+03  0.37676208063E+03  0.00000000000E+00 0.  1.
         13    1    5    5    0    0 -0.64407246340E+02  0.98661789696E+02  0.91065317376E+02  0.14891384810E+03  0.00000000000E+00 0.  1.
        -13    1    5    5    0    0 -0.22742018279E+03  0.40229357922E+03  0.61383609325E+03  0.76834550353E+03  0.00000000000E+00 0. -1.
          1    1    6    6  503    0 -0.26751510144E+02 -0.24859688529E+03 -0.38242242940E+02  0.25293976322E+03  0.00000000000E+00 0. -1.
         -1    1    6    6    0  503 -0.23618867148E+00 -0.30281101467E+02  0.30797898999E+02  0.43191567162E+02  0.00000000000E+00 0.  1.
<mgrwt>
<rscale>  0 0.15364667E+04</rscale>
<asrwt>0</asrwt>
<pdfrwt beam="1">  1        1 0.30693634E+00 0.15364667E+04</pdfrwt>
<pdfrwt beam="2">  1       -2 0.45510467E-01 0.15364667E+04</pdfrwt>
<totfact> 0.11647999E+01</totfact>
</mgrwt>
</event>
<event>
12    5  0.5029243E-008  0.2434435E+04  0.7818608E-02  0.8426723E-01
         -2   -1    0    0    0  501 -0.00000000000E+00  0.00000000000E+00  0.14308524817E+04  0.14308524817E+04  0.00000000000E+00 0.  1.
          1   -1    0    0  501    0  0.00000000000E+00 -0.00000000000E+00 -0.10354791520E+04  0.10354791520E+04  0.00000000000E+00 0. -1.
        -24    2    1    2    0    0 -0.30749058949E+03 -0.96745487089E+03 -0.56456389537E+02  0.10200500444E+04  0.82434090248E+02 0.  0.
        254    2    1    2    0    0  0.30749058949E+03  0.96745487089E+03  0.45182971919E+03  0.14462815893E+04  0.92577586414E+03 0.  0.
         23    2    4    4    0    0  0.55959125801E+03  0.94663393573E+03  0.33312955929E+03  0.11525781205E+04  0.90569510866E+02 0.  0.
         23    2    4    4    0    0 -0.25210066852E+03  0.20820935156E+02  0.11870015989E+03  0.29370346880E+03  0.90464032725E+02 0.  0.
          1    1    3    3  502    0 -0.66199762747E+02 -0.25809287329E+03  0.18167968250E+02  0.26706631180E+03  0.00000000000E+00 0. -1.
         -2    1    3    3    0  502 -0.24129082675E+03 -0.70936199760E+03 -0.74624357787E+02  0.75298373255E+03  0.00000000000E+00 0.  1.
         13    1    5    5    0    0  0.11232646221E+03  0.16036665753E+03  0.92489930540E+02  0.21653887922E+03  0.00000000000E+00 0.  1.
        -13    1    5    5    0    0  0.44726479581E+03  0.78626727820E+03  0.24063962875E+03  0.93603924130E+03  0.00000000000E+00 0. -1.
          2    1    6    6  503    0 -0.22386090298E+03  0.48125562040E+02  0.10680898735E+03  0.25266169749E+03  0.00000000000E+00 0. -1.
         -2    1    6    6    0  503 -0.28239765545E+02 -0.27304626884E+02  0.11891172545E+02  0.41041771304E+02  0.00000000000E+00 0.  1.
<mgrwt>
<rscale>  0 0.24344346E+04</rscale>
<asrwt>0</asrwt>
<pdfrwt beam="1">  1        1 0.15930448E+00 0.24344346E+04</pdfrwt>
<pdfrwt beam="2">  1       -2 0.22013115E+00 0.24344346E+04</pdfrwt>
<totfact> 0.10975559E+00</totfact>
</mgrwt>
</event>
<event>
12    5  0.5029243E-008  0.1535301E+04  0.7818608E-02  0.8861312E-01
         -2   -1    0    0    0  501 -0.00000000000E+00  0.00000000000E+00  0.24885222689E+03  0.24885222689E+03  0.00000000000E+00 0.  1.
          1   -1    0    0  501    0  0.00000000000E+00 -0.00000000000E+00 -0.23680216953E+04  0.23680216953E+04  0.00000000000E+00 0. -1.
        -24    2    1    2    0    0  0.21316599983E+03  0.44558290067E+03 -0.72694250329E+03  0.88222039046E+03  0.76704298450E+02 0.  0.
        254    2    1    2    0    0 -0.21316599983E+03 -0.44558290067E+03 -0.13922269651E+04  0.17346535318E+04  0.90925413825E+03 0.  0.
         23    2    4    4    0    0 -0.39879323178E+02 -0.30278465449E+03  0.34682266337E+01  0.31823025537E+03  0.89384335434E+02 0.  0.
         23    2    4    4    0    0 -0.17328667666E+03 -0.14279824617E+03 -0.13956951918E+04  0.14164232764E+04  0.88714249989E+02 0.  0.
          1    1    3    3  502    0 -0.29194389861E+01  0.41741637034E+02 -0.62013642594E+02  0.74810288423E+02  0.00000000000E+00 0. -1.
         -2    1    3    3    0  502  0.21608543882E+03  0.40384126363E+03 -0.66492886070E+03  0.80741010204E+03  0.00000000000E+00 0.  1.
         13    1    5    5    0    0  0.16025447407E+02 -0.45809015308E+02  0.24574307150E+02  0.54398321849E+02  0.00000000000E+00 0.  1.
        -13    1    5    5    0    0 -0.55904770584E+02 -0.25697563918E+03 -0.21106080517E+02  0.26383193352E+03  0.00000000000E+00 0. -1.
          3    1    6    6  503    0 -0.16993158810E+03 -0.10550095618E+03 -0.12545519475E+04  0.12703967039E+04  0.00000000000E+00 0. -1.
         -3    1    6    6    0  503 -0.33550885535E+01 -0.37297289994E+02 -0.14114324427E+03  0.14602657246E+03  0.00000000000E+00 0.  1.
<mgrwt>
<rscale>  0 0.15353012E+04</rscale>
<asrwt>0</asrwt>
<pdfrwt beam="1">  1        1 0.36431104E+00 0.15353012E+04</pdfrwt>
<pdfrwt beam="2">  1       -2 0.38284957E-01 0.15353012E+04</pdfrwt>
<totfact> 0.91362482E+00</totfact>
</mgrwt>
</event>
<event>
12    5  0.5029243E-008  0.1269011E+04  0.7818608E-02  0.9054507E-01
          1   -1    0    0  501    0  0.00000000000E+00  0.00000000000E+00  0.27916805780E+04  0.27916805780E+04  0.00000000000E+00 0. -1.
         -2   -1    0    0    0  501 -0.00000000000E+00 -0.00000000000E+00 -0.14421328865E+03  0.14421328865E+03  0.00000000000E+00 0.  1.
        -24    2    1    2    0    0  0.15124179364E+03 -0.17359547651E+03  0.17431487143E+03  0.29467153309E+03  0.58618839998E+02 0.  0.
        254    2    1    2    0    0 -0.15124179364E+03  0.17359547651E+03  0.24731524179E+04  0.26412223336E+04  0.89808856102E+03 0.  0.
         23    2    4    4    0    0 -0.34237329943E+01 -0.13002189947E+02 -0.51067828140E+02  0.10412107403E+03  0.89735701340E+02 0.  0.
         23    2    4    4    0    0 -0.14781806064E+03  0.18659766646E+03  0.25242202461E+04  0.25371012596E+04  0.92336787410E+02 0.  0.
          3    1    3    3  502    0  0.47619672413E+01  0.75661676351E+00  0.17577858032E+02  0.18227174601E+02  0.00000000000E+00 0. -1.
         -4    1    3    3    0  502  0.14647982639E+03 -0.17435209328E+03  0.15673701340E+03  0.27644435849E+03  0.00000000000E+00 0.  1.
         13    1    5    5    0    0 -0.27719006686E+02 -0.34295844594E+02 -0.48236786958E+00  0.44099670824E+02  0.00000000000E+00 0.  1.
        -13    1    5    5    0    0  0.24295273692E+02  0.21293654646E+02 -0.50585460270E+02  0.60021403205E+02  0.00000000000E+00 0. -1.
          2    1    6    6  503    0 -0.14794819311E+03  0.12516377540E+03  0.19477323817E+04  0.19573492456E+04  0.00000000000E+00 0. -1.
         -2    1    6    6    0  503  0.13013246457E+00  0.61433891059E+02  0.57648786437E+03  0.57975201395E+03  0.00000000000E+00 0.  1.
<mgrwt>
<rscale>  0 0.12690113E+04</rscale>
<asrwt>0</asrwt>
<pdfrwt beam="1">  1        1 0.42948928E+00 0.12690113E+04</pdfrwt>
<pdfrwt beam="2">  1       -2 0.22186662E-01 0.12690113E+04</pdfrwt>
<totfact> 0.13099393E+01</totfact>
</mgrwt>
</event>
<event>
12    5  0.5029243E-008  0.1440316E+04  0.7818608E-02  0.8925142E-01
         -2   -1    0    0    0  501 -0.00000000000E+00  0.00000000000E+00  0.64461989510E+03  0.64461989510E+03  0.00000000000E+00 0.  1.
          1   -1    0    0  501    0  0.00000000000E+00 -0.00000000000E+00 -0.80454810813E+03  0.80454810813E+03  0.00000000000E+00 0. -1.
        -24    2    1    2    0    0 -0.32978433411E+03 -0.11715259819E+03 -0.31205613396E+03  0.47581391999E+03  0.80854297503E+02 0.  0.
        254    2    1    2    0    0  0.32978433411E+03  0.11715259819E+03  0.15212792092E+03  0.97335408325E+03  0.89542885187E+03 0.  0.
         23    2    4    4    0    0 -0.17676244291E+03  0.30717382508E+03  0.20916284143E+03  0.42178680637E+03  0.92489435903E+02 0.  0.
         23    2    4    4    0    0  0.50654677702E+03 -0.19002122688E+03 -0.57034920512E+02  0.55156727688E+03  0.90971285535E+02 0.  0.
          3    1    3    3  502    0 -0.29094249089E+03 -0.73638322468E+02 -0.27218868629E+03  0.40516270371E+03  0.00000000000E+00 0. -1.
         -4    1    3    3    0  502 -0.38841843223E+02 -0.43514275725E+02 -0.39867447671E+02  0.70651216271E+02  0.00000000000E+00 0.  1.
         13    1    5    5    0    0 -0.87400867059E+02  0.14087931363E+03  0.15099698434E+03  0.22424536082E+03  0.00000000000E+00 0.  1.
        -13    1    5    5    0    0 -0.89361575849E+02  0.16629451145E+03  0.58165857093E+02  0.19754144554E+03  0.00000000000E+00 0. -1.
          2    1    6    6  503    0  0.34179006754E+03 -0.14404233110E+03  0.11058060237E+01  0.37090411999E+03  0.00000000000E+00 0. -1.
         -2    1    6    6    0  503  0.16475670948E+03 -0.45978895788E+02 -0.58140726536E+02  0.18066315689E+03  0.00000000000E+00 0.  1.
<mgrwt>
<rscale>  0 0.14403162E+04</rscale>
<asrwt>0</asrwt>
<pdfrwt beam="1">  1        1 0.12377663E+00 0.14403162E+04</pdfrwt>
<pdfrwt beam="2">  1       -2 0.99172292E-01 0.14403162E+04</pdfrwt>
<totfact> 0.15716178E+01</totfact>
</mgrwt>
</event>
<event>
12    5  0.5029243E-008  0.2960563E+04  0.7818608E-02  0.8255083E-01
         -2   -1    0    0    0  501 -0.00000000000E+00  0.00000000000E+00  0.12139868386E+04  0.12139868386E+04  0.00000000000E+00 0.  1.
          1   -1    0    0  501    0  0.00000000000E+00 -0.00000000000E+00 -0.18049887660E+04  0.18049887660E+04  0.00000000000E+00 0. -1.
        -24    2    1    2    0    0 -0.78454541174E+03 -0.75584773449E+03  0.52996561520E+03  0.12140991114E+04  0.79723260280E+02 0.  0.
        254    2    1    2    0    0  0.78454541174E+03  0.75584773449E+03 -0.11209675426E+04  0.18048764931E+04  0.90232678284E+03 0.  0.
         23    2    4    4    0    0  0.41681495475E+03  0.45548955174E+03 -0.11629680910E+04  0.13193247927E+04  0.83172650170E+02 0.  0.
         23    2    4    4    0    0  0.36773045699E+03  0.30035818274E+03  0.42000548321E+02  0.48555170046E+03  0.92496923312E+02 0.  0.
          1    1    3    3  502    0 -0.18111097064E+03 -0.14685483106E+03  0.14266288517E+03  0.27335000256E+03  0.00000000000E+00 0. -1.
         -2    1    3    3    0  502 -0.60343444110E+03 -0.60899290342E+03  0.38730273003E+03  0.94074910886E+03  0.00000000000E+00 0.  1.
         13    1    5    5    0    0  0.16681620560E+03  0.20006931944E+03 -0.40856715733E+03  0.48454360080E+03  0.00000000000E+00 0.  1.
        -13    1    5    5    0    0  0.24999874915E+03  0.25542023230E+03 -0.75440093362E+03  0.83478119187E+03  0.00000000000E+00 0. -1.
          2    1    6    6  503    0  0.30437680894E+03  0.22782303783E+03 -0.71672797263E+00  0.38019612319E+03  0.00000000000E+00 0. -1.
         -2    1    6    6    0  503  0.63353648049E+02  0.72535144917E+02  0.42717276294E+02  0.10535557728E+03  0.00000000000E+00 0.  1.
<mgrwt>
<rscale>  0 0.29605625E+04</rscale>
<asrwt>0</asrwt>
<pdfrwt beam="1">  1        1 0.27769058E+00 0.29605625E+04</pdfrwt>
<pdfrwt beam="2">  1       -2 0.18676721E+00 0.29605625E+04</pdfrwt>
<totfact> 0.49444324E-01</totfact>
</mgrwt>
</event>
<event>
12    5  0.5029243E-008  0.2130877E+04  0.7818608E-02  0.8547762E-01
          1   -1    0    0  501    0  0.00000000000E+00  0.00000000000E+00  0.55019742225E+03  0.55019742225E+03  0.00000000000E+00 0. -1.
         -2   -1    0    0    0  501 -0.00000000000E+00 -0.00000000000E+00 -0.20631858258E+04  0.20631858258E+04  0.00000000000E+00 0.  1.
        -24    2    1    2    0    0  0.12893890153E+03  0.48882493354E+03 -0.14934694859E+04  0.15787766556E+04  0.80681888752E+02 0.  0.
        254    2    1    2    0    0 -0.12893890153E+03 -0.48882493354E+03 -0.19518917628E+02  0.10346065924E+04  0.90247147148E+03 0.  0.
         23    2    4    4    0    0  0.15400811401E+03  0.14959427518E+03 -0.19997087487E+03  0.30751216676E+03  0.92078420716E+02 0.  0.
         23    2    4    4    0    0 -0.28294701554E+03 -0.63841920872E+03  0.18045195724E+03  0.72709442561E+03  0.92007038947E+02 0.  0.
          3    1    3    3  502    0  0.51825820785E+00 -0.22229951378E+01 -0.24211974827E+02  0.24319334365E+02  0.00000000000E+00 0. -1.
         -4    1    3    3    0  502  0.12842064332E+03  0.49104792868E+03 -0.14692575111E+04  0.15544573213E+04  0.00000000000E+00 0.  1.
         13    1    5    5    0    0  0.19898111642E+02 -0.10309840598E+02 -0.75587180016E+01  0.23650832499E+02  0.00000000000E+00 0.  1.
        -13    1    5    5    0    0  0.13411000237E+03  0.15990411578E+03 -0.19241215686E+03  0.28386133426E+03  0.00000000000E+00 0. -1.
          3    1    6    6  503    0 -0.28715540286E+03 -0.61918701576E+03  0.16533362706E+03  0.70227202288E+03  0.00000000000E+00 0. -1.
         -3    1    6    6    0  503  0.42083873249E+01 -0.19232192958E+02  0.15118330181E+02  0.24822402730E+02  0.00000000000E+00 0.  1.
<mgrwt>
<rscale>  0 0.21308773E+04</rscale>
<asrwt>0</asrwt>
<pdfrwt beam="1">  1        1 0.84645758E-01 0.21308773E+04</pdfrwt>
<pdfrwt beam="2">  1       -2 0.31741320E+00 0.21308773E+04</pdfrwt>
<totfact> 0.77446477E-01</totfact>
</mgrwt>
</event>
<event>
12    5  0.5029243E-008  0.1369624E+04  0.7818608E-02  0.8976104E-01
         -2   -1    0    0    0  501 -0.00000000000E+00  0.00000000000E+00  0.28580902300E+03  0.28580902300E+03  0.00000000000E+00 0.  1.
          1   -1    0    0  501    0  0.00000000000E+00 -0.00000000000E+00 -0.16408424399E+04  0.16408424399E+04  0.00000000000E+00 0. -1.
        -24    2    1    2    0    0  0.35041874579E+03 -0.15554791375E+03 -0.28023794707E+03  0.48155937050E+03  0.79860312183E+02 0.  0.
        254    2    1    2    0    0 -0.35041874579E+03  0.15554791375E+03 -0.10747954698E+04  0.14450920924E+04  0.88663261991E+03 0.  0.
         23    2    4    4    0    0 -0.42693221997E+03 -0.21374996031E+03 -0.89248163516E+03  0.10162938063E+04  0.91484783171E+02 0.  0.
         23    2    4    4    0    0  0.76513474180E+02  0.36929787407E+03 -0.18231383464E+03  0.42879828612E+03  0.91620982114E+02 0.  0.
          1    1    3    3  502    0  0.42627069465E+00  0.41548624260E+01  0.17943737219E+01  0.45458074682E+01  0.00000000000E+00 0. -1.
         -2    1    3    3    0  502  0.34999247509E+03 -0.15970277618E+03 -0.28203232079E+03  0.47701356303E+03  0.00000000000E+00 0.  1.
         13    1    5    5    0    0 -0.26467185667E+02 -0.27013785601E+02 -0.12617981809E+03  0.13172548357E+03  0.00000000000E+00 0. -1.
        -13    1    5    5    0    0 -0.40046503430E+03 -0.18673617471E+03 -0.76630181707E+03  0.88456832268E+03  0.00000000000E+00 0.  1.
          1    1    6    6  503    0 -0.11413738783E+02  0.21203334926E+02  0.38326206269E+01  0.24383269384E+02  0.00000000000E+00 0. -1.
         -1    1    6    6    0  503  0.87927212963E+02  0.34809453914E+03 -0.18614645526E+03  0.40441501674E+03  0.00000000000E+00 0.  1.
<mgrwt>
<rscale>  0 0.13696241E+04</rscale>
<asrwt>0</asrwt>
<pdfrwt beam="1">  1        1 0.25243730E+00 0.13696241E+04</pdfrwt>
<pdfrwt beam="2">  1       -2 0.43970618E-01 0.13696241E+04</pdfrwt>
<totfact> 0.22010860E+01</totfact>
</mgrwt>
</event>
<event>
12    5  0.5029243E-008  0.2103101E+04  0.7818608E-02  0.8559879E-01
         -2   -1    0    0    0  501 -0.00000000000E+00  0.00000000000E+00  0.68197557764E+03  0.68197557764E+03  0.00000000000E+00 0.  1.
          1   -1    0    0  501    0  0.00000000000E+00 -0.00000000000E+00 -0.16214043808E+04  0.16214043808E+04  0.00000000000E+00 0. -1.
        -24    2    1    2    0    0  0.34923345510E+03 -0.65167804543E+03 -0.81399049747E+03  0.11026603100E+04  0.81430634654E+02 0.  0.
        254    2    1    2    0    0 -0.34923345510E+03  0.65167804543E+03 -0.12543830573E+03  0.12007196485E+04  0.93773377063E+03 0.  0.
         23    2    4    4    0    0 -0.43435995119E+03  0.75913425515E+03 -0.32916655093E+03  0.93869881770E+03  0.88608507219E+02 0.  0.
         23    2    4    4    0    0  0.85126496086E+02 -0.10745620972E+03  0.20372824520E+03  0.26202083076E+03  0.91413130977E+02 0.  0.
          3    1    3    3  502    0  0.21604104737E+03 -0.32803302692E+03 -0.40096926295E+03  0.56129827251E+03  0.00000000000E+00 0. -1.
         -4    1    3    3    0  502  0.13319240773E+03 -0.32364501851E+03 -0.41302123453E+03  0.54136203751E+03  0.00000000000E+00 0.  1.
         13    1    5    5    0    0 -0.27494335885E+03  0.50406384161E+03 -0.17233298300E+03  0.59947715889E+03  0.00000000000E+00 0. -1.
        -13    1    5    5    0    0 -0.15941659233E+03  0.25507041354E+03 -0.15683356793E+03  0.33922165881E+03  0.00000000000E+00 0.  1.
          3    1    6    6  503    0  0.76008597740E+02 -0.36497515250E+02  0.15171027340E+03  0.17356665176E+03  0.00000000000E+00 0. -1.
         -3    1    6    6    0  503  0.91178983461E+01 -0.70958694472E+02  0.52017971805E+02  0.88454178997E+02  0.00000000000E+00 0.  1.
<mgrwt>
<rscale>  0 0.21031007E+04</rscale>
<asrwt>0</asrwt>
<pdfrwt beam="1">  1        1 0.24944683E+00 0.21031007E+04</pdfrwt>
<pdfrwt beam="2">  1       -2 0.10491932E+00 0.21031007E+04</pdfrwt>
<totfact> 0.32068700E+00</totfact>
</mgrwt>
</event>
<event>
12    5  0.5029243E-008  0.1438433E+04  0.7818608E-02  0.8926459E-01
          3   -1    0    0  501    0  0.00000000000E+00  0.00000000000E+00  0.38210674269E+03  0.38210674269E+03  0.00000000000E+00 0. -1.
         -4   -1    0    0    0  501 -0.00000000000E+00 -0.00000000000E+00 -0.13537378845E+04  0.13537378845E+04  0.00000000000E+00 0.  1.
        -24    2    1    2    0    0 -0.40064634715E+03 -0.14383230192E+03 -0.27799197437E+03  0.51581628773E+03  0.87072833412E+02 0.  0.
        254    2    1    2    0    0  0.40064634715E+03  0.14383230192E+03 -0.69363916740E+03  0.12200283394E+04  0.90891618309E+03 0.  0.
         23    2    4    4    0    0 -0.15926068603E+03  0.20967738930E+02  0.11950527970E+03  0.21996130811E+03  0.91092551832E+02 0.  0.
         23    2    4    4    0    0  0.55990703318E+03  0.12286456299E+03 -0.81314444710E+03  0.10000670313E+04  0.10167885038E+03 0.  0.
          1    1    3    3  502    0  0.55221244507E+00  0.43439356893E+01 -0.10477432920E+02  0.11355673316E+02  0.00000000000E+00 0. -1.
         -2    1    3    3    0  502 -0.40119855960E+03 -0.14817623761E+03 -0.26751454145E+03  0.50446061442E+03  0.00000000000E+00 0.  1.
         13    1    5    5    0    0 -0.11424184058E+03  0.34983156671E+02  0.37249262204E+02  0.12515001767E+03  0.00000000000E+00 0. -1.
        -13    1    5    5    0    0 -0.45018845457E+02 -0.14015417741E+02  0.82256017495E+02  0.94811290440E+02  0.00000000000E+00 0.  1.
          1    1    6    6  503    0  0.25334454697E+03  0.58064994675E+02 -0.28297098575E+03  0.38422334893E+03  0.00000000000E+00 0. -1.
         -1    1    6    6    0  503  0.30656248621E+03  0.64799568315E+02 -0.53017346134E+03  0.61584368237E+03  0.00000000000E+00 0.  1.
<mgrwt>
<rscale>  0 0.14384330E+04</rscale>
<asrwt>0</asrwt>
<pdfrwt beam="1">  1        3 0.58785652E-01 0.14384330E+04</pdfrwt>
<pdfrwt beam="2">  1       -4 0.20826737E+00 0.14384330E+04</pdfrwt>
<totfact> 0.73127738E-01</totfact>
</mgrwt>
</event>
<event>
12    5  0.5029243E-008  0.1163952E+04  0.7818608E-02  0.9145008E-01
          1   -1    0    0  501    0  0.00000000000E+00  0.00000000000E+00  0.15917094198E+04  0.15917094198E+04  0.00000000000E+00 0. -1.
         -2   -1    0    0    0  501 -0.00000000000E+00 -0.00000000000E+00 -0.21278748084E+03  0.21278748084E+03  0.00000000000E+00 0.  1.
        -24    2    1    2    0    0 -0.51616650136E+02  0.16663402843E+03  0.69321481048E+02  0.20419774185E+03  0.80374573351E+02 0.  0.
        254    2    1    2    0    0  0.51616650136E+02 -0.16663402843E+03  0.13096004579E+04  0.16002991587E+04  0.90303535935E+03 0.  0.
         23    2    4    4    0    0 -0.27421151672E+03  0.12632743772E+03  0.10184307818E+04  0.10660956886E+04  0.90599020576E+02 0.  0.
         23    2    4    4    0    0  0.32582816686E+03 -0.29296146616E+03  0.29116967611E+03  0.53420347018E+03  0.92753179417E+02 0.  0.
          3    1    3    3  502    0  0.22442753187E+01  0.37962019980E+01  0.27242415071E+02  0.27597048759E+02  0.00000000000E+00 0. -1.
         -4    1    3    3    0  502 -0.53860925454E+02  0.16283782643E+03  0.42079065977E+02  0.17660069310E+03  0.00000000000E+00 0.  1.
         13    1    5    5    0    0 -0.19383454969E+03  0.13004747171E+03  0.71248372568E+03  0.74974478118E+03  0.00000000000E+00 0.  1.
        -13    1    5    5    0    0 -0.80376967038E+02 -0.37200339831E+01  0.30594705607E+03  0.31635090738E+03  0.00000000000E+00 0. -1.
          4    1    6    6  503    0  0.13348073807E+03 -0.69204609850E+02  0.12523475437E+03  0.19567863747E+03  0.00000000000E+00 0. -1.
         -4    1    6    6    0  503  0.19234742879E+03 -0.22375685631E+03  0.16593492174E+03  0.33852483270E+03  0.00000000000E+00 0.  1.
<mgrwt>
<rscale>  0 0.11639516E+04</rscale>
<asrwt>0</asrwt>
<pdfrwt beam="1">  1        1 0.24487836E+00 0.11639516E+04</pdfrwt>
<pdfrwt beam="2">  1       -2 0.32736537E-01 0.11639516E+04</pdfrwt>
<totfact> 0.42842230E+01</totfact>
</mgrwt>
</event>
<event>
12    5  0.5029243E-008  0.2806974E+04  0.7818608E-02  0.8301106E-01
         -2   -1    0    0    0  501 -0.00000000000E+00  0.00000000000E+00  0.83061407584E+03  0.83061407584E+03  0.00000000000E+00 0.  1.
          1   -1    0    0  501    0  0.00000000000E+00 -0.00000000000E+00 -0.23714699812E+04  0.23714699812E+04  0.00000000000E+00 0. -1.
        -24    2    1    2    0    0 -0.15447815166E+03 -0.12301898822E+04 -0.43637203822E+03  0.13167589652E+04  0.78758942572E+02 0.  0.
        254    2    1    2    0    0  0.15447815166E+03  0.12301898822E+04 -0.11044838671E+04  0.18853250918E+04  0.89293641627E+03 0.  0.
         23    2    4    4    0    0 -0.16965007721E+03  0.52888321946E+02  0.46920842485E+02  0.20446716459E+03  0.89593150634E+02 0.  0.
         23    2    4    4    0    0  0.32412822887E+03  0.11773015603E+04 -0.11514047096E+04  0.16808579272E+04  0.91937444512E+02 0.  0.
          3    1    3    3  502    0 -0.15646201177E+03 -0.12259555079E+04 -0.43880653977E+03  0.13114871131E+04  0.00000000000E+00 0. -1.
         -4    1    3    3    0  502  0.19838601095E+01 -0.42343742880E+01  0.24345015402E+01  0.52718520744E+01  0.00000000000E+00 0.  1.
         13    1    5    5    0    0 -0.21233889544E+02  0.13348595656E+02  0.44235136750E+02  0.50850864245E+02  0.00000000000E+00 0. -1.
        -13    1    5    5    0    0 -0.14841618767E+03  0.39539726290E+02  0.26857057346E+01  0.15361630034E+03  0.00000000000E+00 0.  1.
          2    1    6    6  503    0  0.24489796102E+03  0.89405203956E+03 -0.92638430603E+03  0.13105311683E+04  0.00000000000E+00 0. -1.
         -2    1    6    6    0  503  0.79230267848E+02  0.28324952070E+03 -0.22502040355E+03  0.37032675887E+03  0.00000000000E+00 0.  1.
<mgrwt>
<rscale>  0 0.28069744E+04</rscale>
<asrwt>0</asrwt>
<pdfrwt beam="1">  1        1 0.36484153E+00 0.28069744E+04</pdfrwt>
<pdfrwt beam="2">  1       -2 0.12778678E+00 0.28069744E+04</pdfrwt>
<totfact> 0.57355098E-01</totfact>
</mgrwt>
</event>
<event>
12    5  0.5029243E-008  0.2573019E+04  0.7818608E-02  0.8377424E-01
          1   -1    0    0  501    0  0.00000000000E+00  0.00000000000E+00  0.27084825364E+04  0.27084825364E+04  0.00000000000E+00 0. -1.
         -2   -1    0    0    0  501 -0.00000000000E+00 -0.00000000000E+00 -0.61108249348E+03  0.61108249348E+03  0.00000000000E+00 0.  1.
        -24    2    1    2    0    0  0.10025452338E+04  0.27273114157E+03  0.35714191754E+03  0.11009831347E+04  0.71653976022E+02 0.  0.
        254    2    1    2    0    0 -0.10025452338E+04 -0.27273114157E+03  0.17402581254E+04  0.22185818952E+04  0.90229045281E+03 0.  0.
         23    2    4    4    0    0 -0.83529178978E+03 -0.13550830932E+03  0.17888751861E+04  0.19808976508E+04  0.88352676504E+02 0.  0.
         23    2    4    4    0    0 -0.16725344402E+03 -0.13722283225E+03 -0.48617060698E+02  0.23768424441E+03  0.85594165824E+02 0.  0.
          3    1    3    3  502    0  0.14828186003E+03  0.61571910504E+02  0.38628579491E+02  0.16513866092E+03  0.00000000000E+00 0. -1.
         -4    1    3    3    0  502  0.85426337377E+03  0.21115923107E+03  0.31851333805E+03  0.93584447380E+03  0.00000000000E+00 0.  1.
         13    1    5    5    0    0 -0.44903285385E+03 -0.29581796725E+02  0.92082389979E+03  0.10249010884E+04  0.00000000000E+00 0.  1.
        -13    1    5    5    0    0 -0.38625893593E+03 -0.10592651260E+03  0.86805128632E+03  0.95599656241E+03  0.00000000000E+00 0. -1.
          1    1    6    6  503    0 -0.51248137005E+02  0.17325699721E+01 -0.16322564101E+02  0.53812632755E+02  0.00000000000E+00 0. -1.
         -1    1    6    6    0  503 -0.11600530701E+03 -0.13895540222E+03 -0.32294496597E+02  0.18387161165E+03  0.00000000000E+00 0.  1.
<mgrwt>
<rscale>  0 0.25730187E+04</rscale>
<asrwt>0</asrwt>
<pdfrwt beam="1">  1        1 0.41668962E+00 0.25730187E+04</pdfrwt>
<pdfrwt beam="2">  1       -2 0.94012693E-01 0.25730187E+04</pdfrwt>
<totfact> 0.71740153E-01</totfact>
</mgrwt>
</event>
<event>
12    5  0.5029243E-008  0.1682802E+04  0.7818608E-02  0.8771234E-01
         -2   -1    0    0    0  501 -0.00000000000E+00  0.00000000000E+00  0.61083389065E+03  0.61083389065E+03  0.00000000000E+00 0.  1.
          1   -1    0    0  501    0  0.00000000000E+00 -0.00000000000E+00 -0.11589980318E+04  0.11589980318E+04  0.00000000000E+00 0. -1.
        -24    2    1    2    0    0  0.22740390876E+02 -0.41537201812E+03  0.25353903966E+03  0.49399233731E+03  0.81825093160E+02 0.  0.
        254    2    1    2    0    0 -0.22740390876E+02  0.41537201812E+03 -0.80170318085E+03  0.12758395852E+04  0.90110355572E+03 0.  0.
         23    2    4    4    0    0  0.70773288008E+02 -0.21095947270E+03  0.11780179467E+02  0.24087757555E+03  0.91490307442E+02 0.  0.
         23    2    4    4    0    0 -0.93513678884E+02  0.62633149082E+03 -0.81348336032E+03  0.10349620096E+04  0.91406998360E+02 0.  0.
          3    1    3    3  502    0 -0.67836739293E+00 -0.27004912832E+02 -0.41383132704E+01  0.27328577279E+02  0.00000000000E+00 0. -1.
         -4    1    3    3    0  502  0.23418758269E+02 -0.38836710529E+03  0.25767735293E+03  0.46666376003E+03  0.00000000000E+00 0.  1.
         13    1    5    5    0    0  0.34311813911E+02 -0.62334250555E+02  0.45122651803E+02  0.84255047753E+02  0.00000000000E+00 0. -1.
        -13    1    5    5    0    0  0.36461474097E+02 -0.14862522215E+03 -0.33342472336E+02  0.15662252780E+03  0.00000000000E+00 0.  1.
          4    1    6    6  503    0  0.12906458314E+02  0.10843500769E+03 -0.17109605062E+03  0.20297434837E+03  0.00000000000E+00 0. -1.
         -4    1    6    6    0  503 -0.10642013720E+03  0.51789648313E+03 -0.64238730970E+03  0.83198766127E+03  0.00000000000E+00 0.  1.
<mgrwt>
<rscale>  0 0.16828016E+04</rscale>
<asrwt>0</asrwt>
<pdfrwt beam="1">  1        1 0.17830739E+00 0.16828016E+04</pdfrwt>
<pdfrwt beam="2">  1       -2 0.93974446E-01 0.16828016E+04</pdfrwt>
<totfact> 0.91522269E+00</totfact>
</mgrwt>
</event>
<event>
12    5  0.5029243E-008  0.2963612E+04  0.7818608E-02  0.8254199E-01
         -2   -1    0    0    0  501 -0.00000000000E+00  0.00000000000E+00  0.17055992257E+04  0.17055992257E+04  0.00000000000E+00 0.  1.
          1   -1    0    0  501    0  0.00000000000E+00 -0.00000000000E+00 -0.12873769564E+04  0.12873769564E+04  0.00000000000E+00 0. -1.
        -24    2    1    2    0    0 -0.56454977807E+03 -0.11290611647E+04 -0.27185289157E+03  0.12955558552E+04  0.10519227083E+03 0.  0.
        254    2    1    2    0    0  0.56454977807E+03  0.11290611647E+04  0.69007516091E+03  0.16974203269E+04  0.90085319176E+03 0.  0.
         23    2    4    4    0    0  0.76300271932E+03  0.59164056279E+03  0.45434966993E+03  0.10708688007E+04  0.90081410025E+02 0.  0.
         23    2    4    4    0    0 -0.19845294126E+03  0.53742060189E+03  0.23572549098E+03  0.62655152628E+03  0.93786111730E+02 0.  0.
          3    1    3    3  502    0 -0.32581744366E+03 -0.70958780245E+03 -0.21289414591E+03  0.80931809157E+03  0.00000000000E+00 0. -1.
         -4    1    3    3    0  502 -0.23873233440E+03 -0.41947336223E+03 -0.58958745658E+02  0.48623776365E+03  0.00000000000E+00 0.  1.
         13    1    5    5    0    0  0.42053628795E+03  0.27246900503E+03  0.25166821434E+03  0.56073792300E+03  0.00000000000E+00 0.  1.
        -13    1    5    5    0    0  0.34246643138E+03  0.31917155776E+03  0.20268145558E+03  0.51013087766E+03  0.00000000000E+00 0. -1.
          4    1    6    6  503    0 -0.53630728338E+02  0.55856370519E+02  0.37289907963E+02  0.85946066725E+02  0.00000000000E+00 0. -1.
         -4    1    6    6    0  503 -0.14482221292E+03  0.48156423137E+03  0.19843558302E+03  0.54060545955E+03  0.00000000000E+00 0.  1.
<mgrwt>
<rscale>  0 0.29636121E+04</rscale>
<asrwt>0</asrwt>
<pdfrwt beam="1">  1        1 0.19805799E+00 0.29636121E+04</pdfrwt>
<pdfrwt beam="2">  1       -2 0.26239988E+00 0.29636121E+04</pdfrwt>
<totfact> 0.37335210E-01</totfact>
</mgrwt>
</event>
<event>
12    5  0.5029243E-008  0.1482479E+04  0.7818608E-02  0.8896189E-01
         -2   -1    0    0    0  501 -0.00000000000E+00  0.00000000000E+00  0.35393774394E+03  0.35393774394E+03  0.00000000000E+00 0.  1.
          1   -1    0    0  501    0  0.00000000000E+00 -0.00000000000E+00 -0.15523517138E+04  0.15523517138E+04  0.00000000000E+00 0. -1.
        -24    2    1    2    0    0  0.48700205186E+02 -0.32508705198E+03 -0.75039753308E+03  0.82318505669E+03  0.80522534423E+02 0.  0.
        254    2    1    2    0    0 -0.48700205186E+02  0.32508705198E+03 -0.44801643675E+03  0.10831044010E+04  0.92970055102E+03 0.  0.
         23    2    4    4    0    0 -0.19471753783E+03  0.51750042146E+02 -0.66087470419E+03  0.69703198432E+03  0.92223782859E+02 0.  0.
         23    2    4    4    0    0  0.14601733264E+03  0.27333700983E+03  0.21285826744E+03  0.38607241670E+03  0.87801403983E+02 0.  0.
          1    1    3    3  502    0  0.24056555863E+02 -0.30329722052E+03 -0.65344530888E+03  0.72080419917E+03  0.00000000000E+00 0. -1.
         -2    1    3    3    0  502  0.24643649322E+02 -0.21789831460E+02 -0.96952224204E+02  0.10238085751E+03  0.00000000000E+00 0.  1.
         13    1    5    5    0    0 -0.12244182850E+03 -0.67516872459E+01 -0.29383094988E+03  0.31839317479E+03  0.00000000000E+00 0. -1.
        -13    1    5    5    0    0 -0.72275709326E+02  0.58501729392E+02 -0.36704375432E+03  0.37863880953E+03  0.00000000000E+00 0.  1.
          1    1    6    6  503    0  0.15032080012E+03  0.25642325359E+03  0.17636602208E+03  0.34562147166E+03  0.00000000000E+00 0. -1.
         -1    1    6    6    0  503 -0.43034674765E+01  0.16913756240E+02  0.36492245367E+02  0.40450945037E+02  0.00000000000E+00 0.  1.
<mgrwt>
<rscale>  0 0.14824788E+04</rscale>
<asrwt>0</asrwt>
<pdfrwt beam="1">  1        1 0.23882334E+00 0.14824788E+04</pdfrwt>
<pdfrwt beam="2">  1       -2 0.54451961E-01 0.14824788E+04</pdfrwt>
<totfact> 0.16239624E+01</totfact>
</mgrwt>
</event>
<event>
12    5  0.5029243E-008  0.2188281E+04  0.7818608E-02  0.8523322E-01
         -2   -1    0    0    0  501 -0.00000000000E+00  0.00000000000E+00  0.66446526458E+03  0.66446526458E+03  0.00000000000E+00 0.  1.
          1   -1    0    0  501    0  0.00000000000E+00 -0.00000000000E+00 -0.18016641807E+04  0.18016641807E+04  0.00000000000E+00 0. -1.
        -24    2    1    2    0    0 -0.31181930049E+03 -0.40287829187E+03  0.37244281060E+03  0.63608003331E+03  0.79636470298E+02 0.  0.
        254    2    1    2    0    0  0.31181930049E+03  0.40287829187E+03 -0.15096417267E+04  0.18300494120E+04  0.90028912745E+03 0.  0.
         23    2    4    4    0    0  0.34110276411E+03  0.15715838031E+03 -0.10529403175E+03  0.40112938052E+03  0.93638104461E+02 0.  0.
         23    2    4    4    0    0 -0.29283463627E+02  0.24571991156E+03 -0.14043476950E+04  0.14289200314E+04  0.91565341426E+02 0.  0.
          1    1    3    3  502    0 -0.36544429928E+02 -0.17371695402E+02  0.17165232126E+02  0.43953570433E+02  0.00000000000E+00 0. -1.
         -2    1    3    3    0  502 -0.27527487056E+03 -0.38550659647E+03  0.35527757847E+03  0.59212646288E+03  0.00000000000E+00 0.  1.
         13    1    5    5    0    0  0.99903493410E+02  0.26768581260E+02 -0.69514654322E+02  0.12461762357E+03  0.00000000000E+00 0. -1.
        -13    1    5    5    0    0  0.24119927070E+03  0.13038979905E+03 -0.35779377428E+02  0.27651175695E+03  0.00000000000E+00 0.  1.
          2    1    6    6  503    0 -0.16887458903E+02  0.81666760228E+02 -0.26660092423E+03  0.27933975512E+03  0.00000000000E+00 0. -1.
         -2    1    6    6    0  503 -0.12396004723E+02  0.16405315133E+03 -0.11377467707E+04  0.11495802763E+04  0.00000000000E+00 0.  1.
<mgrwt>
<rscale>  0 0.21882808E+04</rscale>
<asrwt>0</asrwt>
<pdfrwt beam="1">  1        1 0.27717910E+00 0.21882808E+04</pdfrwt>
<pdfrwt beam="2">  1       -2 0.10222543E+00 0.21882808E+04</pdfrwt>
<totfact> 0.25527515E+00</totfact>
</mgrwt>
</event>
<event>
12    5  0.5029243E-008  0.1387975E+04  0.7818608E-02  0.8962569E-01
         -2   -1    0    0    0  501 -0.00000000000E+00  0.00000000000E+00  0.22658347490E+03  0.22658347490E+03  0.00000000000E+00 0.  1.
          1   -1    0    0  501    0  0.00000000000E+00 -0.00000000000E+00 -0.21255687615E+04  0.21255687615E+04  0.00000000000E+00 0. -1.
        -24    2    1    2    0    0  0.13352451815E+02  0.40084127556E+03 -0.58772495012E+03  0.71628213546E+03  0.82386069301E+02 0.  0.
        254    2    1    2    0    0 -0.13352451815E+02 -0.40084127556E+03 -0.13112603365E+04  0.16358701010E+04  0.89208480595E+03 0.  0.
         23    2    4    4    0    0 -0.31888081430E+03 -0.46981320233E+03 -0.11166490344E+04  0.12558955280E+04  0.89213745444E+02 0.  0.
         23    2    4    4    0    0  0.30552836248E+03  0.68971926769E+02 -0.19461130210E+03  0.37997457299E+03  0.91664661929E+02 0.  0.
          3    1    3    3  502    0  0.18053179087E+01  0.26346885375E+01 -0.33966279449E+02  0.34116109041E+02  0.00000000000E+00 0. -1.
         -2    1    3    3    0  502  0.11547133907E+02  0.39820658703E+03 -0.55375867067E+03  0.68216602642E+03  0.00000000000E+00 0.  1.
         13    1    5    5    0    0 -0.15244244353E+03 -0.29831063085E+03 -0.68382051702E+03  0.76147122767E+03  0.00000000000E+00 0. -1.
        -13    1    5    5    0    0 -0.16643837076E+03 -0.17150257148E+03 -0.43282851737E+03  0.49442430031E+03  0.00000000000E+00 0.  1.
          2    1    6    6  503    0  0.56251622121E+02  0.37977860224E+02 -0.10837735502E+02  0.68731502015E+02  0.00000000000E+00 0. -1.
         -2    1    6    6    0  503  0.24927674036E+03  0.30994066545E+02 -0.18377356660E+03  0.31124307097E+03  0.00000000000E+00 0.  1.
<mgrwt>
<rscale>  0 0.13879752E+04</rscale>
<asrwt>0</asrwt>
<pdfrwt beam="1">  1        1 0.32701058E+00 0.13879752E+04</pdfrwt>
<pdfrwt beam="2">  1       -2 0.34858996E-01 0.13879752E+04</pdfrwt>
<totfact> 0.16219880E+01</totfact>
</mgrwt>
</event>
<event>
12    5  0.5029243E-008  0.1501348E+04  0.7818608E-02  0.8883557E-01
          1   -1    0    0  501    0  0.00000000000E+00  0.00000000000E+00  0.64025342403E+03  0.64025342403E+03  0.00000000000E+00 0. -1.
         -2   -1    0    0    0  501 -0.00000000000E+00 -0.00000000000E+00 -0.88013852758E+03  0.88013852758E+03  0.00000000000E+00 0.  1.
        -24    2    1    2    0    0 -0.37934380062E+03 -0.15576145454E+02  0.22574054642E+03  0.44931189802E+03  0.82328925843E+02 0.  0.
        254    2    1    2    0    0  0.37934380062E+03  0.15576145454E+02 -0.46562564997E+03  0.10710800536E+04  0.88671353881E+03 0.  0.
         23    2    4    4    0    0  0.50008911339E+02 -0.26553267705E+03  0.14351713277E+03  0.31825589306E+03  0.87642183178E+02 0.  0.
         23    2    4    4    0    0  0.32933488928E+03  0.28110882250E+03 -0.60914278274E+03  0.75282416053E+03  0.90585029261E+02 0.  0.
          3    1    3    3  502    0 -0.23614314186E+03  0.33165413984E+00  0.18382286904E+03  0.29925664676E+03  0.00000000000E+00 0. -1.
         -4    1    3    3    0  502 -0.14320065875E+03 -0.15907799594E+02  0.41917677373E+02  0.15005525126E+03  0.00000000000E+00 0.  1.
         13    1    5    5    0    0 -0.10794253779E-01 -0.17043590398E+03  0.11949924611E+03  0.20815491180E+03  0.00000000000E+00 0. -1.
        -13    1    5    5    0    0  0.50019705592E+02 -0.95096773064E+02  0.24017886658E+02  0.11010098126E+03  0.00000000000E+00 0.  1.
          3    1    6    6  503    0  0.18995265290E+03  0.13351657414E+03 -0.25693501473E+03  0.34630086299E+03  0.00000000000E+00 0. -1.
         -3    1    6    6    0  503  0.13938223638E+03  0.14759224836E+03 -0.35220776801E+03  0.40652329754E+03  0.00000000000E+00 0.  1.
<mgrwt>
<rscale>  0 0.15013483E+04</rscale>
<asrwt>0</asrwt>
<pdfrwt beam="1">  1        1 0.98500527E-01 0.15013483E+04</pdfrwt>
<pdfrwt beam="2">  1       -2 0.13540593E+00 0.15013483E+04</pdfrwt>
<totfact> 0.10318668E+01</totfact>
</mgrwt>
</event>
<event>
12    5  0.5029243E-008  0.1653545E+04  0.7818608E-02  0.8788312E-01
          1   -1    0    0  501    0  0.00000000000E+00  0.00000000000E+00  0.11547331149E+04  0.11547331149E+04  0.00000000000E+00 0. -1.
         -2   -1    0    0    0  501 -0.00000000000E+00 -0.00000000000E+00 -0.59195755812E+03  0.59195755812E+03  0.00000000000E+00 0.  1.
        -24    2    1    2    0    0 -0.48007419299E+03  0.38488747560E+02 -0.13788603230E+03  0.50711461062E+03  0.78740433961E+02 0.  0.
        254    2    1    2    0    0  0.48007419299E+03 -0.38488747560E+02  0.70066158911E+03  0.12395760624E+04  0.90203632834E+03 0.  0.
         23    2    4    4    0    0 -0.87668197654E+02 -0.28549455701E+03  0.48659772963E+03  0.57812518011E+03  0.90876390977E+02 0.  0.
         23    2    4    4    0    0  0.56774239064E+03  0.24700580945E+03  0.21406385948E+03  0.66145088232E+03  0.91381845878E+02 0.  0.
          3    1    3    3  502    0 -0.42188300514E+03  0.33335647125E+02 -0.92630007962E+02  0.43321686691E+03  0.00000000000E+00 0. -1.
         -4    1    3    3    0  502 -0.58191187840E+02  0.51531004355E+01 -0.45256024341E+02  0.73897743711E+02  0.00000000000E+00 0.  1.
         13    1    5    5    0    0 -0.80524979061E+02 -0.28479107980E+03  0.48807643808E+03  0.57079667203E+03  0.00000000000E+00 0.  1.
        -13    1    5    5    0    0 -0.71432185930E+01 -0.70347720578E+00 -0.14787084518E+01  0.73285080836E+01  0.00000000000E+00 0. -1.
          4    1    6    6  503    0  0.88164095102E+02  0.39656668891E+02  0.70357561066E+02  0.11956481695E+03  0.00000000000E+00 0. -1.
         -4    1    6    6    0  503  0.47957829554E+03  0.20734914056E+03  0.14370629841E+03  0.54188606537E+03  0.00000000000E+00 0.  1.
<mgrwt>
<rscale>  0 0.16535453E+04</rscale>
<asrwt>0</asrwt>
<pdfrwt beam="1">  1        1 0.17765125E+00 0.16535453E+04</pdfrwt>
<pdfrwt beam="2">  1       -2 0.91070394E-01 0.16535453E+04</pdfrwt>
<totfact> 0.99409248E+00</totfact>
</mgrwt>
</event>
<event>
12    5  0.5029243E-008  0.1660560E+04  0.7818608E-02  0.8784184E-01
          1   -1    0    0  501    0  0.00000000000E+00  0.00000000000E+00  0.92274730413E+03  0.92274730413E+03  0.00000000000E+00 0. -1.
         -2   -1    0    0    0  501 -0.00000000000E+00 -0.00000000000E+00 -0.74707873106E+03  0.74707873106E+03  0.00000000000E+00 0.  1.
        -24    2    1    2    0    0 -0.21604944629E+03  0.53248189171E+03  0.15093468533E+03  0.60018561697E+03  0.85012748111E+02 0.  0.
        254    2    1    2    0    0  0.21604944629E+03 -0.53248189171E+03  0.24733887748E+02  0.10696404182E+04  0.90183398187E+03 0.  0.
         23    2    4    4    0    0  0.25729513078E+03  0.19486059972E+03  0.25151929931E+01  0.33512957464E+03  0.90189067824E+02 0.  0.
         23    2    4    4    0    0 -0.41245684493E+02 -0.72734249143E+03  0.22218694755E+02  0.73451084358E+03  0.91017595040E+02 0.  0.
          1    1    3    3  502    0 -0.14123970872E+03  0.34785133056E+03  0.56266580503E+02  0.37962498808E+03  0.00000000000E+00 0. -1.
         -2    1    3    3    0  502 -0.74809737566E+02  0.18463056115E+03  0.94668104826E+02  0.22056062889E+03  0.00000000000E+00 0.  1.
         13    1    5    5    0    0  0.25703364553E+03  0.16616579764E+03  0.66341427439E+01  0.30613947653E+03  0.00000000000E+00 0. -1.
        -13    1    5    5    0    0  0.26148524540E+00  0.28694802086E+02 -0.41189497508E+01  0.28990098108E+02  0.00000000000E+00 0.  1.
          3    1    6    6  503    0 -0.57480613626E+02 -0.28443562415E+03 -0.78078881283E+01  0.29029055848E+03  0.00000000000E+00 0. -1.
         -3    1    6    6    0  503  0.16234929133E+02 -0.44290686729E+03  0.30026582883E+02  0.44422028510E+03  0.00000000000E+00 0.  1.
<mgrwt>
<rscale>  0 0.16605600E+04</rscale>
<asrwt>0</asrwt>
<pdfrwt beam="1">  1        1 0.14196112E+00 0.16605600E+04</pdfrwt>
<pdfrwt beam="2">  1       -2 0.11493519E+00 0.16605600E+04</pdfrwt>
<totfact> 0.86135334E+00</totfact>
</mgrwt>
</event>
<event>
12    5  0.5029243E-008  0.1834118E+04  0.7818608E-02  0.8688363E-01
          1   -1    0    0  501    0  0.00000000000E+00  0.00000000000E+00  0.95923965523E+03  0.95923965523E+03  0.00000000000E+00 0. -1.
         -2   -1    0    0    0  501 -0.00000000000E+00 -0.00000000000E+00 -0.87673325764E+03  0.87673325764E+03  0.00000000000E+00 0.  1.
        -24    2    1    2    0    0  0.60196649947E+03  0.15005970372E+03  0.34002830103E+03  0.71186394601E+03  0.79053469041E+02 0.  0.
        254    2    1    2    0    0 -0.60196649947E+03 -0.15005970372E+03 -0.25752190343E+03  0.11241089669E+04  0.90134447213E+03 0.  0.
         23    2    4    4    0    0 -0.15097217882E+03 -0.30557808053E+03  0.24155576697E+03  0.42747660905E+03  0.90644915203E+02 0.  0.
         23    2    4    4    0    0 -0.45099432065E+03  0.15551837681E+03 -0.49907767040E+03  0.69663235780E+03  0.92931577351E+02 0.  0.
          1    1    3    3  502    0  0.48657663825E+03  0.14518968991E+03  0.25340139023E+03  0.56749373169E+03  0.00000000000E+00 0. -1.
         -2    1    3    3    0  502  0.11538986122E+03  0.48700138156E+01  0.86626910799E+02  0.14437021432E+03  0.00000000000E+00 0.  1.
         13    1    5    5    0    0  0.57710670281E+01 -0.72270677989E+01  0.25560014179E+02  0.27181796269E+02  0.00000000000E+00 0. -1.
        -13    1    5    5    0    0 -0.15674324585E+03 -0.29835101273E+03  0.21599575279E+03  0.40029481278E+03  0.00000000000E+00 0.  1.
          3    1    6    6  503    0 -0.37937856134E+03  0.16127815560E+03 -0.40141834118E+03  0.57539153705E+03  0.00000000000E+00 0.  1.
         -3    1    6    6    0  503 -0.71615759308E+02 -0.57597787902E+01 -0.97659329221E+02  0.12124082075E+03  0.00000000000E+00 0. -1.
<mgrwt>
<rscale>  0 0.18341181E+04</rscale>
<asrwt>0</asrwt>
<pdfrwt beam="1">  1        1 0.14757533E+00 0.18341181E+04</pdfrwt>
<pdfrwt beam="2">  1       -2 0.13488204E+00 0.18341181E+04</pdfrwt>
<totfact> 0.53130240E+00</totfact>
</mgrwt>
</event>
<event>
12    5  0.5029243E-008  0.1144589E+04  0.7818608E-02  0.9162790E-01
         -2   -1    0    0    0  501 -0.00000000000E+00  0.00000000000E+00  0.14210534533E+03  0.14210534533E+03  0.00000000000E+00 0.  1.
          1   -1    0    0  501    0  0.00000000000E+00 -0.00000000000E+00 -0.23047760684E+04  0.23047760684E+04  0.00000000000E+00 0. -1.
        -24    2    1    2    0    0 -0.60334356510E+02 -0.15015471157E+02  0.35815428023E+01  0.10131648887E+03  0.79915608732E+02 0.  0.
        254    2    1    2    0    0  0.60334356510E+02  0.15015471157E+02 -0.21662522659E+04  0.23455649249E+04  0.89730721516E+03 0.  0.
         23    2    4    4    0    0 -0.17354657908E+03 -0.38225088412E+03 -0.10298130544E+04  0.11157954959E+04  0.90832308060E+02 0.  0.
         23    2    4    4    0    0  0.23388093559E+03  0.39726635527E+03 -0.11364392115E+04  0.12297694290E+04  0.91202620087E+02 0.  0.
          3    1    3    3  502    0 -0.88013341438E+01 -0.20434549091E+02 -0.31627182900E+02  0.38669276919E+02  0.00000000000E+00 0. -1.
         -4    1    3    3    0  502 -0.51533022367E+02  0.54190779345E+01  0.35208725702E+02  0.62647211953E+02  0.00000000000E+00 0.  1.
         13    1    5    5    0    0  0.27870897232E+01 -0.49823559029E+02 -0.17161166389E+03  0.17871966340E+03  0.00000000000E+00 0. -1.
        -13    1    5    5    0    0 -0.17633366881E+03 -0.33242732509E+03 -0.85820139050E+03  0.93707583251E+03  0.00000000000E+00 0.  1.
          4    1    6    6  503    0  0.77084967572E+02  0.99310395891E+02 -0.21927435563E+03  0.25275658250E+03  0.00000000000E+00 0. -1.
         -4    1    6    6    0  503  0.15679596802E+03  0.29795595938E+03 -0.91716485590E+03  0.97701284650E+03  0.00000000000E+00 0.  1.
<mgrwt>
<rscale>  0 0.11445890E+04</rscale>
<asrwt>0</asrwt>
<pdfrwt beam="1">  1        1 0.35458092E+00 0.11445890E+04</pdfrwt>
<pdfrwt beam="2">  1       -2 0.21862361E-01 0.11445890E+04</pdfrwt>
<totfact> 0.29573722E+01</totfact>
</mgrwt>
</event>
<event>
12    5  0.5029243E-008  0.2211087E+04  0.7818608E-02  0.8513828E-01
         -2   -1    0    0    0  501 -0.00000000000E+00  0.00000000000E+00  0.15794252433E+04  0.15794252433E+04  0.00000000000E+00 0.  1.
          1   -1    0    0  501    0  0.00000000000E+00 -0.00000000000E+00 -0.77384256749E+03  0.77384256749E+03  0.00000000000E+00 0. -1.
        -24    2    1    2    0    0  0.70417169791E+03 -0.54325491531E+03  0.27049146950E+03  0.93322051787E+03  0.82165788237E+02 0.  0.
        254    2    1    2    0    0 -0.70417169791E+03  0.54325491531E+03  0.53509120629E+03  0.14200472929E+04  0.96913777755E+03 0.  0.
         23    2    4    4    0    0 -0.73227832476E+03  0.75933217258E+03  0.53158552206E+03  0.11848180026E+04  0.91616803557E+02 0.  0.
         23    2    4    4    0    0  0.28106626854E+02 -0.21607725727E+03  0.35056842258E+01  0.23522929033E+03  0.88550356438E+02 0.  0.
          1    1    3    3  502    0  0.66072732997E+03 -0.52308341571E+03  0.27130309140E+03  0.88531476423E+03  0.00000000000E+00 0. -1.
         -2    1    3    3    0  502  0.43444367940E+02 -0.20171499596E+02 -0.81162189734E+00  0.47905753639E+02  0.00000000000E+00 0.  1.
         13    1    5    5    0    0 -0.65611731456E+03  0.70375832891E+03  0.50609685351E+03  0.10871521242E+04  0.00000000000E+00 0.  1.
        -13    1    5    5    0    0 -0.76161010204E+02  0.55573843670E+02  0.25488668552E+02  0.97665878382E+02  0.00000000000E+00 0. -1.
          2    1    6    6  503    0 -0.23641697640E+02 -0.11515892459E+03  0.23985381036E+02  0.11998252491E+03  0.00000000000E+00 0.  1.
         -2    1    6    6    0  503  0.51748324494E+02 -0.10091833268E+03 -0.20479696811E+02  0.11524676543E+03  0.00000000000E+00 0. -1.
<mgrwt>
<rscale>  0 0.22110870E+04</rscale>
<asrwt>0</asrwt>
<pdfrwt beam="1">  1        1 0.11905270E+00 0.22110870E+04</pdfrwt>
<pdfrwt beam="2">  1       -2 0.24298850E+00 0.22110870E+04</pdfrwt>
<totfact> 0.13208661E+00</totfact>
</mgrwt>
</event>
<event>
12    5  0.5029243E-008  0.2142548E+04  0.7818608E-02  0.8542729E-01
         -2   -1    0    0    0  501 -0.00000000000E+00  0.00000000000E+00  0.36005270623E+03  0.36005270623E+03  0.00000000000E+00 0.  1.
          1   -1    0    0  501    0  0.00000000000E+00 -0.00000000000E+00 -0.31873882775E+04  0.31873882775E+04  0.00000000000E+00 0. -1.
        -24    2    1    2    0    0 -0.82438857490E+03  0.76579480719E+02 -0.16644769273E+04  0.18608298201E+04  0.81995357471E+02 0.  0.
        254    2    1    2    0    0  0.82438857490E+03 -0.76579480719E+02 -0.11628586440E+04  0.16866111636E+04  0.89829619398E+03 0.  0.
         23    2    4    4    0    0  0.28956269116E+03 -0.12278422296E+03 -0.10890043468E+04  0.11371998870E+04  0.91490973286E+02 0.  0.
         23    2    4    4    0    0  0.53482588374E+03  0.46204742242E+02 -0.73854297185E+02  0.54941127660E+03  0.90690073993E+02 0.  0.
          3    1    3    3  502    0 -0.56270030911E+03  0.15758786966E+02 -0.10993250742E+04  0.12350690652E+04  0.00000000000E+00 0. -1.
         -2    1    3    3    0  502 -0.26168826579E+03  0.60820693753E+02 -0.56515185314E+03  0.62576075488E+03  0.00000000000E+00 0.  1.
         13    1    5    5    0    0  0.18326212777E+03 -0.69114841188E+02 -0.51530454411E+03  0.55127184032E+03  0.00000000000E+00 0.  1.
        -13    1    5    5    0    0  0.10630056339E+03 -0.53669381773E+02 -0.57369980270E+03  0.58592804672E+03  0.00000000000E+00 0. -1.
          4    1    6    6  503    0  0.33271182087E+03 -0.15951694084E+01 -0.77774033225E+02  0.34168479708E+03  0.00000000000E+00 0. -1.
         -4    1    6    6    0  503  0.20211406288E+03  0.47799911650E+02  0.39197360402E+01  0.20772647953E+03  0.00000000000E+00 0.  1.
<mgrwt>
<rscale>  0 0.21425478E+04</rscale>
<asrwt>0</asrwt>
<pdfrwt beam="1">  1        1 0.49036745E+00 0.21425478E+04</pdfrwt>
<pdfrwt beam="2">  1       -2 0.55392721E-01 0.21425478E+04</pdfrwt>
<totfact> 0.10734877E+00</totfact>
</mgrwt>
</event>
<event>
12    5  0.5029243E-008  0.1952270E+04  0.7818608E-02  0.8629267E-01
         -2   -1    0    0    0  501 -0.00000000000E+00  0.00000000000E+00  0.69984821383E+03  0.69984821383E+03  0.00000000000E+00 0.  1.
          1   -1    0    0  501    0  0.00000000000E+00 -0.00000000000E+00 -0.13614939882E+04  0.13614939882E+04  0.00000000000E+00 0. -1.
        -24    2    1    2    0    0  0.26908319179E+03 -0.43893233778E+03  0.33810168162E+03  0.62112559952E+03  0.80105567954E+02 0.  0.
        254    2    1    2    0    0 -0.26908319179E+03  0.43893233778E+03 -0.99974745595E+03  0.14402166025E+04  0.89981193874E+03 0.  0.
         23    2    4    4    0    0 -0.32969435098E+03  0.57881132229E+03 -0.33389301690E+03  0.75107383189E+03  0.94373949405E+02 0.  0.
         23    2    4    4    0    0  0.60611159190E+02 -0.13987898451E+03 -0.66585443904E+03  0.68914277058E+03  0.91190905907E+02 0.  0.
          1    1    3    3  502    0  0.10001477301E+03 -0.10211144439E+03  0.74218836922E+02  0.16105321372E+03  0.00000000000E+00 0. -1.
         -2    1    3    3    0  502  0.16906841878E+03 -0.33682089340E+03  0.26388284469E+03  0.46007238581E+03  0.00000000000E+00 0.  1.
         13    1    5    5    0    0 -0.27666759229E+03  0.40096389451E+03 -0.24541688233E+03  0.54547818238E+03  0.00000000000E+00 0.  1.
        -13    1    5    5    0    0 -0.53026758695E+02  0.17784742778E+03 -0.88476134577E+02  0.20559564951E+03  0.00000000000E+00 0. -1.
          2    1    6    6  503    0  0.18247579439E+02 -0.12187325467E+02 -0.20892545190E+02  0.30298572605E+02  0.00000000000E+00 0. -1.
         -2    1    6    6    0  503  0.42363579750E+02 -0.12769165905E+03 -0.64496189385E+03  0.65884419797E+03  0.00000000000E+00 0.  1.
<mgrwt>
<rscale>  0 0.19522696E+04</rscale>
<asrwt>0</asrwt>
<pdfrwt beam="1">  1        1 0.20946061E+00 0.19522696E+04</pdfrwt>
<pdfrwt beam="2">  1       -2 0.10766896E+00 0.19522696E+04</pdfrwt>
<totfact> 0.46256928E+00</totfact>
</mgrwt>
</event>
<event>
12    5  0.5029243E-008  0.1430688E+04  0.7818608E-02  0.8931900E-01
         -2   -1    0    0    0  501 -0.00000000000E+00  0.00000000000E+00  0.20606397162E+03  0.20606397162E+03  0.00000000000E+00 0.  1.
          1   -1    0    0  501    0  0.00000000000E+00 -0.00000000000E+00 -0.24832905011E+04  0.24832905011E+04  0.00000000000E+00 0. -1.
        -24    2    1    2    0    0  0.22410304252E+03  0.17865435543E+02 -0.13856206615E+04  0.14060384694E+04  0.80363004511E+02 0.  0.
        254    2    1    2    0    0 -0.22410304252E+03 -0.17865435543E+02 -0.89160586798E+03  0.12833160033E+04  0.89520812834E+03 0.  0.
         23    2    4    4    0    0 -0.32202416081E+03 -0.16082422751E+03 -0.12246155165E+01  0.37166724174E+03  0.92579947091E+02 0.  0.
         23    2    4    4    0    0  0.97921118285E+02  0.14295879197E+03 -0.89038125246E+03  0.91164876155E+03  0.91098452748E+02 0.  0.
          1    1    3    3  502    0  0.12453736550E+03  0.30155913220E+01 -0.99018305804E+03  0.99798854584E+03  0.00000000000E+00 0. -1.
         -2    1    3    3    0  502  0.99565677026E+02  0.14849844220E+02 -0.39543760347E+03  0.40804992360E+03  0.00000000000E+00 0.  1.
         13    1    5    5    0    0 -0.31216057944E+03 -0.13396764427E+03 -0.14765518975E+02  0.34001408444E+03  0.00000000000E+00 0.  1.
        -13    1    5    5    0    0 -0.98635813705E+01 -0.26856583243E+02  0.13540903459E+02  0.31653157306E+02  0.00000000000E+00 0. -1.
          3    1    6    6  503    0  0.20944889613E+02  0.18555797924E+02 -0.40243352311E+02  0.49015644877E+02  0.00000000000E+00 0. -1.
         -3    1    6    6    0  503  0.76976228672E+02  0.12440299405E+03 -0.85013790015E+03  0.86263311667E+03  0.00000000000E+00 0.  1.
<mgrwt>
<rscale>  0 0.14306875E+04</rscale>
<asrwt>0</asrwt>
<pdfrwt beam="1">  1        1 0.38204471E+00 0.14306875E+04</pdfrwt>
<pdfrwt beam="2">  1       -2 0.31702148E-01 0.14306875E+04</pdfrwt>
<totfact> 0.11021665E+01</totfact>
</mgrwt>
</event>
<event>
12    5  0.5029243E-008  0.1704839E+04  0.7818608E-02  0.8758609E-01
         -2   -1    0    0    0  501 -0.00000000000E+00  0.00000000000E+00  0.56194155092E+03  0.56194155092E+03  0.00000000000E+00 0.  1.
          1   -1    0    0  501    0  0.00000000000E+00 -0.00000000000E+00 -0.12930511636E+04  0.12930511636E+04  0.00000000000E+00 0. -1.
        -24    2    1    2    0    0 -0.14668857370E+03 -0.60120763691E+03 -0.27697394175E+03  0.68322788032E+03  0.84365939230E+02 0.  0.
        254    2    1    2    0    0  0.14668857370E+03  0.60120763691E+03 -0.45413567093E+03  0.11717648342E+04  0.88533917723E+03 0.  0.
         23    2    4    4    0    0 -0.18384177920E+03  0.28073852984E+03 -0.58968098145E+03  0.68456993743E+03  0.91106626774E+02 0.  0.
         23    2    4    4    0    0  0.33053035290E+03  0.32046910707E+03  0.13554531052E+03  0.48719489677E+03  0.83878325343E+02 0.  0.
          1    1    3    3  502    0 -0.39202352357E+02 -0.12431709578E+03 -0.23098170588E+02  0.13238236370E+03  0.00000000000E+00 0. -1.
         -2    1    3    3    0  502 -0.10748622134E+03 -0.47689054112E+03 -0.25387577117E+03  0.55084551662E+03  0.00000000000E+00 0.  1.
         13    1    5    5    0    0 -0.46425784343E+01  0.59242474045E+02 -0.69208513896E+02  0.91219749293E+02  0.00000000000E+00 0. -1.
        -13    1    5    5    0    0 -0.17919920076E+03  0.22149605579E+03 -0.52047246755E+03  0.59335018814E+03  0.00000000000E+00 0.  1.
          2    1    6    6  503    0  0.96260812764E+02  0.11106833539E+03  0.82455639689E+02  0.16852670921E+03  0.00000000000E+00 0. -1.
         -2    1    6    6    0  503  0.23426954013E+03  0.20940077168E+03  0.53089670830E+02  0.31866818756E+03  0.00000000000E+00 0.  1.
<mgrwt>
<rscale>  0 0.17048392E+04</rscale>
<asrwt>0</asrwt>
<pdfrwt beam="1">  1        1 0.19893095E+00 0.17048392E+04</pdfrwt>
<pdfrwt beam="2">  1       -2 0.86452547E-01 0.17048392E+04</pdfrwt>
<totfact> 0.88506671E+00</totfact>
</mgrwt>
</event>
<event>
12    5  0.5029243E-008  0.1033457E+04  0.7818608E-02  0.9272592E-01
         -2   -1    0    0    0  501 -0.00000000000E+00  0.00000000000E+00  0.19333165529E+04  0.19333165529E+04  0.00000000000E+00 0.  1.
          1   -1    0    0  501    0  0.00000000000E+00 -0.00000000000E+00 -0.13810894225E+03  0.13810894225E+03  0.00000000000E+00 0. -1.
        -24    2    1    2    0    0  0.87088056997E+02 -0.57747206928E+02  0.27577841496E+03  0.30547262488E+03  0.79628643171E+02 0.  0.
        254    2    1    2    0    0 -0.87088056997E+02  0.57747206928E+02  0.15194291957E+04  0.17659528703E+04  0.89387101403E+03 0.  0.
         23    2    4    4    0    0 -0.30156640862E+03  0.31469782186E+03  0.12516449876E+04  0.13283475477E+04  0.88966367466E+02 0.  0.
         23    2    4    4    0    0  0.21447835162E+03 -0.25695061493E+03  0.26778420810E+03  0.43760532260E+03  0.88121815863E+02 0.  0.
          1    1    3    3  502    0  0.69627016470E+02 -0.59526426299E+01  0.10473247259E+03  0.12590570357E+03  0.00000000000E+00 0. -1.
         -2    1    3    3    0  502  0.17461040526E+02 -0.51794564298E+02  0.17104594236E+03  0.17956692130E+03  0.00000000000E+00 0.  1.
         13    1    5    5    0    0  0.50501756839E+01  0.23902699332E+01  0.67683969276E+01  0.87766087849E+01  0.00000000000E+00 0. -1.
        -13    1    5    5    0    0 -0.30661658430E+03  0.31230755192E+03  0.12448765907E+04  0.13195709389E+04  0.00000000000E+00 0.  1.
          1    1    6    6  503    0  0.89471872954E+02 -0.10829058724E+03  0.58753786830E+02  0.15226317612E+03  0.00000000000E+00 0. -1.
         -1    1    6    6    0  503  0.12500647867E+03 -0.14866002769E+03  0.20903042127E+03  0.28534214648E+03  0.00000000000E+00 0.  1.
<mgrwt>
<rscale>  0 0.10334569E+04</rscale>
<asrwt>0</asrwt>
<pdfrwt beam="1">  1        1 0.21247531E-01 0.10334569E+04</pdfrwt>
<pdfrwt beam="2">  1       -2 0.29743330E+00 0.10334569E+04</pdfrwt>
<totfact> 0.70394459E+00</totfact>
</mgrwt>
</event>
<event>
12    5  0.5029243E-008  0.1265779E+04  0.7818608E-02  0.9057152E-01
         -2   -1    0    0    0  501 -0.00000000000E+00  0.00000000000E+00  0.29409022696E+03  0.29409022696E+03  0.00000000000E+00 0.  1.
          1   -1    0    0  501    0  0.00000000000E+00 -0.00000000000E+00 -0.13619931984E+04  0.13619931984E+04  0.00000000000E+00 0. -1.
        -24    2    1    2    0    0  0.10295689992E+02  0.10045755047E+03  0.11521596277E+03  0.17213098738E+03  0.78464247026E+02 0.  0.
        254    2    1    2    0    0 -0.10295689992E+02 -0.10045755047E+03 -0.11831189342E+04  0.14839524380E+04  0.89002623840E+03 0.  0.
         23    2    4    4    0    0 -0.38622025441E+03 -0.68790383401E+02 -0.94741583792E+03  0.10294733005E+04  0.91215704935E+02 0.  0.
         23    2    4    4    0    0  0.37592456442E+03 -0.31667167069E+02 -0.23570309630E+03  0.45447913745E+03  0.93130280637E+02 0.  0.
          3    1    3    3  502    0 -0.79607273275E+01  0.64397395119E+02  0.18753831925E+02  0.67543348227E+02  0.00000000000E+00 0. -1.
         -4    1    3    3    0  502  0.18256417319E+02  0.36060155350E+02  0.96462130843E+02  0.10458763915E+03  0.00000000000E+00 0.  1.
         13    1    5    5    0    0 -0.20723731218E+03 -0.13938876773E+02 -0.39630043764E+03  0.44743226607E+03  0.00000000000E+00 0. -1.
        -13    1    5    5    0    0 -0.17898294223E+03 -0.54851506628E+02 -0.55111540028E+03  0.58204103448E+03  0.00000000000E+00 0.  1.
          4    1    6    6  503    0  0.41376576408E+02  0.76051486163E+01  0.21451688878E+01  0.42124352936E+02  0.00000000000E+00 0.  1.
         -4    1    6    6    0  503  0.33454798801E+03 -0.39272315685E+02 -0.23784826519E+03  0.41235478452E+03  0.00000000000E+00 0. -1.
<mgrwt>
<rscale>  0 0.12657786E+04</rscale>
<asrwt>0</asrwt>
<pdfrwt beam="1">  1        1 0.20953742E+00 0.12657786E+04</pdfrwt>
<pdfrwt beam="2">  1       -2 0.45244650E-01 0.12657786E+04</pdfrwt>
<totfact> 0.32708874E+01</totfact>
</mgrwt>
</event>
<event>
12    5  0.5029243E-008  0.2029762E+04  0.7818608E-02  0.8592831E-01
          1   -1    0    0  501    0  0.00000000000E+00  0.00000000000E+00  0.16032431512E+04  0.16032431512E+04  0.00000000000E+00 0. -1.
         -2   -1    0    0    0  501 -0.00000000000E+00 -0.00000000000E+00 -0.64243751664E+03  0.64243751664E+03  0.00000000000E+00 0.  1.
        -24    2    1    2    0    0  0.46667684568E+03  0.31032848855E+03  0.10486512779E+04  0.11917172664E+04  0.80184108012E+02 0.  0.
        254    2    1    2    0    0 -0.46667684568E+03 -0.31032848855E+03 -0.87845643370E+02  0.10539634015E+04  0.88827413869E+03 0.  0.
         23    2    4    4    0    0 -0.52081814597E+03  0.13824692304E+03  0.99031317207E+02  0.55654530875E+03  0.97835198169E+02 0.  0.
         23    2    4    4    0    0  0.54141300298E+02 -0.44857541159E+03 -0.18687696058E+03  0.49741809271E+03  0.91381509527E+02 0.  0.
          1    1    3    3  502    0  0.35842219404E+03  0.21847268829E+03  0.84428935598E+03  0.94287926127E+03  0.00000000000E+00 0. -1.
         -2    1    3    3    0  502  0.10825465164E+03  0.91855800261E+02  0.20436192194E+03  0.24883800510E+03  0.00000000000E+00 0.  1.
         13    1    5    5    0    0 -0.46814134161E+03  0.12089724389E+03  0.56777085415E+02  0.48682244888E+03  0.00000000000E+00 0. -1.
        -13    1    5    5    0    0 -0.52676804366E+02  0.17349679141E+02  0.42254231792E+02  0.69722859873E+02  0.00000000000E+00 0.  1.
          3    1    6    6  503    0  0.20223964935E+02 -0.40123800961E+03 -0.17382203494E+03  0.43773856232E+03  0.00000000000E+00 0. -1.
         -3    1    6    6    0  503  0.33917335363E+02 -0.47337401975E+02 -0.13054925640E+02  0.59679530388E+02  0.00000000000E+00 0.  1.
<mgrwt>
<rscale>  0 0.20297621E+04</rscale>
<asrwt>0</asrwt>
<pdfrwt beam="1">  1        1 0.24665279E+00 0.20297621E+04</pdfrwt>
<pdfrwt beam="2">  1       -2 0.98836542E-01 0.20297621E+04</pdfrwt>
<totfact> 0.38293826E+00</totfact>
</mgrwt>
</event>
<event>
12    5  0.5029243E-008  0.1738407E+04  0.7818608E-02  0.8739758E-01
          1   -1    0    0  501    0  0.00000000000E+00  0.00000000000E+00  0.13234602754E+04  0.13234602754E+04  0.00000000000E+00 0. -1.
         -2   -1    0    0    0  501 -0.00000000000E+00 -0.00000000000E+00 -0.57086310057E+03  0.57086310057E+03  0.00000000000E+00 0.  1.
        -24    2    1    2    0    0  0.18110415390E+03 -0.46676994126E+03 -0.14411549483E+03  0.52681140584E+03  0.78026206228E+02 0.  0.
        254    2    1    2    0    0 -0.18110415390E+03  0.46676994126E+03  0.89671266966E+03  0.13675119701E+04  0.90295209390E+03 0.  0.
         23    2    4    4    0    0 -0.40331152148E+03 -0.76287456821E+02  0.24656088503E+03  0.48688977276E+03  0.88257698649E+02 0.  0.
         23    2    4    4    0    0  0.22220736758E+03  0.54305739808E+03  0.65015178462E+03  0.88062219736E+03  0.92253236343E+02 0.  0.
          1    1    3    3  502    0  0.44446868669E+02 -0.18055522943E+03 -0.23236949530E+02  0.18739175764E+03  0.00000000000E+00 0. -1.
         -2    1    3    3    0  502  0.13665728523E+03 -0.28621471183E+03 -0.12087854530E+03  0.33941964821E+03  0.00000000000E+00 0.  1.
         13    1    5    5    0    0 -0.93704892169E+02  0.15197693334E+02  0.76990471710E+02  0.12222564965E+03  0.00000000000E+00 0. -1.
        -13    1    5    5    0    0 -0.30960662931E+03 -0.91485150156E+02  0.16957041332E+03  0.36466412311E+03  0.00000000000E+00 0.  1.
          1    1    6    6  503    0  0.26510470563E+02  0.22717612006E+02  0.19748776992E+02  0.40111209623E+02  0.00000000000E+00 0. -1.
         -1    1    6    6    0  503  0.19569689701E+03  0.52033978607E+03  0.63040300763E+03  0.84051098773E+03  0.00000000000E+00 0.  1.
<mgrwt>
<rscale>  0 0.17384069E+04</rscale>
<asrwt>0</asrwt>
<pdfrwt beam="1">  1        1 0.20360927E+00 0.17384069E+04</pdfrwt>
<pdfrwt beam="2">  1       -2 0.87825093E-01 0.17384069E+04</pdfrwt>
<totfact> 0.80978335E+00</totfact>
</mgrwt>
</event>
<event>
12    5  0.5029243E-008  0.2143918E+04  0.7818608E-02  0.8542140E-01
          1   -1    0    0  501    0  0.00000000000E+00  0.00000000000E+00  0.12986179680E+04  0.12986179680E+04  0.00000000000E+00 0. -1.
         -2   -1    0    0    0  501 -0.00000000000E+00 -0.00000000000E+00 -0.88486075068E+03  0.88486075068E+03  0.00000000000E+00 0.  1.
        -24    2    1    2    0    0 -0.29179599240E+03  0.69614296985E+03 -0.29431862962E+03  0.81396351204E+03  0.78442383592E+02 0.  0.
        254    2    1    2    0    0  0.29179599240E+03 -0.69614296985E+03  0.70807584697E+03  0.13695152067E+04  0.89690610465E+03 0.  0.
         23    2    4    4    0    0 -0.21623771198E+03 -0.43556133533E+03  0.60643731998E+03  0.78243070818E+03  0.89214153163E+02 0.  0.
         23    2    4    4    0    0  0.50803370438E+03 -0.26058163452E+03  0.10163852699E+03  0.58708449848E+03  0.91305997371E+02 0.  0.
          1    1    3    3  502    0 -0.17870320623E+02  0.10091214808E+03 -0.24655453714E+02  0.10540636313E+03  0.00000000000E+00 0. -1.
         -2    1    3    3    0  502 -0.27392567178E+03  0.59523082177E+03 -0.26966317591E+03  0.70855714891E+03  0.00000000000E+00 0.  1.
         13    1    5    5    0    0 -0.93657389832E+02 -0.11633006217E+03  0.22609371314E+03  0.27096633953E+03  0.00000000000E+00 0. -1.
        -13    1    5    5    0    0 -0.12258032215E+03 -0.31923127315E+03  0.38034360684E+03  0.51146436865E+03  0.00000000000E+00 0.  1.
          3    1    6    6  503    0  0.14287170823E+03 -0.92005466862E+02  0.69535965726E+02  0.18360986214E+03  0.00000000000E+00 0. -1.
         -3    1    6    6    0  503  0.36516199614E+03 -0.16857616766E+03  0.32102561262E+02  0.40347463634E+03  0.00000000000E+00 0.  1.
<mgrwt>
<rscale>  0 0.21439180E+04</rscale>
<asrwt>0</asrwt>
<pdfrwt beam="1">  1        1 0.19978738E+00 0.21439180E+04</pdfrwt>
<pdfrwt beam="2">  1       -2 0.13613242E+00 0.21439180E+04</pdfrwt>
<totfact> 0.28146997E+00</totfact>
</mgrwt>
</event>
<event>
12    5  0.5029243E-008  0.2236751E+04  0.7818608E-02  0.8503286E-01
         -2   -1    0    0    0  501 -0.00000000000E+00  0.00000000000E+00  0.16459924795E+04  0.16459924795E+04  0.00000000000E+00 0.  1.
          1   -1    0    0  501    0  0.00000000000E+00 -0.00000000000E+00 -0.75988395116E+03  0.75988395116E+03  0.00000000000E+00 0. -1.
        -24    2    1    2    0    0  0.23772569026E+03 -0.32129171937E+03 -0.53405468910E+03  0.67184668197E+03  0.80135387819E+02 0.  0.
        254    2    1    2    0    0 -0.23772569026E+03  0.32129171937E+03  0.14201632174E+04  0.17340297487E+04  0.91118260102E+03 0.  0.
         23    2    4    4    0    0  0.13307859640E+03  0.39998814407E+03  0.24629102752E+03  0.49700147439E+03  0.93009500046E+02 0.  0.
         23    2    4    4    0    0 -0.37080428666E+03 -0.78696424698E+02  0.11738721899E+04  0.12370282743E+04  0.92596365228E+02 0.  0.
          3    1    3    3  502    0  0.18803124400E+03 -0.24702862213E+03 -0.35404334510E+03  0.47087745655E+03  0.00000000000E+00 0. -1.
         -4    1    3    3    0  502  0.49694446261E+02 -0.74263097243E+02 -0.18001134399E+03  0.20096922542E+03  0.00000000000E+00 0.  1.
         13    1    5    5    0    0  0.95222766532E+02  0.14495053950E+03  0.10986684884E+03  0.20530162844E+03  0.00000000000E+00 0.  1.
        -13    1    5    5    0    0  0.37855829866E+02  0.25503760458E+03  0.13642417867E+03  0.29169984595E+03  0.00000000000E+00 0. -1.
          1    1    6    6  503    0 -0.87500628802E+02 -0.54862554022E+02  0.37994796066E+03  0.39373431738E+03  0.00000000000E+00 0. -1.
         -1    1    6    6    0  503 -0.28330365786E+03 -0.23833870676E+02  0.79392422924E+03  0.84329395689E+03  0.00000000000E+00 0.  1.
<mgrwt>
<rscale>  0 0.22367506E+04</rscale>
<asrwt>0</asrwt>
<pdfrwt beam="1">  1        1 0.11690522E+00 0.22367506E+04</pdfrwt>
<pdfrwt beam="2">  1       -2 0.25322961E+00 0.22367506E+04</pdfrwt>
<totfact> 0.11730652E+00</totfact>
</mgrwt>
</event>
<event>
12    5  0.5029243E-008  0.1269241E+04  0.7818608E-02  0.9054319E-01
         -2   -1    0    0    0  501 -0.00000000000E+00  0.00000000000E+00  0.13822760763E+04  0.13822760763E+04  0.00000000000E+00 0.  1.
          1   -1    0    0  501    0  0.00000000000E+00 -0.00000000000E+00 -0.29136227382E+03  0.29136227382E+03  0.00000000000E+00 0. -1.
        -24    2    1    2    0    0 -0.11311578053E+03  0.11371811812E+03  0.62252516130E+03  0.64777794367E+03  0.79697538634E+02 0.  0.
        254    2    1    2    0    0  0.11311578053E+03 -0.11371811812E+03  0.46838864116E+03  0.10258604064E+04  0.89848464880E+03 0.  0.
         23    2    4    4    0    0 -0.36219859873E+03 -0.14579039734E+02  0.36332607121E+03  0.52140089769E+03  0.91938505409E+02 0.  0.
         23    2    4    4    0    0  0.47531437926E+03 -0.99139078385E+02  0.10506256996E+03  0.50445950874E+03  0.87686580281E+02 0.  0.
          3    1    3    3  502    0 -0.99701574334E+02  0.60385022165E+02  0.32637997754E+03  0.34656982639E+03  0.00000000000E+00 0. -1.
         -4    1    3    3    0  502 -0.13414206199E+02  0.53333095954E+02  0.29614518376E+03  0.30120811728E+03  0.00000000000E+00 0.  1.
         13    1    5    5    0    0 -0.34202523852E+03 -0.17944975053E+02  0.30155421801E+03  0.45633127475E+03  0.00000000000E+00 0. -1.
        -13    1    5    5    0    0 -0.20173360207E+02  0.33659353188E+01  0.61771853199E+02  0.65069622945E+02  0.00000000000E+00 0.  1.
          4    1    6    6  503    0  0.31138661756E+03 -0.50873400304E+02  0.27243003354E+02  0.31668897942E+03  0.00000000000E+00 0. -1.
         -4    1    6    6    0  503  0.16392776171E+03 -0.48265678081E+02  0.77819566603E+02  0.18777052933E+03  0.00000000000E+00 0.  1.
<mgrwt>
<rscale>  0 0.12692409E+04</rscale>
<asrwt>0</asrwt>
<pdfrwt beam="1">  1        1 0.44824966E-01 0.12692409E+04</pdfrwt>
<pdfrwt beam="2">  1       -2 0.21265785E+00 0.12692409E+04</pdfrwt>
<totfact> 0.86159213E+00</totfact>
</mgrwt>
</event>
<event>
12    5  0.5029243E-008  0.1838554E+04  0.7818608E-02  0.8686062E-01
         -2   -1    0    0    0  501 -0.00000000000E+00  0.00000000000E+00  0.10197942623E+04  0.10197942623E+04  0.00000000000E+00 0.  1.
          1   -1    0    0  501    0  0.00000000000E+00 -0.00000000000E+00 -0.82866689999E+03  0.82866689999E+03  0.00000000000E+00 0. -1.
        -24    2    1    2    0    0 -0.37117213157E+03  0.36129946671E+03  0.54369593388E+03  0.75519030627E+03  0.80006713842E+02 0.  0.
        254    2    1    2    0    0  0.37117213157E+03 -0.36129946671E+03 -0.35256857161E+03  0.10932708560E+04  0.89589648451E+03 0.  0.
         23    2    4    4    0    0 -0.28233891143E+03 -0.54158206572E+02 -0.58094229307E+02  0.30808906673E+03  0.94316283411E+02 0.  0.
         23    2    4    4    0    0  0.65351104300E+03 -0.30714126014E+03 -0.29447434230E+03  0.78518178925E+03  0.91557997423E+02 0.  0.
          3    1    3    3  502    0 -0.72849156711E+01  0.29073807846E+02  0.19446164983E+02  0.35728274959E+02  0.00000000000E+00 0. -1.
         -4    1    3    3    0  502 -0.36388721590E+03  0.33222565886E+03  0.52424976890E+03  0.71946203131E+03  0.00000000000E+00 0.  1.
         13    1    5    5    0    0 -0.24839967397E+03 -0.39611603740E+02 -0.15930519370E+02  0.25204217629E+03  0.00000000000E+00 0. -1.
        -13    1    5    5    0    0 -0.33939237456E+02 -0.14546602832E+02 -0.42163709936E+02  0.56046890446E+02  0.00000000000E+00 0.  1.
          3    1    6    6  503    0  0.35701620259E+03 -0.13450955737E+03 -0.19206988709E+03  0.42713491014E+03  0.00000000000E+00 0. -1.
         -3    1    6    6    0  503  0.29649484041E+03 -0.17263170277E+03 -0.10240445521E+03  0.35804687911E+03  0.00000000000E+00 0.  1.
<mgrwt>
<rscale>  0 0.18385535E+04</rscale>
<asrwt>0</asrwt>
<pdfrwt beam="1">  1        1 0.12748721E+00 0.18385535E+04</pdfrwt>
<pdfrwt beam="2">  1       -2 0.15689143E+00 0.18385535E+04</pdfrwt>
<totfact> 0.45700649E+00</totfact>
</mgrwt>
</event>
<event>
12    5  0.5029243E-008  0.1901923E+04  0.7818608E-02  0.8653900E-01
          1   -1    0    0  501    0  0.00000000000E+00  0.00000000000E+00  0.10654589620E+04  0.10654589620E+04  0.00000000000E+00 0. -1.
         -2   -1    0    0    0  501 -0.00000000000E+00 -0.00000000000E+00 -0.84876798840E+03  0.84876798840E+03  0.00000000000E+00 0.  1.
        -24    2    1    2    0    0 -0.59829087917E+03  0.42528414379E+03  0.61532173383E+02  0.74137492681E+03  0.83856989493E+02 0.  0.
        254    2    1    2    0    0  0.59829087917E+03 -0.42528414379E+03  0.15515880022E+03  0.11728520236E+04  0.90149267158E+03 0.  0.
         23    2    4    4    0    0  0.57036802299E+03 -0.66408656607E+03  0.15348824854E+02  0.88016799752E+03  0.90163565591E+02 0.  0.
         23    2    4    4    0    0  0.27922856179E+02  0.23880242227E+03  0.13980997537E+03  0.29268402608E+03  0.91163738005E+02 0.  0.
          1    1    3    3  502    0 -0.42788925244E+02  0.30363148485E+02  0.26798799037E+02  0.58915096023E+02  0.00000000000E+00 0. -1.
         -2    1    3    3    0  502 -0.55550195392E+03  0.39492099531E+03  0.34733374346E+02  0.68245983079E+03  0.00000000000E+00 0.  1.
         13    1    5    5    0    0  0.68955393115E+02 -0.57309819397E+02 -0.21357562171E+02  0.92170532714E+02  0.00000000000E+00 0.  1.
        -13    1    5    5    0    0  0.50141262987E+03 -0.60677674667E+03  0.36706387025E+02  0.78799746481E+03  0.00000000000E+00 0. -1.
          1    1    6    6  503    0 -0.97863443374E+01  0.20334833372E+03  0.96981560382E+02  0.22550330467E+03  0.00000000000E+00 0. -1.
         -1    1    6    6    0  503  0.37709200516E+02  0.35454088554E+02  0.42828414987E+02  0.67180721409E+02  0.00000000000E+00 0.  1.
<mgrwt>
<rscale>  0 0.19019227E+04</rscale>
<asrwt>0</asrwt>
<pdfrwt beam="1">  1        1 0.16391676E+00 0.19019227E+04</pdfrwt>
<pdfrwt beam="2">  1       -2 0.13057969E+00 0.19019227E+04</pdfrwt>
<totfact> 0.47435038E+00</totfact>
</mgrwt>
</event>
<event>
12    5  0.5029243E-008  0.3328836E+04  0.7818608E-02  0.8155597E-01
          1   -1    0    0  501    0  0.00000000000E+00  0.00000000000E+00  0.14574187060E+04  0.14574187060E+04  0.00000000000E+00 0. -1.
         -2   -1    0    0    0  501 -0.00000000000E+00 -0.00000000000E+00 -0.19008174497E+04  0.19008174497E+04  0.00000000000E+00 0.  1.
        -24    2    1    2    0    0  0.11499726952E+04 -0.62398755542E+03  0.61033299838E+03  0.14459544463E+04  0.80499831334E+02 0.  0.
        254    2    1    2    0    0 -0.11499726952E+04  0.62398755542E+03 -0.10537317420E+04  0.19122817094E+04  0.91360444569E+03 0.  0.
         23    2    4    4    0    0 -0.48255661189E+03  0.81202754405E+02 -0.90681255383E+03  0.10344080825E+04  0.90754075763E+02 0.  0.
         23    2    4    4    0    0 -0.66741608327E+03  0.54278480101E+03 -0.14691918820E+03  0.87787362699E+03  0.94959405467E+02 0.  0.
          3    1    3    3  502    0  0.11190913243E+04 -0.59862699585E+03  0.60384528369E+03  0.14054710238E+04  0.00000000000E+00 0. -1.
         -4    1    3    3    0  502  0.30881370897E+02 -0.25360559571E+02  0.64877146858E+01  0.40483422436E+02  0.00000000000E+00 0.  1.
         13    1    5    5    0    0 -0.41322005089E+03  0.51058869679E+02 -0.70330462781E+03  0.81730974430E+03  0.00000000000E+00 0. -1.
        -13    1    5    5    0    0 -0.69336561003E+02  0.30143884726E+02 -0.20350792601E+03  0.21709833815E+03  0.00000000000E+00 0.  1.
          3    1    6    6  503    0 -0.49018130788E+03  0.37606885574E+03 -0.65481802732E+02  0.62128364323E+03  0.00000000000E+00 0. -1.
         -3    1    6    6    0  503 -0.17723477539E+03  0.16671594527E+03 -0.81437385472E+02  0.25658998376E+03  0.00000000000E+00 0.  1.
<mgrwt>
<rscale>  0 0.33288358E+04</rscale>
<asrwt>0</asrwt>
<pdfrwt beam="1">  1        1 0.22421826E+00 0.33288358E+04</pdfrwt>
<pdfrwt beam="2">  1       -2 0.29243345E+00 0.33288358E+04</pdfrwt>
<totfact> 0.17997555E-01</totfact>
</mgrwt>
</event>
<event>
12    5  0.5029243E-008  0.1442303E+04  0.7818608E-02  0.8923754E-01
         -2   -1    0    0    0  501 -0.00000000000E+00  0.00000000000E+00  0.25652298473E+03  0.25652298473E+03  0.00000000000E+00 0.  1.
          1   -1    0    0  501    0  0.00000000000E+00 -0.00000000000E+00 -0.20273411552E+04  0.20273411552E+04  0.00000000000E+00 0. -1.
        -24    2    1    2    0    0 -0.41021431271E+02 -0.34325563701E+03 -0.98746272650E+03  0.10495269010E+04  0.83167839812E+02 0.  0.
        254    2    1    2    0    0  0.41021431271E+02  0.34325563701E+03 -0.78335544400E+03  0.12343372389E+04  0.88906438328E+03 0.  0.
         23    2    4    4    0    0  0.98651944583E+02  0.38678670161E+03  0.33010896705E+02  0.41038446292E+03  0.89384167480E+02 0.  0.
         23    2    4    4    0    0 -0.57630513312E+02 -0.43531064601E+02 -0.81636634070E+03  0.82395277601E+03  0.85017323035E+02 0.  0.
          1    1    3    3  502    0 -0.22483259297E+02 -0.33172655607E+03 -0.94492819626E+03  0.10017171762E+04  0.00000000000E+00 0. -1.
         -2    1    3    3    0  502 -0.18538171974E+02 -0.11529080933E+02 -0.42534530245E+02  0.47809724853E+02  0.00000000000E+00 0.  1.
         13    1    5    5    0    0  0.99320675475E+02  0.38065524208E+03  0.17608676519E+02  0.39379318860E+03  0.00000000000E+00 0.  1.
        -13    1    5    5    0    0 -0.66873089209E+00  0.61314595278E+01  0.15402220186E+02  0.16591274321E+02  0.00000000000E+00 0. -1.
          1    1    6    6  503    0  0.25971574210E+01 -0.12420430719E+02 -0.14673472317E+02  0.19399049352E+02  0.00000000000E+00 0. -1.
         -1    1    6    6    0  503 -0.60227670733E+02 -0.31110633882E+02 -0.80169286838E+03  0.80455372666E+03  0.00000000000E+00 0.  1.
<mgrwt>
<rscale>  0 0.14423032E+04</rscale>
<asrwt>0</asrwt>
<pdfrwt beam="1">  1        1 0.31189865E+00 0.14423032E+04</pdfrwt>
<pdfrwt beam="2">  1       -2 0.39465073E-01 0.14423032E+04</pdfrwt>
<totfact> 0.14805176E+01</totfact>
</mgrwt>
</event>
<event>
12    5  0.5029243E-008  0.1261869E+04  0.7818608E-02  0.9060362E-01
          1   -1    0    0  501    0  0.00000000000E+00  0.00000000000E+00  0.95421458170E+03  0.95421458170E+03  0.00000000000E+00 0. -1.
         -2   -1    0    0    0  501 -0.00000000000E+00 -0.00000000000E+00 -0.41717906011E+03  0.41717906011E+03  0.00000000000E+00 0.  1.
        -24    2    1    2    0    0  0.28348037137E+03  0.19385354465E+02  0.24450781552E+03  0.38342658796E+03  0.80591336916E+02 0.  0.
        254    2    1    2    0    0 -0.28348037137E+03 -0.19385354465E+02  0.29252770608E+03  0.98796705386E+03  0.89987195076E+03 0.  0.
         23    2    4    4    0    0 -0.45478432066E+03 -0.27998829638E+03  0.36710027356E+03  0.65463884340E+03  0.92559062286E+02 0.  0.
         23    2    4    4    0    0  0.17130394929E+03  0.26060294192E+03 -0.74572567483E+02  0.33332821046E+03  0.91036760094E+02 0.  0.
          1    1    3    3  502    0  0.52207020824E+02  0.19839095140E+02  0.87813120032E+02  0.10406875981E+03  0.00000000000E+00 0. -1.
         -2    1    3    3    0  502  0.23127335055E+03 -0.45374067573E+00  0.15669469548E+03  0.27935782815E+03  0.00000000000E+00 0.  1.
         13    1    5    5    0    0 -0.42454885964E+03 -0.25645062164E+03  0.36581004065E+03  0.61629996057E+03  0.00000000000E+00 0.  1.
        -13    1    5    5    0    0 -0.30235461022E+02 -0.23537674739E+02  0.12902329055E+01  0.38338882825E+02  0.00000000000E+00 0. -1.
          1    1    6    6  503    0  0.43693597905E+02  0.77086116165E+02  0.19643970675E+02  0.90759491995E+02  0.00000000000E+00 0. -1.
         -1    1    6    6    0  503  0.12761035138E+03  0.18351682575E+03 -0.94216538158E+02  0.24256871846E+03  0.00000000000E+00 0.  1.
<mgrwt>
<rscale>  0 0.12618690E+04</rscale>
<asrwt>0</asrwt>
<pdfrwt beam="1">  1        1 0.14680224E+00 0.12618690E+04</pdfrwt>
<pdfrwt beam="2">  1       -2 0.64181394E-01 0.12618690E+04</pdfrwt>
<totfact> 0.31870299E+01</totfact>
</mgrwt>
</event>
<event>
12    5  0.5029243E-008  0.1568425E+04  0.7818608E-02  0.8840184E-01
         -2   -1    0    0    0  501 -0.00000000000E+00  0.00000000000E+00  0.58723368405E+03  0.58723368405E+03  0.00000000000E+00 0.  1.
          1   -1    0    0  501    0  0.00000000000E+00 -0.00000000000E+00 -0.10472650000E+04  0.10472650000E+04  0.00000000000E+00 0. -1.
        -24    2    1    2    0    0  0.55704959360E+02 -0.51501870133E+03 -0.63074992888E+02  0.52711071375E+03  0.74296329752E+02 0.  0.
        254    2    1    2    0    0 -0.55704959360E+02  0.51501870133E+03 -0.39695632305E+03  0.11073879703E+04  0.89464321890E+03 0.  0.
         23    2    4    4    0    0  0.29259462494E+02  0.70505290983E+03 -0.78122028589E+02  0.71588529078E+03  0.91831238661E+02 0.  0.
         23    2    4    4    0    0 -0.84964421854E+02 -0.19003420851E+03 -0.31883429447E+03  0.39150267952E+03  0.91033440882E+02 0.  0.
          3    1    3    3  502    0  0.32065143965E+02 -0.28767096097E+03 -0.72319946852E+02  0.29835034767E+03  0.00000000000E+00 0. -1.
         -4    1    3    3    0  502  0.23639815394E+02 -0.22734774036E+03  0.92449539643E+01  0.22876036608E+03  0.00000000000E+00 0.  1.
         13    1    5    5    0    0  0.38880397438E+02  0.11758206469E+03 -0.20316386576E+02  0.12549893548E+03  0.00000000000E+00 0. -1.
        -13    1    5    5    0    0 -0.96209349440E+01  0.58747084514E+03 -0.57805642014E+02  0.59038635530E+03  0.00000000000E+00 0.  1.
          4    1    6    6  503    0 -0.16095892239E+02 -0.65996032025E+01 -0.83430599585E+02  0.85224981411E+02  0.00000000000E+00 0. -1.
         -4    1    6    6    0  503 -0.68868529614E+02 -0.18343460530E+03 -0.23540369488E+03  0.30627769811E+03  0.00000000000E+00 0.  1.
<mgrwt>
<rscale>  0 0.15684250E+04</rscale>
<asrwt>0</asrwt>
<pdfrwt beam="1">  1        1 0.16111769E+00 0.15684250E+04</pdfrwt>
<pdfrwt beam="2">  1       -2 0.90343643E-01 0.15684250E+04</pdfrwt>
<totfact> 0.12287463E+01</totfact>
</mgrwt>
</event>
<event>
12    5  0.5029243E-008  0.1386143E+04  0.7818608E-02  0.8963910E-01
         -2   -1    0    0    0  501 -0.00000000000E+00  0.00000000000E+00  0.13700573549E+04  0.13700573549E+04  0.00000000000E+00 0.  1.
          1   -1    0    0  501    0  0.00000000000E+00 -0.00000000000E+00 -0.35060452707E+03  0.35060452707E+03  0.00000000000E+00 0. -1.
        -24    2    1    2    0    0 -0.73942914648E+02 -0.12655309241E+03  0.74462587316E+03  0.76318835614E+03  0.80656903866E+02 0.  0.
        254    2    1    2    0    0  0.73942914648E+02  0.12655309241E+03  0.27482695468E+03  0.95747352583E+03  0.90539629876E+03 0.  0.
         23    2    4    4    0    0  0.36932223058E+03  0.26623341072E+03  0.38186813965E+03  0.60147228080E+03  0.93093982108E+02 0.  0.
         23    2    4    4    0    0 -0.29537931593E+03 -0.13968031830E+03 -0.10704118498E+03  0.35600124503E+03  0.92301352008E+02 0.  0.
          1    1    3    3  502    0 -0.13100711223E+01 -0.44417034046E+02  0.37556628616E+03  0.37818596550E+03  0.00000000000E+00 0. -1.
         -2    1    3    3    0  502 -0.72632843526E+02 -0.82136058368E+02  0.36905958700E+03  0.38500239064E+03  0.00000000000E+00 0.  1.
         13    1    5    5    0    0  0.27821583814E+03  0.24507184960E+03  0.31482905071E+03  0.48639654113E+03  0.00000000000E+00 0.  1.
        -13    1    5    5    0    0  0.91106392441E+02  0.21161561113E+02  0.67039088947E+02  0.11507573966E+03  0.00000000000E+00 0. -1.
          3    1    6    6  503    0 -0.10144892861E+03 -0.47691088486E+02 -0.84094820956E+02  0.14013659032E+03  0.00000000000E+00 0. -1.
         -3    1    6    6    0  503 -0.19393038732E+03 -0.91989229816E+02 -0.22946364021E+02  0.21586465471E+03  0.00000000000E+00 0.  1.
<mgrwt>
<rscale>  0 0.13861433E+04</rscale>
<asrwt>0</asrwt>
<pdfrwt beam="1">  1        1 0.53939159E-01 0.13861433E+04</pdfrwt>
<pdfrwt beam="2">  1       -2 0.21077805E+00 0.13861433E+04</pdfrwt>
<totfact> 0.68921485E+00</totfact>
</mgrwt>
</event>
<event>
12    5  0.5029243E-008  0.1815463E+04  0.7818608E-02  0.8698119E-01
         -2   -1    0    0    0  501 -0.00000000000E+00  0.00000000000E+00  0.52046928804E+03  0.52046928804E+03  0.00000000000E+00 0.  1.
          1   -1    0    0  501    0  0.00000000000E+00 -0.00000000000E+00 -0.15831417999E+04  0.15831417999E+04  0.00000000000E+00 0. -1.
        -24    2    1    2    0    0 -0.25798379706E+02  0.16944022173E+03  0.36962853329E+03  0.41537393297E+03  0.80837531073E+02 0.  0.
        254    2    1    2    0    0  0.25798379706E+02 -0.16944022173E+03 -0.14323010451E+04  0.16882371549E+04  0.87708771645E+03 0.  0.
         23    2    4    4    0    0 -0.95917955412E+01 -0.44226210629E+03 -0.12875813441E+04  0.13644565110E+04  0.90488008359E+02 0.  0.
         23    2    4    4    0    0  0.35390175247E+02  0.27282188456E+03 -0.14471970107E+03  0.32378064395E+03  0.90586247947E+02 0.  0.
          3    1    3    3  502    0 -0.34994530195E+02  0.80204547109E+02  0.10924869689E+03  0.13997379860E+03  0.00000000000E+00 0. -1.
         -4    1    3    3    0  502  0.91961504893E+01  0.89235674625E+02  0.26037983640E+03  0.27540013438E+03  0.00000000000E+00 0.  1.
         13    1    5    5    0    0  0.34123788983E+02 -0.10136015198E+03 -0.34320502993E+03  0.35948297032E+03  0.00000000000E+00 0. -1.
        -13    1    5    5    0    0 -0.43715584524E+02 -0.34090195432E+03 -0.94437631413E+03  0.10049735407E+04  0.00000000000E+00 0.  1.
          4    1    6    6  503    0 -0.12644379749E+02  0.13107220866E+03 -0.29614010900E+02  0.13496960348E+03  0.00000000000E+00 0. -1.
         -4    1    6    6    0  503  0.48034554996E+02  0.14174967590E+03 -0.11510569017E+03  0.18881104046E+03  0.00000000000E+00 0.  1.
<mgrwt>
<rscale>  0 0.18154632E+04</rscale>
<asrwt>0</asrwt>
<pdfrwt beam="1">  1        1 0.24356027E+00 0.18154632E+04</pdfrwt>
<pdfrwt beam="2">  1       -2 0.80072200E-01 0.18154632E+04</pdfrwt>
<totfact> 0.65389544E+00</totfact>
</mgrwt>
</event>
<event>
12    5  0.5029243E-008  0.3319991E+04  0.7818608E-02  0.8157827E-01
         -2   -1    0    0    0  501 -0.00000000000E+00  0.00000000000E+00  0.78659638629E+03  0.78659638629E+03  0.00000000000E+00 0.  1.
          1   -1    0    0  501    0  0.00000000000E+00 -0.00000000000E+00 -0.35031750914E+04  0.35031750914E+04  0.00000000000E+00 0. -1.
        -24    2    1    2    0    0  0.11766920240E+04 -0.86745296454E+03 -0.19104167619E+04  0.24069419619E+04  0.81232006210E+02 0.  0.
        254    2    1    2    0    0 -0.11766920240E+04  0.86745296454E+03 -0.80616194320E+03  0.18828295158E+04  0.87067280975E+03 0.  0.
         23    2    4    4    0    0 -0.91248639588E+03  0.43747846776E+03 -0.90486190465E+03  0.13605154546E+04  0.90600238904E+02 0.  0.
         23    2    4    4    0    0 -0.26420562815E+03  0.42997449678E+03  0.98699961450E+02  0.52231406116E+03  0.91583919245E+02 0.  0.
          3    1    3    3  502    0  0.18999104403E+03 -0.17309815503E+03 -0.31014796598E+03  0.40280433077E+03  0.00000000000E+00 0. -1.
         -4    1    3    3    0  502  0.98670098000E+03 -0.69435480952E+03 -0.16002687959E+04  0.20041376312E+04  0.00000000000E+00 0.  1.
         13    1    5    5    0    0 -0.68521170643E+03  0.32259902227E+03 -0.62318347479E+03  0.98078685506E+03  0.00000000000E+00 0. -1.
        -13    1    5    5    0    0 -0.22727468945E+03  0.11487944549E+03 -0.28167842986E+03  0.37972859954E+03  0.00000000000E+00 0.  1.
          2    1    6    6  503    0 -0.22464831773E+03  0.37038686108E+03  0.11655614286E+03  0.44859628616E+03  0.00000000000E+00 0. -1.
         -2    1    6    6    0  503 -0.39557310414E+02  0.59587635700E+02 -0.17856181406E+02  0.73717774993E+02  0.00000000000E+00 0.  1.
<mgrwt>
<rscale>  0 0.33199909E+04</rscale>
<asrwt>0</asrwt>
<pdfrwt beam="1">  1        1 0.53895000E+00 0.33199909E+04</pdfrwt>
<pdfrwt beam="2">  1       -2 0.12101483E+00 0.33199909E+04</pdfrwt>
<totfact> 0.94108462E-02</totfact>
</mgrwt>
</event>
<event>
12    5  0.5029243E-008  0.1758967E+04  0.7818608E-02  0.8728430E-01
         -4   -1    0    0    0  501 -0.00000000000E+00  0.00000000000E+00  0.19009533873E+04  0.19009533873E+04  0.00000000000E+00 0.  1.
          3   -1    0    0  501    0  0.00000000000E+00 -0.00000000000E+00 -0.40689645877E+03  0.40689645877E+03  0.00000000000E+00 0. -1.
        -24    2    1    2    0    0 -0.61250216089E+03 -0.20733469851E+03  0.45090716804E+03  0.79222224848E+03  0.78436231986E+02 0.  0.
        254    2    1    2    0    0  0.61250216089E+03  0.20733469851E+03  0.10431497605E+04  0.15156275976E+04  0.88928005571E+03 0.  0.
         23    2    4    4    0    0  0.38160310487E+03 -0.31183317583E+03  0.64004077032E+03  0.81314548763E+03  0.93233777050E+02 0.  0.
         23    2    4    4    0    0  0.23089905602E+03  0.51916787434E+03  0.40310899016E+03  0.70248210997E+03  0.90192023255E+02 0.  0.
          3    1    3    3  502    0 -0.56557345549E+03 -0.18313676653E+03  0.38712402557E+03  0.70942048179E+03  0.00000000000E+00 0. -1.
         -4    1    3    3    0  502 -0.46928705401E+02 -0.24197931977E+02  0.63783142477E+02  0.82801766689E+02  0.00000000000E+00 0.  1.
         13    1    5    5    0    0  0.99500752160E+02 -0.49468468043E+02  0.19573340458E+03  0.22507575320E+03  0.00000000000E+00 0.  1.
        -13    1    5    5    0    0  0.28210235271E+03 -0.26236470778E+03  0.44430736574E+03  0.58806973442E+03  0.00000000000E+00 0. -1.
          2    1    6    6  503    0  0.16126819991E+03  0.43114998941E+03  0.29556717599E+03  0.54704451482E+03  0.00000000000E+00 0. -1.
         -2    1    6    6    0  503  0.69630856111E+02  0.88017884921E+02  0.10754181417E+03  0.15543759514E+03  0.00000000000E+00 0.  1.
<mgrwt>
<rscale>  0 0.17589670E+04</rscale>
<asrwt>0</asrwt>
<pdfrwt beam="1">  1        3 0.62599456E-01 0.17589670E+04</pdfrwt>
<pdfrwt beam="2">  1       -4 0.29245436E+00 0.17589670E+04</pdfrwt>
<totfact> 0.18543128E-01</totfact>
</mgrwt>
</event>
<event>
12    5  0.5029243E-008  0.1246316E+04  0.7818608E-02  0.9073255E-01
          1   -1    0    0  501    0  0.00000000000E+00  0.00000000000E+00  0.14800938657E+04  0.14800938657E+04  0.00000000000E+00 0. -1.
         -2   -1    0    0    0  501 -0.00000000000E+00 -0.00000000000E+00 -0.26236564646E+03  0.26236564646E+03  0.00000000000E+00 0.  1.
        -24    2    1    2    0    0  0.22297827861E+03  0.81162693666E+02  0.64236697670E+03  0.68944404433E+03  0.79944117578E+02 0.  0.
        254    2    1    2    0    0 -0.22297827861E+03 -0.81162693666E+02  0.57536124258E+03  0.10530154679E+04  0.84940821783E+03 0.  0.
         23    2    4    4    0    0  0.17419613126E+03 -0.23258347518E+03 -0.31916464392E+02  0.30617548546E+03  0.91024184260E+02 0.  0.
         23    2    4    4    0    0 -0.39717440987E+03  0.15142078152E+03  0.60727770698E+03  0.74683998241E+03  0.91148126706E+02 0.  0.
          1    1    3    3  502    0  0.20842811050E+03  0.90022564036E+02  0.62567427260E+03  0.66559344549E+03  0.00000000000E+00 0. -1.
         -2    1    3    3    0  502  0.14550168110E+02 -0.88598703708E+01  0.16692704094E+02  0.23850598839E+02  0.00000000000E+00 0.  1.
         13    1    5    5    0    0  0.12520650062E+03 -0.91570939084E+02 -0.20348055325E+02  0.15644790839E+03  0.00000000000E+00 0.  1.
        -13    1    5    5    0    0  0.48989630642E+02 -0.14101253610E+03 -0.11568409068E+02  0.14972757707E+03  0.00000000000E+00 0. -1.
          3    1    6    6  503    0 -0.20482864299E+03  0.10843503610E+03  0.38849919276E+03  0.45237656086E+03  0.00000000000E+00 0. -1.
         -3    1    6    6    0  503 -0.19234576688E+03  0.42985745420E+02  0.21877851422E+03  0.29446342155E+03  0.00000000000E+00 0.  1.
<mgrwt>
<rscale>  0 0.12463158E+04</rscale>
<asrwt>0</asrwt>
<pdfrwt beam="1">  1        1 0.22770674E+00 0.12463158E+04</pdfrwt>
<pdfrwt beam="2">  1       -2 0.40363947E-01 0.12463158E+04</pdfrwt>
<totfact> 0.33957041E+01</totfact>
</mgrwt>
</event>
<event>
12    5  0.5029243E-008  0.3068868E+04  0.7818608E-02  0.8224334E-01
          1   -1    0    0  501    0  0.00000000000E+00  0.00000000000E+00  0.20704601113E+04  0.20704601113E+04  0.00000000000E+00 0. -1.
         -2   -1    0    0    0  501 -0.00000000000E+00 -0.00000000000E+00 -0.11371809330E+04  0.11371809330E+04  0.00000000000E+00 0.  1.
        -24    2    1    2    0    0  0.39843027362E+03 -0.82954179168E+03 -0.67630293818E+03  0.11466567689E+04  0.10271228906E+03 0.  0.
        254    2    1    2    0    0 -0.39843027362E+03  0.82954179168E+03  0.16095821165E+04  0.20609842755E+04  0.90000851483E+03 0.  0.
         23    2    4    4    0    0 -0.62872577494E+01  0.87373160525E+03  0.11733292887E+04  0.14657075657E+04  0.90280678411E+02 0.  0.
         23    2    4    4    0    0 -0.39214301587E+03 -0.44189813566E+02  0.43625282780E+03  0.59527670971E+03  0.91153424737E+02 0.  0.
          3    1    3    3  502    0  0.39897724903E+03 -0.82874886208E+03 -0.66424672253E+03  0.11345621314E+04  0.00000000000E+00 0. -1.
         -4    1    3    3    0  502 -0.54697541224E+00 -0.79292959905E+00 -0.12056215646E+02  0.12094637454E+02  0.00000000000E+00 0.  1.
         13    1    5    5    0    0 -0.42709060376E+02  0.50212174241E+03  0.70968228499E+03  0.87040177715E+03  0.00000000000E+00 0.  1.
        -13    1    5    5    0    0  0.36421802627E+02  0.37160986284E+03  0.46364700372E+03  0.59530578859E+03  0.00000000000E+00 0. -1.
          1    1    6    6  503    0 -0.37285882659E+02 -0.19920998680E+02  0.87311368112E+02  0.97007000962E+02  0.00000000000E+00 0. -1.
         -1    1    6    6    0  503 -0.35485713321E+03 -0.24268814886E+02  0.34894145969E+03  0.49826970875E+03  0.00000000000E+00 0.  1.
<mgrwt>
<rscale>  0 0.30688680E+04</rscale>
<asrwt>0</asrwt>
<pdfrwt beam="1">  1        1 0.31853233E+00 0.30688680E+04</pdfrwt>
<pdfrwt beam="2">  1       -2 0.17495091E+00 0.30688680E+04</pdfrwt>
<totfact> 0.39043271E-01</totfact>
</mgrwt>
</event>
<event>
12    5  0.5029243E-008  0.1563736E+04  0.7818608E-02  0.8843142E-01
          1   -1    0    0  501    0  0.00000000000E+00  0.00000000000E+00  0.59037367274E+03  0.59037367274E+03  0.00000000000E+00 0. -1.
         -2   -1    0    0    0  501 -0.00000000000E+00 -0.00000000000E+00 -0.10354752355E+04  0.10354752355E+04  0.00000000000E+00 0.  1.
        -24    2    1    2    0    0  0.13123819268E+02 -0.51062007736E+03 -0.23408067933E+03  0.56816629803E+03  0.84345004320E+02 0.  0.
        254    2    1    2    0    0 -0.13123819268E+02  0.51062007736E+03 -0.21102088339E+03  0.10576826102E+04  0.90180795770E+03 0.  0.
         23    2    4    4    0    0 -0.77359881837E+02  0.46430826604E+03  0.27887896760E+03  0.55441173097E+03  0.89622383560E+02 0.  0.
         23    2    4    4    0    0  0.64236062568E+02  0.46311811315E+02 -0.48989985099E+03  0.50327087919E+03  0.83717729518E+02 0.  0.
          1    1    3    3  502    0  0.10350831868E+02 -0.51246028573E+02  0.65591023181E+00  0.52285039763E+02  0.00000000000E+00 0. -1.
         -2    1    3    3    0  502  0.27729874007E+01 -0.45937404878E+03 -0.23473658956E+03  0.51588125827E+03  0.00000000000E+00 0.  1.
         13    1    5    5    0    0 -0.30437414577E+02  0.24291153581E+03  0.94203971422E+02  0.26231057674E+03  0.00000000000E+00 0. -1.
        -13    1    5    5    0    0 -0.46922467259E+02  0.22139673023E+03  0.18467499618E+03  0.29210115423E+03  0.00000000000E+00 0.  1.
          1    1    6    6  503    0  0.28931893919E+02 -0.20593515871E+02 -0.10047130788E+03  0.10656280350E+03  0.00000000000E+00 0. -1.
         -1    1    6    6    0  503  0.35304168649E+02  0.66905327186E+02 -0.38942854311E+03  0.39670807569E+03  0.00000000000E+00 0.  1.
<mgrwt>
<rscale>  0 0.15637357E+04</rscale>
<asrwt>0</asrwt>
<pdfrwt beam="1">  1        1 0.90826720E-01 0.15637357E+04</pdfrwt>
<pdfrwt beam="2">  1       -2 0.15930388E+00 0.15637357E+04</pdfrwt>
<totfact> 0.75201805E+00</totfact>
</mgrwt>
</event>
<event>
12    5  0.5029243E-008  0.3034289E+04  0.7818608E-02  0.8234007E-01
          1   -1    0    0  501    0  0.00000000000E+00  0.00000000000E+00  0.15754901488E+04  0.15754901488E+04  0.00000000000E+00 0. -1.
         -2   -1    0    0    0  501 -0.00000000000E+00 -0.00000000000E+00 -0.14609597004E+04  0.14609597004E+04  0.00000000000E+00 0.  1.
        -24    2    1    2    0    0 -0.50624883410E+03  0.14991016965E+03  0.13235730518E+04  0.14272954462E+04  0.81029169018E+02 0.  0.
        254    2    1    2    0    0  0.50624883410E+03 -0.14991016965E+03 -0.12090426034E+04  0.16091544030E+04  0.92132129843E+03 0.  0.
         23    2    4    4    0    0  0.36563975568E+03 -0.19175540395E+03 -0.36831385506E+02  0.42422498440E+03  0.90264724857E+02 0.  0.
         23    2    4    4    0    0  0.14060907842E+03  0.41845234301E+02 -0.11722112179E+04  0.11849294186E+04  0.91960052140E+02 0.  0.
          1    1    3    3  502    0 -0.50824339058E+03  0.15259249457E+03  0.13120965131E+04  0.14153420340E+04  0.00000000000E+00 0. -1.
         -2    1    3    3    0  502  0.19945564822E+01 -0.26823249197E+01  0.11476538693E+02  0.11953412187E+02  0.00000000000E+00 0.  1.
         13    1    5    5    0    0  0.12767347551E+03 -0.82000543359E+02  0.27921319631E+02  0.15428611587E+03  0.00000000000E+00 0.  1.
        -13    1    5    5    0    0  0.23796628017E+03 -0.10975486059E+03 -0.64752705138E+02  0.26993886853E+03  0.00000000000E+00 0. -1.
          3    1    6    6  503    0  0.33199579905E+02  0.38110536380E+02 -0.63893477275E+03  0.64093078325E+03  0.00000000000E+00 0. -1.
         -3    1    6    6    0  503  0.10740949852E+03  0.37346979206E+01 -0.53327644517E+03  0.54399863539E+03  0.00000000000E+00 0.  1.
<mgrwt>
<rscale>  0 0.30342891E+04</rscale>
<asrwt>0</asrwt>
<pdfrwt beam="1">  1        1 0.24238310E+00 0.30342891E+04</pdfrwt>
<pdfrwt beam="2">  1       -2 0.22476303E+00 0.30342891E+04</pdfrwt>
<totfact> 0.39878753E-01</totfact>
</mgrwt>
</event>
<event>
12    5  0.5029243E-008  0.1274675E+04  0.7818608E-02  0.9049892E-01
          1   -1    0    0  501    0  0.00000000000E+00  0.00000000000E+00  0.11724127679E+04  0.11724127679E+04  0.00000000000E+00 0. -1.
         -2   -1    0    0    0  501 -0.00000000000E+00 -0.00000000000E+00 -0.34646445300E+03  0.34646445300E+03  0.00000000000E+00 0.  1.
        -24    2    1    2    0    0  0.13521647926E+03  0.27265083021E+03  0.28453850219E+03  0.42437392507E+03  0.80678978467E+02 0.  0.
        254    2    1    2    0    0 -0.13521647926E+03 -0.27265083021E+03  0.54140981272E+03  0.10945032958E+04  0.90121634908E+03 0.  0.
         23    2    4    4    0    0 -0.24546006960E+03  0.22098900631E+03 -0.77679408262E+01  0.34277652002E+03  0.91370756208E+02 0.  0.
         23    2    4    4    0    0  0.11024359035E+03 -0.49363983652E+03  0.54917775354E+03  0.75172677583E+03  0.87538580657E+02 0.  0.
          1    1    3    3  502    0  0.11457599278E+03  0.14633571973E+03  0.18499409014E+03  0.26223007908E+03  0.00000000000E+00 0. -1.
         -2    1    3    3    0  502  0.20640486477E+02  0.12631511048E+03  0.99544412056E+02  0.16214384598E+03  0.00000000000E+00 0.  1.
         13    1    5    5    0    0 -0.43785481558E+02  0.14325167982E+02 -0.26961617475E+02  0.53378906413E+02  0.00000000000E+00 0. -1.
        -13    1    5    5    0    0 -0.20167458804E+03  0.20666383833E+03  0.19193676649E+02  0.28939761360E+03  0.00000000000E+00 0.  1.
          3    1    6    6  503    0 -0.14257162939E+02 -0.47790378471E+02  0.64127627186E+02  0.81237550049E+02  0.00000000000E+00 0. -1.
         -3    1    6    6    0  503  0.12450075329E+03 -0.44584945805E+03  0.48505012636E+03  0.67048922579E+03  0.00000000000E+00 0.  1.
<mgrwt>
<rscale>  0 0.12746754E+04</rscale>
<asrwt>0</asrwt>
<pdfrwt beam="1">  1        1 0.18037119E+00 0.12746754E+04</pdfrwt>
<pdfrwt beam="2">  1       -2 0.53302224E-01 0.12746754E+04</pdfrwt>
<totfact> 0.32068496E+01</totfact>
</mgrwt>
</event>
<event>
12    5  0.5029243E-008  0.3020853E+04  0.7818608E-02  0.8237801E-01
          1   -1    0    0  501    0  0.00000000000E+00  0.00000000000E+00  0.15434878282E+04  0.15434878282E+04  0.00000000000E+00 0. -1.
         -2   -1    0    0    0  501 -0.00000000000E+00 -0.00000000000E+00 -0.14780732365E+04  0.14780732365E+04  0.00000000000E+00 0.  1.
        -24    2    1    2    0    0  0.16177756828E+02  0.64263286685E+03 -0.11876704821E+04  0.13528552263E+04  0.80108476489E+02 0.  0.
        254    2    1    2    0    0 -0.16177756828E+02 -0.64263286685E+03  0.12530850738E+04  0.16687058383E+04  0.89505209421E+03 0.  0.
         23    2    4    4    0    0  0.74857447018E+00  0.81774766968E+02  0.79995438383E+03  0.80902099920E+03  0.88883564692E+02 0.  0.
         23    2    4    4    0    0 -0.16926331299E+02 -0.72440763382E+03  0.45313068994E+03  0.85968483911E+03  0.93154064856E+02 0.  0.
          3    1    3    3  502    0 -0.14058984103E+02  0.46537825629E+02 -0.62528551852E+02  0.79203813324E+02  0.00000000000E+00 0. -1.
         -4    1    3    3    0  502  0.30236740932E+02  0.59609504123E+03 -0.11251419302E+04  0.12736514130E+04  0.00000000000E+00 0.  1.
         13    1    5    5    0    0  0.19346801260E+02  0.31063510021E+02  0.62137355292E+03  0.62245026520E+03  0.00000000000E+00 0.  1.
        -13    1    5    5    0    0 -0.18598226790E+02  0.50711256947E+02  0.17858083090E+03  0.18657073401E+03  0.00000000000E+00 0. -1.
          3    1    6    6  503    0 -0.22899307114E+02 -0.71340062752E+03  0.42973655236E+03  0.83314964925E+03  0.00000000000E+00 0. -1.
         -3    1    6    6    0  503  0.59729758152E+01 -0.11007006304E+02  0.23394137579E+02  0.26535189860E+02  0.00000000000E+00 0.  1.
<mgrwt>
<rscale>  0 0.30208529E+04</rscale>
<asrwt>0</asrwt>
<pdfrwt beam="1">  1        1 0.23745967E+00 0.30208529E+04</pdfrwt>
<pdfrwt beam="2">  1       -2 0.22739588E+00 0.30208529E+04</pdfrwt>
<totfact> 0.40433203E-01</totfact>
</mgrwt>
</event>
<event>
12    5  0.5029243E-008  0.1628739E+04  0.7818608E-02  0.8803084E-01
          1   -1    0    0  501    0  0.00000000000E+00  0.00000000000E+00  0.86493200653E+03  0.86493200653E+03  0.00000000000E+00 0. -1.
         -2   -1    0    0    0  501 -0.00000000000E+00 -0.00000000000E+00 -0.76676310401E+03  0.76676310401E+03  0.00000000000E+00 0.  1.
        -24    2    1    2    0    0  0.20373231424E+03  0.13490036870E+03  0.54384837783E+03  0.60026309057E+03  0.69568344030E+02 0.  0.
        254    2    1    2    0    0 -0.20373231424E+03 -0.13490036870E+03 -0.44567947531E+03  0.10314320200E+04  0.89750590626E+03 0.  0.
         23    2    4    4    0    0 -0.52754787040E+03  0.61191176162E+02 -0.23003388025E+03  0.58631812537E+03  0.93820266856E+02 0.  0.
         23    2    4    4    0    0  0.32381555616E+03 -0.19609154487E+03 -0.21564559506E+03  0.44511389460E+03  0.91186337322E+02 0.  0.
          3    1    3    3  502    0  0.16531687328E+03  0.92155194207E+02  0.47006764138E+03  0.50674040285E+03  0.00000000000E+00 0. -1.
         -4    1    3    3    0  502  0.38415440960E+02  0.42745174498E+02  0.73780736451E+02  0.93522687719E+02  0.00000000000E+00 0.  1.
         13    1    5    5    0    0 -0.21672412887E+03  0.47756445921E+02 -0.14017827159E+03  0.26248804542E+03  0.00000000000E+00 0. -1.
        -13    1    5    5    0    0 -0.31082374153E+03  0.13434730241E+02 -0.89855608663E+02  0.32383007996E+03  0.00000000000E+00 0.  1.
          3    1    6    6  503    0  0.14558609398E+03 -0.95492112311E+02 -0.48133309429E+02  0.18064016650E+03  0.00000000000E+00 0. -1.
         -3    1    6    6    0  503  0.17822946218E+03 -0.10059943256E+03 -0.16751228563E+03  0.26447372810E+03  0.00000000000E+00 0.  1.
<mgrwt>
<rscale>  0 0.16287393E+04</rscale>
<asrwt>0</asrwt>
<pdfrwt beam="1">  1        1 0.13306646E+00 0.16287393E+04</pdfrwt>
<pdfrwt beam="2">  1       -2 0.11796355E+00 0.16287393E+04</pdfrwt>
<totfact> 0.90405459E+00</totfact>
</mgrwt>
</event>
<event>
12    5  0.5029243E-008  0.1088774E+04  0.7818608E-02  0.9216203E-01
          1   -1    0    0  501    0  0.00000000000E+00  0.00000000000E+00  0.44750273227E+03  0.44750273227E+03  0.00000000000E+00 0. -1.
         -2   -1    0    0    0  501 -0.00000000000E+00 -0.00000000000E+00 -0.66224628717E+03  0.66224628717E+03  0.00000000000E+00 0.  1.
        -24    2    1    2    0    0 -0.65784743919E+02 -0.58571274005E+02  0.95707471668E+02  0.15226017756E+03  0.79151846886E+02 0.  0.
        254    2    1    2    0    0  0.65784743919E+02  0.58571274005E+02 -0.31045102657E+03  0.95748884188E+03  0.90146925392E+03 0.  0.
         23    2    4    4    0    0  0.24243237581E+03  0.38680421993E+03 -0.31749957482E+01  0.46579643286E+03  0.92548770229E+02 0.  0.
         23    2    4    4    0    0 -0.17664763189E+03 -0.32823294592E+03 -0.30727603082E+03  0.49169240902E+03  0.91660314916E+02 0.  0.
          3    1    3    3  502    0 -0.83484761985E+02 -0.43865196963E+02  0.84663851693E+02  0.12673527043E+03  0.00000000000E+00 0. -1.
         -4    1    3    3    0  502  0.17700018066E+02 -0.14706077042E+02  0.11043619975E+02  0.25524907123E+02  0.00000000000E+00 0.  1.
         13    1    5    5    0    0  0.21888047062E+03  0.33382646778E+03 -0.33094227802E+02  0.40055461415E+03  0.00000000000E+00 0.  1.
        -13    1    5    5    0    0  0.23551905188E+02  0.52977752153E+02  0.29919232053E+02  0.65241818704E+02  0.00000000000E+00 0. -1.
          3    1    6    6  503    0 -0.92673668486E+02 -0.20934140716E+03 -0.13353019269E+03  0.26503310349E+03  0.00000000000E+00 0. -1.
         -3    1    6    6    0  503 -0.83973963402E+02 -0.11889153876E+03 -0.17374583813E+03  0.22665930553E+03  0.00000000000E+00 0.  1.
<mgrwt>
<rscale>  0 0.10887737E+04</rscale>
<asrwt>0</asrwt>
<pdfrwt beam="1">  1        1 0.68846575E-01 0.10887737E+04</pdfrwt>
<pdfrwt beam="2">  1       -2 0.10188404E+00 0.10887737E+04</pdfrwt>
<totfact> 0.35534607E+01</totfact>
</mgrwt>
</event>
<event>
12    5  0.5029243E-008  0.1068101E+04  0.7818608E-02  0.9236852E-01
         -2   -1    0    0    0  501 -0.00000000000E+00  0.00000000000E+00  0.74090370796E+03  0.74090370796E+03  0.00000000000E+00 0.  1.
          1   -1    0    0  501    0  0.00000000000E+00 -0.00000000000E+00 -0.38494906354E+03  0.38494906354E+03  0.00000000000E+00 0. -1.
        -24    2    1    2    0    0 -0.10123363452E+03 -0.55892454813E+02  0.46911394088E+01  0.14005554329E+03  0.78875428082E+02 0.  0.
        254    2    1    2    0    0  0.10123363452E+03  0.55892454813E+02  0.35126350501E+03  0.98579722821E+03  0.91380408728E+03 0.  0.
         23    2    4    4    0    0 -0.28431464592E+03 -0.63802962464E+01  0.47938950501E+03  0.56489139276E+03  0.91719474695E+02 0.  0.
         23    2    4    4    0    0  0.38554828044E+03  0.62272751060E+02 -0.12812600000E+03  0.42090583545E+03  0.90664647828E+02 0.  0.
          3    1    3    3  502    0 -0.34291292284E+02  0.67566284987E+01 -0.25790511177E+02  0.43436105051E+02  0.00000000000E+00 0. -1.
         -4    1    3    3    0  502 -0.66942342232E+02 -0.62649083312E+02  0.30481650586E+02  0.96619438240E+02  0.00000000000E+00 0.  1.
         13    1    5    5    0    0 -0.38068360971E+02  0.18268050519E+02  0.29770564969E+02  0.51664381496E+02  0.00000000000E+00 0.  1.
        -13    1    5    5    0    0 -0.24624628495E+03 -0.24648346766E+02  0.44961894004E+03  0.51322701127E+03  0.00000000000E+00 0. -1.
          3    1    6    6  503    0  0.11922507575E+03  0.26369867284E+02 -0.84895168618E+02  0.14871845293E+03  0.00000000000E+00 0.  1.
         -3    1    6    6    0  503  0.26632320469E+03  0.35902883776E+02 -0.43230831378E+02  0.27218738251E+03  0.00000000000E+00 0. -1.
<mgrwt>
<rscale>  0 0.10681015E+04</rscale>
<asrwt>0</asrwt>
<pdfrwt beam="1">  1        1 0.59222933E-01 0.10681015E+04</pdfrwt>
<pdfrwt beam="2">  1       -2 0.11398519E+00 0.10681015E+04</pdfrwt>
<totfact> 0.33176694E+01</totfact>
</mgrwt>
</event>
<event>
12    5  0.5029243E-008  0.2462076E+04  0.7818608E-02  0.8416622E-01
          1   -1    0    0  501    0  0.00000000000E+00  0.00000000000E+00  0.21021356584E+04  0.21021356584E+04  0.00000000000E+00 0. -1.
         -2   -1    0    0    0  501 -0.00000000000E+00 -0.00000000000E+00 -0.72091182794E+03  0.72091182794E+03  0.00000000000E+00 0.  1.
        -24    2    1    2    0    0  0.10539321789E+04 -0.10664889276E+03  0.63073342499E+03  0.12354461669E+04  0.79721727671E+02 0.  0.
        254    2    1    2    0    0 -0.10539321789E+04  0.10664889276E+03  0.75049040550E+03  0.15876013195E+04  0.91383536647E+03 0.  0.
         23    2    4    4    0    0 -0.10405681793E+04  0.62019508306E+02  0.91542518770E+03  0.13904224106E+04  0.92965855726E+02 0.  0.
         23    2    4    4    0    0 -0.13363999544E+02  0.44629384457E+02 -0.16493478220E+03  0.19717890895E+03  0.97496981049E+02 0.  0.
          3    1    3    3  502    0  0.94632940359E+03 -0.11935443123E+03  0.56040589511E+03  0.11062728360E+04  0.00000000000E+00 0. -1.
         -2    1    3    3    0  502  0.10760277526E+03  0.12705538464E+02  0.70327529884E+02  0.12917333088E+03  0.00000000000E+00 0.  1.
         13    1    5    5    0    0 -0.11089878677E+03  0.24204671011E+02  0.13195253090E+03  0.17405710965E+03  0.00000000000E+00 0. -1.
        -13    1    5    5    0    0 -0.92966939254E+03  0.37814837294E+02  0.78347265680E+03  0.12163653009E+04  0.00000000000E+00 0.  1.
          2    1    6    6  503    0  0.96855773431E+01 -0.22450774884E+02 -0.93300691544E+01  0.26170553907E+02  0.00000000000E+00 0. -1.
         -2    1    6    6    0  503 -0.23049576888E+02  0.67080159341E+02 -0.15560471304E+03  0.17100835504E+03  0.00000000000E+00 0.  1.
<mgrwt>
<rscale>  0 0.24620759E+04</rscale>
<asrwt>0</asrwt>
<pdfrwt beam="1">  1        1 0.32340548E+00 0.24620759E+04</pdfrwt>
<pdfrwt beam="2">  1       -2 0.11090951E+00 0.24620759E+04</pdfrwt>
<totfact> 0.12812062E+00</totfact>
</mgrwt>
</event>
<event>
12    5  0.5029243E-008  0.2106788E+04  0.7818608E-02  0.8558259E-01
          1   -1    0    0  501    0  0.00000000000E+00  0.00000000000E+00  0.12758399028E+04  0.12758399028E+04  0.00000000000E+00 0. -1.
         -2   -1    0    0    0  501 -0.00000000000E+00 -0.00000000000E+00 -0.86973219721E+03  0.86973219721E+03  0.00000000000E+00 0.  1.
        -24    2    1    2    0    0  0.28467153918E+03 -0.71916446914E+03  0.53682983882E+03  0.94502120529E+03  0.81506954928E+02 0.  0.
        254    2    1    2    0    0 -0.28467153918E+03  0.71916446914E+03 -0.13072213322E+03  0.12005508947E+04  0.90884473691E+03 0.  0.
         23    2    4    4    0    0 -0.54777773273E+03  0.62745423249E+03  0.76517798794E+02  0.84153121529E+03  0.92523264288E+02 0.  0.
         23    2    4    4    0    0  0.26310619355E+03  0.91710236657E+02 -0.20723993201E+03  0.35901967943E+03  0.91165257663E+02 0.  0.
          1    1    3    3  502    0  0.28955090694E+03 -0.70086305220E+03  0.51828954955E+03  0.91851663176E+03  0.00000000000E+00 0. -1.
         -2    1    3    3    0  502 -0.48793677552E+01 -0.18301416947E+02  0.18540289266E+02  0.26504573530E+02  0.00000000000E+00 0.  1.
         13    1    5    5    0    0 -0.30325805733E+03  0.30255887832E+03  0.34592705744E+01  0.42839151572E+03  0.00000000000E+00 0.  1.
        -13    1    5    5    0    0 -0.24451967540E+03  0.32489535417E+03  0.73058528220E+02  0.41313969957E+03  0.00000000000E+00 0. -1.
          1    1    6    6  503    0  0.18665410416E+03  0.77320061625E+02 -0.19401865746E+03  0.28010959636E+03  0.00000000000E+00 0. -1.
         -1    1    6    6    0  503  0.76452089395E+02  0.14390175032E+02 -0.13221274557E+02  0.78910083077E+02  0.00000000000E+00 0.  1.
<mgrwt>
<rscale>  0 0.21067881E+04</rscale>
<asrwt>0</asrwt>
<pdfrwt beam="1">  1        1 0.19628306E+00 0.21067881E+04</pdfrwt>
<pdfrwt beam="2">  1       -2 0.13380495E+00 0.21067881E+04</pdfrwt>
<totfact> 0.30640491E+00</totfact>
</mgrwt>
</event>
<event>
12    5  0.5029243E-008  0.1398029E+04  0.7818608E-02  0.8955246E-01
          1   -1    0    0  501    0  0.00000000000E+00  0.00000000000E+00  0.20149540917E+04  0.20149540917E+04  0.00000000000E+00 0. -1.
         -2   -1    0    0    0  501 -0.00000000000E+00 -0.00000000000E+00 -0.24249757185E+03  0.24249757185E+03  0.00000000000E+00 0.  1.
        -24    2    1    2    0    0  0.39582930712E+03  0.84682773863E+02  0.57775336267E+03  0.70988506665E+03  0.79283335035E+02 0.  0.
        254    2    1    2    0    0 -0.39582930712E+03 -0.84682773863E+02  0.11947031572E+04  0.15475665969E+04  0.89654599742E+03 0.  0.
         23    2    4    4    0    0 -0.25708240209E+03 -0.37913686415E+03  0.11020925201E+04  0.11970251827E+04  0.91789116651E+02 0.  0.
         23    2    4    4    0    0 -0.13874690503E+03  0.29445409028E+03  0.92610637161E+02  0.35054141427E+03  0.91370881909E+02 0.  0.
          3    1    3    3  502    0  0.26555507646E+03  0.80381091440E+02  0.44053797533E+03  0.52062877965E+03  0.00000000000E+00 0. -1.
         -4    1    3    3    0  502  0.13027423066E+03  0.43016824222E+01  0.13721538734E+03  0.18925628700E+03  0.00000000000E+00 0.  1.
         13    1    5    5    0    0 -0.61688451305E+02 -0.39983044377E+02  0.22097120645E+03  0.23287847248E+03  0.00000000000E+00 0.  1.
        -13    1    5    5    0    0 -0.19539395078E+03 -0.33915381977E+03  0.88112131361E+03  0.96414671019E+03  0.00000000000E+00 0. -1.
          4    1    6    6  503    0 -0.12078267033E+03  0.26348756388E+03  0.11089615095E+03  0.31034191799E+03  0.00000000000E+00 0. -1.
         -4    1    6    6    0  503 -0.17964234707E+02  0.30966526406E+02 -0.18285513787E+02  0.40199496274E+02  0.00000000000E+00 0.  1.
<mgrwt>
<rscale>  0 0.13980293E+04</rscale>
<asrwt>0</asrwt>
<pdfrwt beam="1">  1        1 0.30999293E+00 0.13980293E+04</pdfrwt>
<pdfrwt beam="2">  1       -2 0.37307320E-01 0.13980293E+04</pdfrwt>
<totfact> 0.16900256E+01</totfact>
</mgrwt>
</event>
<event>
12    5  0.5029243E-008  0.2099435E+04  0.7818608E-02  0.8561492E-01
          1   -1    0    0  501    0  0.00000000000E+00  0.00000000000E+00  0.10150432138E+04  0.10150432138E+04  0.00000000000E+00 0. -1.
         -2   -1    0    0    0  501 -0.00000000000E+00 -0.00000000000E+00 -0.10855762598E+04  0.10855762598E+04  0.00000000000E+00 0.  1.
        -24    2    1    2    0    0  0.52531241658E+02  0.54612367678E+03  0.64329700183E+03  0.84899882583E+03  0.77184013950E+02 0.  0.
        254    2    1    2    0    0 -0.52531241658E+02 -0.54612367678E+03 -0.71383004781E+03  0.12516206478E+04  0.86947703083E+03 0.  0.
         23    2    4    4    0    0  0.38426295057E+03 -0.26765653843E+03 -0.47743022029E+03  0.67489802602E+03  0.90827818001E+02 0.  0.
         23    2    4    4    0    0 -0.43679419223E+03 -0.27846713835E+03 -0.23639982752E+03  0.57672262178E+03  0.91602349954E+02 0.  0.
          1    1    3    3  502    0  0.58570542464E+02  0.51901669401E+03  0.58384206601E+03  0.78337755594E+03  0.00000000000E+00 0. -1.
         -2    1    3    3    0  502 -0.60393008057E+01  0.27106982772E+02  0.59454935815E+02  0.65621269890E+02  0.00000000000E+00 0.  1.
         13    1    5    5    0    0  0.19048350794E+03 -0.13018719779E+03 -0.17116095833E+03  0.28727816993E+03  0.00000000000E+00 0.  1.
        -13    1    5    5    0    0  0.19377944264E+03 -0.13746934065E+03 -0.30626926197E+03  0.38761985609E+03  0.00000000000E+00 0. -1.
          1    1    6    6  503    0 -0.36241772865E+03 -0.23152683584E+03 -0.15575431260E+03  0.45739555272E+03  0.00000000000E+00 0. -1.
         -1    1    6    6    0  503 -0.74376463587E+02 -0.46940302501E+02 -0.80645514920E+02  0.11932706906E+03  0.00000000000E+00 0.  1.
<mgrwt>
<rscale>  0 0.20994350E+04</rscale>
<asrwt>0</asrwt>
<pdfrwt beam="1">  1        1 0.15616050E+00 0.20994350E+04</pdfrwt>
<pdfrwt beam="2">  1       -2 0.16701173E+00 0.20994350E+04</pdfrwt>
<totfact> 0.26586154E+00</totfact>
</mgrwt>
</event>
<event>
12    5  0.5029243E-008  0.2518673E+04  0.7818608E-02  0.8396363E-01
          1   -1    0    0  501    0  0.00000000000E+00  0.00000000000E+00  0.16481756155E+04  0.16481756155E+04  0.00000000000E+00 0. -1.
         -2   -1    0    0    0  501 -0.00000000000E+00 -0.00000000000E+00 -0.96223269476E+03  0.96223269476E+03  0.00000000000E+00 0.  1.
        -24    2    1    2    0    0  0.10326359993E+04  0.34875955879E+03  0.18846299382E+03  0.11090365632E+04  0.80457823565E+02 0.  0.
        254    2    1    2    0    0 -0.10326359993E+04 -0.34875955879E+03  0.49747992696E+03  0.15013717471E+04  0.90479860101E+03 0.  0.
         23    2    4    4    0    0 -0.54896262831E+03 -0.14586464854E+03 -0.21384967231E+03  0.61385800493E+03  0.91942943700E+02 0.  0.
         23    2    4    4    0    0 -0.48367337104E+03 -0.20289491024E+03  0.71132959927E+03  0.88751374221E+03  0.81145359479E+02 0.  0.
          1    1    3    3  502    0  0.22660269295E+02  0.10273373385E+02 -0.74732581053E+01  0.25978444756E+02  0.00000000000E+00 0. -1.
         -2    1    3    3    0  502  0.10099757301E+04  0.33848618540E+03  0.19593625193E+03  0.10830581184E+04  0.00000000000E+00 0.  1.
         13    1    5    5    0    0 -0.44215217124E+03 -0.15388692458E+03 -0.16899179604E+03  0.49773281509E+03  0.00000000000E+00 0.  1.
        -13    1    5    5    0    0 -0.10681045707E+03  0.80222760367E+01 -0.44857876272E+02  0.11612518984E+03  0.00000000000E+00 0. -1.
          3    1    6    6  503    0 -0.19066967333E+03 -0.68069685527E+02  0.33954746470E+03  0.39532377515E+03  0.00000000000E+00 0. -1.
         -3    1    6    6    0  503 -0.29300369771E+03 -0.13482522472E+03  0.37178213456E+03  0.49218996706E+03  0.00000000000E+00 0.  1.
<mgrwt>
<rscale>  0 0.25186730E+04</rscale>
<asrwt>0</asrwt>
<pdfrwt beam="1">  1        1 0.25356548E+00 0.25186730E+04</pdfrwt>
<pdfrwt beam="2">  1       -2 0.14803580E+00 0.25186730E+04</pdfrwt>
<totfact> 0.12499992E+00</totfact>
</mgrwt>
</event>
<event>
12    5  0.5029243E-008  0.1791510E+04  0.7818608E-02  0.8710828E-01
         -2   -1    0    0    0  501 -0.00000000000E+00  0.00000000000E+00  0.55705857517E+03  0.55705857517E+03  0.00000000000E+00 0.  1.
          1   -1    0    0  501    0  0.00000000000E+00 -0.00000000000E+00 -0.14403814097E+04  0.14403814097E+04  0.00000000000E+00 0. -1.
        -24    2    1    2    0    0 -0.16564073466E+01  0.65321529805E+03 -0.49628402811E+03  0.82409442854E+03  0.78363392620E+02 0.  0.
        254    2    1    2    0    0  0.16564073466E+01 -0.65321529805E+03 -0.38703880642E+03  0.11733455563E+04  0.89456569774E+03 0.  0.
         23    2    4    4    0    0  0.86349900771E+02  0.14375896323E+03 -0.30887151953E+03  0.36316916133E+03  0.91472833622E+02 0.  0.
         23    2    4    4    0    0 -0.84693493424E+02 -0.79697426128E+03 -0.78167286896E+02  0.81017639499E+03  0.89076962734E+02 0.  0.
          1    1    3    3  502    0 -0.11545183857E+02  0.51271695793E+03 -0.42593072303E+03  0.66665504651E+03  0.00000000000E+00 0. -1.
         -2    1    3    3    0  502  0.98887765108E+01  0.14049834012E+03 -0.70353305074E+02  0.15743938203E+03  0.00000000000E+00 0.  1.
         13    1    5    5    0    0  0.31409335115E+02  0.52716906536E+01 -0.11100274999E+03  0.11548137321E+03  0.00000000000E+00 0.  1.
        -13    1    5    5    0    0  0.54940565656E+02  0.13848727258E+03 -0.19786876954E+03  0.24768778811E+03  0.00000000000E+00 0. -1.
          2    1    6    6  503    0 -0.21988022252E+02 -0.57846498341E+03 -0.63936004869E+02  0.58240280122E+03  0.00000000000E+00 0. -1.
         -2    1    6    6    0  503 -0.62705471172E+02 -0.21850927788E+03 -0.14231282026E+02  0.22777359378E+03  0.00000000000E+00 0.  1.
<mgrwt>
<rscale>  0 0.17915098E+04</rscale>
<asrwt>0</asrwt>
<pdfrwt beam="1">  1        1 0.22159714E+00 0.17915098E+04</pdfrwt>
<pdfrwt beam="2">  1       -2 0.85701320E-01 0.17915098E+04</pdfrwt>
<totfact> 0.70530193E+00</totfact>
</mgrwt>
</event>
<event>
12    5  0.5029243E-008  0.1569332E+04  0.7818608E-02  0.8839613E-01
         -2   -1    0    0    0  501 -0.00000000000E+00  0.00000000000E+00  0.55291067246E+03  0.55291067246E+03  0.00000000000E+00 0.  1.
          1   -1    0    0  501    0  0.00000000000E+00 -0.00000000000E+00 -0.11135622701E+04  0.11135622701E+04  0.00000000000E+00 0. -1.
        -24    2    1    2    0    0 -0.13808243203E+03  0.46887951538E+03  0.22491639157E+02  0.49574501881E+03  0.79639763066E+02 0.  0.
        254    2    1    2    0    0  0.13808243203E+03 -0.46887951538E+03 -0.58314323676E+03  0.11707279237E+04  0.88973764605E+03 0.  0.
         23    2    4    4    0    0  0.48263855099E+03 -0.26791956452E+03 -0.15959447153E+03  0.58166131058E+03  0.90214305522E+02 0.  0.
         23    2    4    4    0    0 -0.34455611896E+03 -0.20095995086E+03 -0.42354876524E+03  0.58906661314E+03  0.92206817609E+02 0.  0.
          1    1    3    3  502    0 -0.30365172144E+02  0.28015379568E+02  0.44513769187E+01  0.41553819657E+02  0.00000000000E+00 0. -1.
         -2    1    3    3    0  502 -0.10771725989E+03  0.44086413581E+03  0.18040262238E+02  0.45419119915E+03  0.00000000000E+00 0.  1.
         13    1    5    5    0    0  0.41211198830E+03 -0.19174172641E+03 -0.11625806658E+03  0.46916640821E+03  0.00000000000E+00 0. -1.
        -13    1    5    5    0    0  0.70526562697E+02 -0.76177838115E+02 -0.43336404948E+02  0.11249490237E+03  0.00000000000E+00 0.  1.
          4    1    6    6  503    0 -0.31676241947E+03 -0.20984741739E+03 -0.39843254292E+03  0.55056594540E+03  0.00000000000E+00 0. -1.
         -4    1    6    6    0  503 -0.27793699490E+02  0.88874665313E+01 -0.25116222315E+02  0.38500667735E+02  0.00000000000E+00 0.  1.
<mgrwt>
<rscale>  0 0.15693317E+04</rscale>
<asrwt>0</asrwt>
<pdfrwt beam="1">  1        1 0.17131727E+00 0.15693317E+04</pdfrwt>
<pdfrwt beam="2">  1       -2 0.85063181E-01 0.15693317E+04</pdfrwt>
<totfact> 0.12566163E+01</totfact>
</mgrwt>
</event>
<event>
12    5  0.5029243E-008  0.3385992E+04  0.7818608E-02  0.8141353E-01
         -2   -1    0    0    0  501 -0.00000000000E+00  0.00000000000E+00  0.29873047310E+04  0.29873047310E+04  0.00000000000E+00 0.  1.
          1   -1    0    0  501    0  0.00000000000E+00 -0.00000000000E+00 -0.95947199475E+03  0.95947199475E+03  0.00000000000E+00 0. -1.
        -24    2    1    2    0    0 -0.14889278187E+04  0.32961128595E+03  0.13853838872E+04  0.20618818713E+04  0.80738387341E+02 0.  0.
        254    2    1    2    0    0  0.14889278187E+04 -0.32961128595E+03  0.64244884904E+03  0.18848948545E+04  0.90251783346E+03 0.  0.
         23    2    4    4    0    0  0.13827698382E+04 -0.36857234317E+03  0.82251762649E+03  0.16530903078E+04  0.90963302020E+02 0.  0.
         23    2    4    4    0    0  0.10615798044E+03  0.38961057216E+02 -0.18006877744E+03  0.23180454663E+03  0.92309817674E+02 0.  0.
          1    1    3    3  502    0 -0.79715927528E+02  0.10288414487E+02  0.96902209382E+02  0.12589884335E+03  0.00000000000E+00 0. -1.
         -2    1    3    3    0  502 -0.14092118911E+04  0.31932287146E+03  0.12884816778E+04  0.19359830279E+04  0.00000000000E+00 0.  1.
         13    1    5    5    0    0 -0.11745712765E+01  0.93825801799E+00  0.68742941122E+00  0.16530290340E+01  0.00000000000E+00 0.  1.
        -13    1    5    5    0    0  0.13839444095E+04 -0.36951060118E+03  0.82183019708E+03  0.16514372788E+04  0.00000000000E+00 0. -1.
          4    1    6    6  503    0  0.14092985579E+02 -0.12049244977E+02  0.47289422239E+01  0.19135293089E+02  0.00000000000E+00 0.  1.
         -4    1    6    6    0  503  0.92064994862E+02  0.51010302193E+02 -0.18479771967E+03  0.21266925354E+03  0.00000000000E+00 0. -1.
<mgrwt>
<rscale>  0 0.33859919E+04</rscale>
<asrwt>0</asrwt>
<pdfrwt beam="1">  1        1 0.14761108E+00 0.33859919E+04</pdfrwt>
<pdfrwt beam="2">  1       -2 0.45958534E+00 0.33859919E+04</pdfrwt>
<totfact> 0.35277346E-02</totfact>
</mgrwt>
</event>
<event>
12    5  0.5029243E-008  0.2269403E+04  0.7818608E-02  0.8490084E-01
          1   -1    0    0  501    0  0.00000000000E+00  0.00000000000E+00  0.18140810493E+04  0.18140810493E+04  0.00000000000E+00 0. -1.
         -2   -1    0    0    0  501 -0.00000000000E+00 -0.00000000000E+00 -0.70975216305E+03  0.70975216305E+03  0.00000000000E+00 0.  1.
        -24    2    1    2    0    0  0.23848970788E+02 -0.31226915025E+03 -0.53909701177E+03  0.62820529310E+03  0.77042238921E+02 0.  0.
        254    2    1    2    0    0 -0.23848970788E+02  0.31226915025E+03  0.16434258980E+04  0.18956279192E+04  0.89133368069E+03 0.  0.
         23    2    4    4    0    0  0.35085941923E+03  0.18046585098E+03  0.13043807777E+04  0.13659167421E+04  0.93000417456E+02 0.  0.
         23    2    4    4    0    0 -0.37470839002E+03  0.13180329926E+03  0.33904512026E+03  0.52971117710E+03  0.88678353214E+02 0.  0.
          3    1    3    3  502    0 -0.12683570289E+02 -0.47986841083E+02 -0.46577375503E+02  0.68066598131E+02  0.00000000000E+00 0. -1.
         -4    1    3    3    0  502  0.36532541077E+02 -0.26428230916E+03 -0.49251963627E+03  0.56013869497E+03  0.00000000000E+00 0.  1.
         13    1    5    5    0    0  0.13619140640E+03  0.11537456055E+03  0.65494244025E+03  0.67882913052E+03  0.00000000000E+00 0.  1.
        -13    1    5    5    0    0  0.21466801283E+03  0.65091290437E+02  0.64943833747E+03  0.68708761159E+03  0.00000000000E+00 0. -1.
          4    1    6    6  503    0 -0.19491207707E+02  0.26555003440E+02  0.49718385982E+02  0.59640533954E+02  0.00000000000E+00 0. -1.
         -4    1    6    6    0  503 -0.35521718231E+03  0.10524829582E+03  0.28932673428E+03  0.47007064315E+03  0.00000000000E+00 0.  1.
<mgrwt>
<rscale>  0 0.22694034E+04</rscale>
<asrwt>0</asrwt>
<pdfrwt beam="1">  1        1 0.27908939E+00 0.22694034E+04</pdfrwt>
<pdfrwt beam="2">  1       -2 0.10919264E+00 0.22694034E+04</pdfrwt>
<totfact> 0.21217270E+00</totfact>
</mgrwt>
</event>
<event>
12    5  0.5029243E-008  0.2148708E+04  0.7818608E-02  0.8540085E-01
          1   -1    0    0  501    0  0.00000000000E+00  0.00000000000E+00  0.22899599531E+04  0.22899599531E+04  0.00000000000E+00 0. -1.
         -4   -1    0    0    0  501 -0.00000000000E+00 -0.00000000000E+00 -0.50404229026E+03  0.50404229026E+03  0.00000000000E+00 0.  1.
        -24    2    1    2    0    0 -0.57427055692E+03 -0.62135978623E+03  0.43896558744E+03  0.95649502593E+03  0.79481388914E+02 0.  0.
        254    2    1    2    0    0  0.57427055692E+03  0.62135978623E+03  0.13469520754E+04  0.18375072174E+04  0.91993381509E+03 0.  0.
         23    2    4    4    0    0  0.17093364947E+03 -0.11196164973E+03  0.80730026824E+03  0.83769551325E+03  0.90809285258E+02 0.  0.
         23    2    4    4    0    0  0.40333690745E+03  0.73332143596E+03  0.53965180714E+03  0.99981170415E+03  0.89209761059E+02 0.  0.
          3    1    3    3  502    0 -0.21387720214E+02 -0.39362971365E+02  0.40068929966E+02  0.60103221538E+02  0.00000000000E+00 0. -1.
         -4    1    3    3    0  502 -0.55288283670E+03 -0.58199681486E+03  0.39889665747E+03  0.89639180439E+03  0.00000000000E+00 0.  1.
         13    1    5    5    0    0  0.14620354962E+03 -0.46200310437E+02  0.55876667601E+03  0.57942225089E+03  0.00000000000E+00 0.  1.
        -13    1    5    5    0    0  0.24730099848E+02 -0.65761339292E+02  0.24853359222E+03  0.25827326235E+03  0.00000000000E+00 0. -1.
          3    1    6    6  503    0  0.17063994070E+02  0.28452636740E+02  0.45425145987E+02  0.56251011715E+02  0.00000000000E+00 0. -1.
         -3    1    6    6    0  503  0.38627291338E+03  0.70486879922E+03  0.49422666115E+03  0.94356069244E+03  0.00000000000E+00 0.  1.
<mgrwt>
<rscale>  0 0.21487081E+04</rscale>
<asrwt>0</asrwt>
<pdfrwt beam="1">  1        1 0.35230152E+00 0.21487081E+04</pdfrwt>
<pdfrwt beam="2">  1       -4 0.77544969E-01 0.21487081E+04</pdfrwt>
<totfact> 0.12733650E+00</totfact>
</mgrwt>
</event>
<event>
12    5  0.5029243E-008  0.2883661E+04  0.7818608E-02  0.8277756E-01
          1   -1    0    0  501    0  0.00000000000E+00  0.00000000000E+00  0.12916951138E+04  0.12916951138E+04  0.00000000000E+00 0. -1.
         -2   -1    0    0    0  501 -0.00000000000E+00 -0.00000000000E+00 -0.16094160980E+04  0.16094160980E+04  0.00000000000E+00 0.  1.
        -24    2    1    2    0    0  0.10977630895E+04 -0.68161642117E+03 -0.30062650090E+03  0.13290916570E+04  0.80147323185E+02 0.  0.
        254    2    1    2    0    0 -0.10977630895E+04  0.68161642117E+03 -0.17094483298E+02  0.15720195548E+04  0.89513603051E+03 0.  0.
         23    2    4    4    0    0 -0.50506816661E+03  0.78612683628E+03 -0.14355787719E+03  0.94981954839E+03  0.91973119834E+02 0.  0.
         23    2    4    4    0    0 -0.59269492285E+03 -0.10451041511E+03  0.12646339389E+03  0.62220000640E+03  0.94499521348E+02 0.  0.
          3    1    3    3  502    0  0.30016779391E+03 -0.14545441503E+03 -0.73050426176E+02  0.34145871803E+03  0.00000000000E+00 0. -1.
         -4    1    3    3    0  502  0.79759529555E+03 -0.53616200614E+03 -0.22757607473E+03  0.98763293895E+03  0.00000000000E+00 0.  1.
         13    1    5    5    0    0 -0.85189217058E+02  0.94345232974E+02  0.43030085318E+01  0.12718782005E+03  0.00000000000E+00 0. -1.
        -13    1    5    5    0    0 -0.41987894955E+03  0.69178160330E+03 -0.14786088572E+03  0.82263172834E+03  0.00000000000E+00 0.  1.
          3    1    6    6  503    0 -0.11531177221E+03 -0.11702274319E+02 -0.12074706980E+02  0.11653131160E+03  0.00000000000E+00 0. -1.
         -3    1    6    6    0  503 -0.47738315064E+03 -0.92808140788E+02  0.13853810087E+03  0.50566869481E+03  0.00000000000E+00 0.  1.
<mgrwt>
<rscale>  0 0.28836608E+04</rscale>
<asrwt>0</asrwt>
<pdfrwt beam="1">  1        1 0.19872233E+00 0.28836608E+04</pdfrwt>
<pdfrwt beam="2">  1       -2 0.24760248E+00 0.28836608E+04</pdfrwt>
<totfact> 0.46004851E-01</totfact>
</mgrwt>
</event>
<event>
12    5  0.5029243E-008  0.1602445E+04  0.7818608E-02  0.8819048E-01
         -2   -1    0    0    0  501 -0.00000000000E+00  0.00000000000E+00  0.40688597369E+03  0.40688597369E+03  0.00000000000E+00 0.  1.
          1   -1    0    0  501    0  0.00000000000E+00 -0.00000000000E+00 -0.15777326508E+04  0.15777326508E+04  0.00000000000E+00 0. -1.
        -24    2    1    2    0    0  0.53573900971E+02 -0.20730878524E+02 -0.10539506424E+04  0.10585397308E+04  0.79965448504E+02 0.  0.
        254    2    1    2    0    0 -0.53573900971E+02  0.20730878524E+02 -0.11689603477E+03  0.92607889371E+03  0.91687376571E+03 0.  0.
         23    2    4    4    0    0 -0.37370586139E+03 -0.39268563412E+01  0.22670031274E+03  0.44697472111E+03  0.93390997810E+02 0.  0.
         23    2    4    4    0    0  0.32013196042E+03  0.24657734865E+02 -0.34359634751E+03  0.47910417260E+03  0.91596300184E+02 0.  0.
          1    1    3    3  502    0  0.67060791087E+02 -0.32239084196E+02 -0.96343680160E+03  0.96630584130E+03  0.00000000000E+00 0. -1.
         -2    1    3    3    0  502 -0.13486890116E+02  0.11508205672E+02 -0.90513840764E+02  0.92233889502E+02  0.00000000000E+00 0.  1.
         13    1    5    5    0    0 -0.93421484354E+02 -0.31689081878E+02  0.28879839454E+02  0.10279015895E+03  0.00000000000E+00 0. -1.
        -13    1    5    5    0    0 -0.28028437704E+03  0.27762225537E+02  0.19782047329E+03  0.34418456216E+03  0.00000000000E+00 0.  1.
          1    1    6    6  503    0  0.30131989943E+03  0.43667258107E+02 -0.29674283651E+03  0.42515505671E+03  0.00000000000E+00 0.  1.
         -1    1    6    6    0  503  0.18812060994E+02 -0.19009523242E+02 -0.46853511001E+02  0.53949115895E+02  0.00000000000E+00 0. -1.
<mgrwt>
<rscale>  0 0.16024447E+04</rscale>
<asrwt>0</asrwt>
<pdfrwt beam="1">  1        1 0.24272810E+00 0.16024447E+04</pdfrwt>
<pdfrwt beam="2">  1       -2 0.62597841E-01 0.16024447E+04</pdfrwt>
<totfact> 0.11517663E+01</totfact>
</mgrwt>
</event>
<event>
12    5  0.5029243E-008  0.2729391E+04  0.7818608E-02  0.8325531E-01
         -2   -1    0    0    0  501 -0.00000000000E+00  0.00000000000E+00  0.89569919513E+03  0.89569919513E+03  0.00000000000E+00 0.  1.
          1   -1    0    0  501    0  0.00000000000E+00 -0.00000000000E+00 -0.20792629876E+04  0.20792629876E+04  0.00000000000E+00 0. -1.
        -24    2    1    2    0    0  0.80698682285E+03 -0.78375926734E+03 -0.26486351460E+02  0.11284583199E+04  0.84913671568E+02 0.  0.
        254    2    1    2    0    0 -0.80698682285E+03  0.78375926734E+03 -0.11570774410E+04  0.18465038628E+04  0.89735276753E+03 0.  0.
         23    2    4    4    0    0  0.10824026803E+03  0.37126389996E+03 -0.51268530152E+03  0.64979737561E+03  0.99184534671E+02 0.  0.
         23    2    4    4    0    0 -0.91522709088E+03  0.41249536738E+03 -0.64439213948E+03  0.11967064872E+04  0.95247735033E+02 0.  0.
          3    1    3    3  502    0  0.35778440729E+02 -0.38287486884E+02 -0.19244827672E+02  0.55824652842E+02  0.00000000000E+00 0. -1.
         -4    1    3    3    0  502  0.77120838212E+03 -0.74547178046E+03 -0.72415237876E+01  0.10726336671E+04  0.00000000000E+00 0.  1.
         13    1    5    5    0    0  0.50880198773E+02  0.30798141383E+03 -0.37687861077E+03  0.48936574578E+03  0.00000000000E+00 0.  1.
        -13    1    5    5    0    0  0.57360069252E+02  0.63282486132E+02 -0.13580669075E+03  0.16043162983E+03  0.00000000000E+00 0. -1.
          1    1    6    6  503    0 -0.26602622332E+03  0.16818119415E+03 -0.19791890908E+03  0.37178859602E+03  0.00000000000E+00 0. -1.
         -1    1    6    6    0  503 -0.64920086755E+03  0.24431417323E+03 -0.44647323040E+03  0.82491789115E+03  0.00000000000E+00 0.  1.
<mgrwt>
<rscale>  0 0.27293913E+04</rscale>
<asrwt>0</asrwt>
<pdfrwt beam="1">  1        1 0.31988661E+00 0.27293913E+04</pdfrwt>
<pdfrwt beam="2">  1       -2 0.13779988E+00 0.27293913E+04</pdfrwt>
<totfact> 0.75424590E-01</totfact>
</mgrwt>
</event>
<event>
12    5  0.5029243E-008  0.1401491E+04  0.7818608E-02  0.8952740E-01
          1   -1    0    0  501    0  0.00000000000E+00  0.00000000000E+00  0.40773669602E+04  0.40773669602E+04  0.00000000000E+00 0. -1.
         -2   -1    0    0    0  501 -0.00000000000E+00 -0.00000000000E+00 -0.12043178076E+03  0.12043178076E+03  0.00000000000E+00 0.  1.
        -24    2    1    2    0    0 -0.64991416612E+02  0.34378347400E+03  0.16512829764E+04  0.16896597203E+04  0.76180975737E+02 0.  0.
        254    2    1    2    0    0  0.64991416612E+02 -0.34378347400E+03  0.23056522031E+04  0.25081390207E+04  0.92321086664E+03 0.  0.
         23    2    4    4    0    0  0.24254036859E+02  0.20667449716E+03  0.15576218991E+04  0.15740420503E+04  0.90109873454E+02 0.  0.
         23    2    4    4    0    0  0.40737379753E+02 -0.55045797117E+03  0.74803030395E+03  0.93409697041E+03  0.91237614931E+02 0.  0.
          3    1    3    3  502    0 -0.35773368701E+02  0.30287421247E+03  0.14826885360E+04  0.15137297702E+04  0.00000000000E+00 0. -1.
         -4    1    3    3    0  502 -0.29218047911E+02  0.40909261534E+02  0.16859444042E+03  0.17592995010E+03  0.00000000000E+00 0.  1.
         13    1    5    5    0    0  0.52547926535E+02  0.74637029682E+02  0.58018247798E+03  0.58731906025E+03  0.00000000000E+00 0.  1.
        -13    1    5    5    0    0 -0.28293889676E+02  0.13203746748E+03  0.97743942116E+03  0.98672299003E+03  0.00000000000E+00 0. -1.
          3    1    6    6  503    0  0.47115180889E+02 -0.12824967850E+03  0.16518971448E+03  0.21437225118E+03  0.00000000000E+00 0. -1.
         -3    1    6    6    0  503 -0.63778011361E+01 -0.42220829267E+03  0.58284058946E+03  0.71972471923E+03  0.00000000000E+00 0.  1.
<mgrwt>
<rscale>  0 0.14014914E+04</rscale>
<asrwt>0</asrwt>
<pdfrwt beam="1">  1        1 0.62728712E+00 0.14014914E+04</pdfrwt>
<pdfrwt beam="2">  1       -2 0.18527969E-01 0.14014914E+04</pdfrwt>
<totfact> 0.17564792E+00</totfact>
</mgrwt>
</event>
<event>
12    5  0.5029243E-008  0.1926785E+04  0.7818608E-02  0.8641637E-01
         -2   -1    0    0    0  501 -0.00000000000E+00  0.00000000000E+00  0.50260626944E+03  0.50260626944E+03  0.00000000000E+00 0.  1.
          1   -1    0    0  501    0  0.00000000000E+00 -0.00000000000E+00 -0.18466250092E+04  0.18466250092E+04  0.00000000000E+00 0. -1.
        -24    2    1    2    0    0 -0.15944754500E+03  0.62377173266E+03 -0.44766510393E+02  0.64975105729E+03  0.75217696872E+02 0.  0.
        254    2    1    2    0    0  0.15944754500E+03 -0.62377173266E+03 -0.12992522294E+04  0.16994802214E+04  0.88637575170E+03 0.  0.
         23    2    4    4    0    0  0.40588834787E+03 -0.41637226727E+00 -0.43604706682E+03  0.60277513168E+03  0.91952654069E+02 0.  0.
         23    2    4    4    0    0 -0.24644080287E+03 -0.62335536039E+03 -0.86320516254E+03  0.10967050897E+04  0.91290341351E+02 0.  0.
          3    1    3    3  502    0 -0.23437442930E+02  0.37754547740E+02  0.10383544613E+02  0.45634828858E+02  0.00000000000E+00 0. -1.
         -2    1    3    3    0  502 -0.13601010207E+03  0.58601718492E+03 -0.55150055006E+02  0.60411622843E+03  0.00000000000E+00 0.  1.
         13    1    5    5    0    0  0.10838769264E+03  0.39225951579E+02 -0.13784528220E+03  0.17968831074E+03  0.00000000000E+00 0. -1.
        -13    1    5    5    0    0  0.29750065523E+03 -0.39642323846E+02 -0.29820178462E+03  0.42308682094E+03  0.00000000000E+00 0.  1.
          1    1    6    6  503    0 -0.10863917467E+03 -0.37346244201E+03 -0.45402567363E+03  0.59784277045E+03  0.00000000000E+00 0. -1.
         -1    1    6    6    0  503 -0.13780162820E+03 -0.24989291838E+03 -0.40917948891E+03  0.49886231922E+03  0.00000000000E+00 0.  1.
<mgrwt>
<rscale>  0 0.19267852E+04</rscale>
<asrwt>0</asrwt>
<pdfrwt beam="1">  1        1 0.28409616E+00 0.19267852E+04</pdfrwt>
<pdfrwt beam="2">  1       -2 0.77324041E-01 0.19267852E+04</pdfrwt>
<totfact> 0.46310514E+00</totfact>
</mgrwt>
</event>
<event>
12    5  0.5029243E-008  0.1556581E+04  0.7818608E-02  0.8847675E-01
         -2   -1    0    0    0  501 -0.00000000000E+00  0.00000000000E+00  0.16903989496E+04  0.16903989496E+04  0.00000000000E+00 0.  1.
          1   -1    0    0  501    0  0.00000000000E+00 -0.00000000000E+00 -0.35833923787E+03  0.35833923787E+03  0.00000000000E+00 0. -1.
        -24    2    1    2    0    0 -0.14951948563E+03 -0.32292471449E+03  0.92222968354E+03  0.99396011253E+03  0.10398398089E+03 0.  0.
        254    2    1    2    0    0  0.14951948563E+03  0.32292471449E+03  0.40983002823E+03  0.10547780750E+04  0.90441123809E+03 0.  0.
         23    2    4    4    0    0  0.16524734508E+03 -0.19139426823E+03  0.45723681503E+03  0.52976410829E+03  0.87441720287E+02 0.  0.
         23    2    4    4    0    0 -0.15727859452E+02  0.51431898272E+03 -0.47406786802E+02  0.52501396668E+03  0.92848695348E+02 0.  0.
          3    1    3    3  502    0 -0.21289453238E+01 -0.14399680162E+01 -0.26966055151E+01  0.37252647401E+01  0.00000000000E+00 0. -1.
         -4    1    3    3    0  502 -0.14739054031E+03 -0.32148474648E+03  0.92492628905E+03  0.99023484779E+03  0.00000000000E+00 0.  1.
         13    1    5    5    0    0  0.56615753522E+02 -0.93219751888E+02  0.27601874726E+03  0.29678546886E+03  0.00000000000E+00 0.  1.
        -13    1    5    5    0    0  0.10863159156E+03 -0.98174516337E+02  0.18121806777E+03  0.23297863943E+03  0.00000000000E+00 0. -1.
          1    1    6    6  503    0  0.96600509467E+01  0.15875819903E+02  0.12419431197E+02  0.22351745192E+02  0.00000000000E+00 0. -1.
         -1    1    6    6    0  503 -0.25387910399E+02  0.49844316282E+03 -0.59826217999E+02  0.50266222149E+03  0.00000000000E+00 0.  1.
<mgrwt>
<rscale>  0 0.15565812E+04</rscale>
<asrwt>0</asrwt>
<pdfrwt beam="1">  1        1 0.55129115E-01 0.15565812E+04</pdfrwt>
<pdfrwt beam="2">  1       -2 0.26006137E+00 0.15565812E+04</pdfrwt>
<totfact> 0.32597347E+00</totfact>
</mgrwt>
</event>
<event>
12    5  0.5029243E-008  0.1843696E+04  0.7818608E-02  0.8683401E-01
          1   -1    0    0  501    0  0.00000000000E+00  0.00000000000E+00  0.23136013943E+04  0.23136013943E+04  0.00000000000E+00 0. -1.
         -2   -1    0    0    0  501 -0.00000000000E+00 -0.00000000000E+00 -0.36730780119E+03  0.36730780119E+03  0.00000000000E+00 0.  1.
        -24    2    1    2    0    0 -0.60559731943E+03  0.31001640026E+03  0.51069669699E+03  0.85453823066E+03  0.81032028315E+02 0.  0.
        254    2    1    2    0    0  0.60559731943E+03 -0.31001640026E+03  0.14355968961E+04  0.18263709648E+04  0.90101840785E+03 0.  0.
         23    2    4    4    0    0  0.66208717278E+03 -0.60833404387E+02  0.46170377447E+03  0.81480251555E+03  0.93126991433E+02 0.  0.
         23    2    4    4    0    0 -0.56489853356E+02 -0.24918299588E+03  0.97389312163E+03  0.10115684493E+04  0.97568674344E+02 0.  0.
          3    1    3    3  502    0 -0.52002851821E+02  0.19783283856E+02  0.17482702028E+02  0.58320834938E+02  0.00000000000E+00 0. -1.
         -4    1    3    3    0  502 -0.55359446761E+03  0.29023311641E+03  0.49321399496E+03  0.79621739572E+03  0.00000000000E+00 0.  1.
         13    1    5    5    0    0  0.37060266921E+03 -0.75024128561E+02  0.23423108399E+03  0.44479114087E+03  0.00000000000E+00 0.  1.
        -13    1    5    5    0    0  0.29148450358E+03  0.14190724174E+02  0.22747269049E+03  0.37001137468E+03  0.00000000000E+00 0. -1.
          2    1    6    6  503    0 -0.31959097474E+02 -0.13169467588E+03  0.33273913904E+03  0.35927733886E+03  0.00000000000E+00 0. -1.
         -2    1    6    6    0  503 -0.24530755882E+02 -0.11748831999E+03  0.64115398259E+03  0.65229111040E+03  0.00000000000E+00 0.  1.
<mgrwt>
<rscale>  0 0.18436961E+04</rscale>
<asrwt>0</asrwt>
<pdfrwt beam="1">  1        1 0.35593867E+00 0.18436961E+04</pdfrwt>
<pdfrwt beam="2">  1       -2 0.56508894E-01 0.18436961E+04</pdfrwt>
<totfact> 0.44212816E+00</totfact>
</mgrwt>
</event>
<event>
12    5  0.5029243E-008  0.1887138E+04  0.7818608E-02  0.8661285E-01
         -2   -1    0    0    0  501 -0.00000000000E+00  0.00000000000E+00  0.36347119210E+03  0.36347119210E+03  0.00000000000E+00 0.  1.
          1   -1    0    0  501    0  0.00000000000E+00 -0.00000000000E+00 -0.24494999790E+04  0.24494999790E+04  0.00000000000E+00 0. -1.
        -24    2    1    2    0    0 -0.11179386075E+03  0.86178147274E+01  0.25476538915E+03  0.28981668563E+03  0.80722820383E+02 0.  0.
        254    2    1    2    0    0  0.11179386075E+03 -0.86178147274E+01 -0.23407941761E+04  0.25231544855E+04  0.93510376367E+03 0.  0.
         23    2    4    4    0    0 -0.26617220135E+03 -0.56357496222E+02 -0.20704872519E+03  0.35368101758E+03  0.90538828337E+02 0.  0.
         23    2    4    4    0    0  0.37796606210E+03  0.47739681495E+02 -0.21337454509E+04  0.21694734679E+04  0.92779617867E+02 0.  0.
          1    1    3    3  502    0 -0.41674114232E+02  0.33203227966E+02  0.54539547896E+02  0.76247940491E+02  0.00000000000E+00 0. -1.
         -2    1    3    3    0  502 -0.70119746518E+02 -0.24585413239E+02  0.20022584125E+03  0.21356874514E+03  0.00000000000E+00 0.  1.
         13    1    5    5    0    0 -0.10875938526E+03 -0.47418691454E+02 -0.13676829389E+03  0.18105994144E+03  0.00000000000E+00 0. -1.
        -13    1    5    5    0    0 -0.15741281610E+03 -0.89388047685E+01 -0.70280431297E+02  0.17262107613E+03  0.00000000000E+00 0.  1.
          1    1    6    6  503    0  0.29944727161E+03  0.57167379233E+02 -0.14883286313E+04  0.15192297037E+04  0.00000000000E+00 0. -1.
         -1    1    6    6    0  503  0.78518790490E+02 -0.94276977378E+01 -0.64541681955E+03  0.65024376422E+03  0.00000000000E+00 0.  1.
<mgrwt>
<rscale>  0 0.18871382E+04</rscale>
<asrwt>0</asrwt>
<pdfrwt beam="1">  1        1 0.37684616E+00 0.18871382E+04</pdfrwt>
<pdfrwt beam="2">  1       -2 0.55918644E-01 0.18871382E+04</pdfrwt>
<totfact> 0.36308048E+00</totfact>
</mgrwt>
</event>
<event>
12    5  0.5029243E-008  0.2015646E+04  0.7818608E-02  0.8599340E-01
         -2   -1    0    0    0  501 -0.00000000000E+00  0.00000000000E+00  0.11510532366E+04  0.11510532366E+04  0.00000000000E+00 0.  1.
          1   -1    0    0  501    0  0.00000000000E+00 -0.00000000000E+00 -0.88241577162E+03  0.88241577162E+03  0.00000000000E+00 0. -1.
        -24    2    1    2    0    0  0.59274080644E+03 -0.21361446987E+03 -0.40370643382E+03  0.75357867513E+03  0.89045659906E+02 0.  0.
        254    2    1    2    0    0 -0.59274080644E+03  0.21361446987E+03  0.67234389879E+03  0.12798903331E+04  0.88831308732E+03 0.  0.
         23    2    4    4    0    0 -0.38900218372E+03 -0.10065454100E+03 -0.93204573887E+02  0.42242003027E+03  0.91090909610E+02 0.  0.
         23    2    4    4    0    0 -0.20373862271E+03  0.31426901087E+03  0.76554847268E+03  0.85747030281E+03  0.94426789627E+02 0.  0.
          3    1    3    3  502    0  0.45241721024E+03 -0.15184199013E+03 -0.34729010514E+03  0.59020991115E+03  0.00000000000E+00 0. -1.
         -4    1    3    3    0  502  0.14032359619E+03 -0.61772479743E+02 -0.56416328675E+02  0.16336876398E+03  0.00000000000E+00 0.  1.
         13    1    5    5    0    0 -0.14810455824E+03 -0.82179648889E+02 -0.53129413650E+02  0.17751391342E+03  0.00000000000E+00 0.  1.
        -13    1    5    5    0    0 -0.24089762548E+03 -0.18474892109E+02 -0.40075160237E+02  0.24490611685E+03  0.00000000000E+00 0. -1.
          3    1    6    6  503    0 -0.58617953111E+02  0.54975442759E+02  0.24790106019E+03  0.26060180233E+03  0.00000000000E+00 0. -1.
         -3    1    6    6    0  503 -0.14512066960E+03  0.25929356811E+03  0.51764741249E+03  0.59686850048E+03  0.00000000000E+00 0.  1.
<mgrwt>
<rscale>  0 0.20156463E+04</rscale>
<asrwt>0</asrwt>
<pdfrwt beam="1">  1        1 0.13575627E+00 0.20156463E+04</pdfrwt>
<pdfrwt beam="2">  1       -2 0.17708511E+00 0.20156463E+04</pdfrwt>
<totfact> 0.29011458E+00</totfact>
</mgrwt>
</event>
<event>
12    5  0.5029243E-008  0.1713095E+04  0.7818608E-02  0.8753931E-01
          1   -1    0    0  501    0  0.00000000000E+00  0.00000000000E+00  0.19279427250E+04  0.19279427250E+04  0.00000000000E+00 0. -1.
         -2   -1    0    0    0  501 -0.00000000000E+00 -0.00000000000E+00 -0.38054761479E+03  0.38054761479E+03  0.00000000000E+00 0.  1.
        -24    2    1    2    0    0 -0.10854049307E+03  0.26728830391E+03  0.13140880700E+04  0.13476604476E+04  0.78339965236E+02 0.  0.
        254    2    1    2    0    0  0.10854049307E+03 -0.26728830391E+03  0.23330704020E+03  0.96082989221E+03  0.88630572080E+03 0.  0.
         23    2    4    4    0    0  0.43814868136E+03  0.23048687174E+02  0.24899741787E+03  0.51286116571E+03  0.92311170669E+02 0.  0.
         23    2    4    4    0    0 -0.32960818829E+03 -0.29033699109E+03 -0.15690377672E+02  0.44796872650E+03  0.86560185944E+02 0.  0.
          3    1    3    3  502    0 -0.33588502069E+02  0.18087404152E+03  0.85035276731E+03  0.87002496242E+03  0.00000000000E+00 0. -1.
         -2    1    3    3    0  502 -0.74951991000E+02  0.86414262388E+02  0.46373530269E+03  0.47763548514E+03  0.00000000000E+00 0.  1.
         13    1    5    5    0    0 -0.38959961765E+01  0.79214220725E+00 -0.15442399349E+01  0.42650852817E+01  0.00000000000E+00 0.  1.
        -13    1    5    5    0    0  0.44204467754E+03  0.22256544966E+02  0.25054165780E+03  0.50859608043E+03  0.00000000000E+00 0. -1.
          1    1    6    6  503    0 -0.26622538710E+03 -0.22759222560E+03 -0.47124070010E+02  0.35340466305E+03  0.00000000000E+00 0. -1.
         -1    1    6    6    0  503 -0.63382801190E+02 -0.62744765488E+02  0.31433692338E+02  0.94564063453E+02  0.00000000000E+00 0.  1.
<mgrwt>
<rscale>  0 0.17130955E+04</rscale>
<asrwt>0</asrwt>
<pdfrwt beam="1">  1        1 0.29660657E+00 0.17130955E+04</pdfrwt>
<pdfrwt beam="2">  1       -2 0.58545788E-01 0.17130955E+04</pdfrwt>
<totfact> 0.75934870E+00</totfact>
</mgrwt>
</event>
<event>
12    5  0.5029243E-008  0.1605402E+04  0.7818608E-02  0.8817236E-01
          3   -1    0    0  501    0  0.00000000000E+00  0.00000000000E+00  0.74076891971E+03  0.74076891971E+03  0.00000000000E+00 0. -1.
         -2   -1    0    0    0  501 -0.00000000000E+00 -0.00000000000E+00 -0.86981130290E+03  0.86981130290E+03  0.00000000000E+00 0.  1.
        -24    2    1    2    0    0  0.25273104415E+03  0.48215231289E+03 -0.54823213375E+02  0.55284418351E+03  0.79292326309E+02 0.  0.
        254    2    1    2    0    0 -0.25273104415E+03 -0.48215231289E+03 -0.74219169818E+02  0.10577360391E+04  0.90385463973E+03 0.  0.
         23    2    4    4    0    0 -0.20792397740E+03  0.21049678016E+03 -0.16579931963E+03  0.35160133348E+03  0.92697402754E+02 0.  0.
         23    2    4    4    0    0 -0.44807066751E+02 -0.69264909305E+03  0.91580149810E+02  0.70613470563E+03  0.92026405596E+02 0.  0.
          1    1    3    3  502    0  0.58977298415E+02  0.64541484899E+02  0.97395752366E+01  0.87970360503E+02  0.00000000000E+00 0. -1.
         -2    1    3    3    0  502  0.19375374574E+03  0.41761082799E+03 -0.64562788612E+02  0.46487382300E+03  0.00000000000E+00 0.  1.
         13    1    5    5    0    0 -0.18443892376E+03  0.18889706443E+03 -0.17692627132E+03  0.31780925574E+03  0.00000000000E+00 0.  1.
        -13    1    5    5    0    0 -0.23485053640E+02  0.21599715727E+02  0.11126951691E+02  0.33792077739E+02  0.00000000000E+00 0. -1.
          3    1    6    6  503    0  0.34777742976E+01 -0.21815793984E+02  0.19943114902E+02  0.29761579481E+02  0.00000000000E+00 0. -1.
         -3    1    6    6    0  503 -0.48284841049E+02 -0.67083329906E+03  0.71637034908E+02  0.67637312615E+03  0.00000000000E+00 0.  1.
<mgrwt>
<rscale>  0 0.16054024E+04</rscale>
<asrwt>0</asrwt>
<pdfrwt beam="1">  1        3 0.11396445E+00 0.16054024E+04</pdfrwt>
<pdfrwt beam="2">  1       -2 0.13381712E+00 0.16054024E+04</pdfrwt>
<totfact> 0.10303353E+00</totfact>
</mgrwt>
</event>
<event>
12    5  0.5029243E-008  0.1766890E+04  0.7818608E-02  0.8724108E-01
          1   -1    0    0  501    0  0.00000000000E+00  0.00000000000E+00  0.16840075825E+04  0.16840075825E+04  0.00000000000E+00 0. -1.
         -2   -1    0    0    0  501 -0.00000000000E+00 -0.00000000000E+00 -0.46346316680E+03  0.46346316680E+03  0.00000000000E+00 0.  1.
        -24    2    1    2    0    0 -0.30931964122E+03  0.95587621705E+02  0.10064010800E+04  0.10602367870E+04  0.80270024611E+02 0.  0.
        254    2    1    2    0    0  0.30931964122E+03 -0.95587621705E+02  0.21414333571E+03  0.10872339623E+04  0.10155809602E+04 0.  0.
         23    2    4    4    0    0 -0.12143986493E+03 -0.42233046669E+03  0.28957830846E+03  0.53425970370E+03  0.92017228741E+02 0.  0.
         23    2    4    4    0    0  0.43075950615E+03  0.32674284498E+03 -0.75434972742E+02  0.55297425859E+03  0.88178549901E+02 0.  0.
          3    1    3    3  502    0 -0.19642060962E+03  0.58830064451E+02  0.50649174104E+03  0.54642100628E+03  0.00000000000E+00 0. -1.
         -4    1    3    3    0  502 -0.11289903160E+03  0.36757557254E+02  0.49990933891E+03  0.51381578069E+03  0.00000000000E+00 0.  1.
         13    1    5    5    0    0  0.11312708486E+02 -0.10747951296E+02  0.43228759487E+01  0.16192068639E+02  0.00000000000E+00 0. -1.
        -13    1    5    5    0    0 -0.13275257342E+03 -0.41158251539E+03  0.28525543251E+03  0.51806763506E+03  0.00000000000E+00 0.  1.
          2    1    6    6  503    0  0.16075634103E+02 -0.45265427090E+01  0.10582538438E+01  0.16734261319E+02  0.00000000000E+00 0. -1.
         -2    1    6    6    0  503  0.41468387205E+03  0.33126938769E+03 -0.76493226586E+02  0.53623999727E+03  0.00000000000E+00 0.  1.
<mgrwt>
<rscale>  0 0.17668905E+04</rscale>
<asrwt>0</asrwt>
<pdfrwt beam="1">  1        1 0.25907809E+00 0.17668905E+04</pdfrwt>
<pdfrwt beam="2">  1       -2 0.71302026E-01 0.17668905E+04</pdfrwt>
<totfact> 0.72474840E+00</totfact>
</mgrwt>
</event>
<event>
12    5  0.5029243E-008  0.1143604E+04  0.7818608E-02  0.9163705E-01
         -2   -1    0    0    0  501 -0.00000000000E+00  0.00000000000E+00  0.82166823294E+03  0.82166823294E+03  0.00000000000E+00 0.  1.
          1   -1    0    0  501    0  0.00000000000E+00 -0.00000000000E+00 -0.39791911370E+03  0.39791911370E+03  0.00000000000E+00 0. -1.
        -24    2    1    2    0    0  0.10059084295E+03 -0.15070715979E+03 -0.76093446574E+02  0.20551037054E+03  0.60109351087E+02 0.  0.
        254    2    1    2    0    0 -0.10059084295E+03  0.15070715979E+03  0.49984256581E+03  0.10140769761E+04  0.86352669742E+03 0.  0.
         23    2    4    4    0    0 -0.44062695748E+03 -0.86807348650E+02  0.23921598202E+03  0.51583514254E+03  0.84699331707E+02 0.  0.
         23    2    4    4    0    0  0.34003611453E+03  0.23751450844E+03  0.26062658380E+03  0.49824183356E+03  0.91000041854E+02 0.  0.
          1    1    3    3  502    0  0.20280432603E+02 -0.49342458257E+02  0.38266822648E+01  0.53484742035E+02  0.00000000000E+00 0. -1.
         -4    1    3    3    0  502  0.80310410342E+02 -0.10136470154E+03 -0.79920128839E+02  0.15202562850E+03  0.00000000000E+00 0.  1.
         13    1    5    5    0    0 -0.17151466442E+03 -0.40733463194E+01  0.12373863565E+03  0.21153042858E+03  0.00000000000E+00 0.  1.
        -13    1    5    5    0    0 -0.26911229306E+03 -0.82734002330E+02  0.11547734637E+03  0.30430471397E+03  0.00000000000E+00 0. -1.
          3    1    6    6  503    0  0.13369760720E+03  0.12438390327E+03  0.15817282428E+03  0.24158859225E+03  0.00000000000E+00 0. -1.
         -3    1    6    6    0  503  0.20633850734E+03  0.11313060517E+03  0.10245375952E+03  0.25665324131E+03  0.00000000000E+00 0.  1.
<mgrwt>
<rscale>  0 0.11436039E+04</rscale>
<asrwt>0</asrwt>
<pdfrwt beam="1">  1        1 0.61218325E-01 0.11436039E+04</pdfrwt>
<pdfrwt beam="2">  1       -2 0.12641050E+00 0.11436039E+04</pdfrwt>
<totfact> 0.24432235E+01</totfact>
</mgrwt>
</event>
<event>
12    5  0.5029243E-008  0.1939479E+04  0.7818608E-02  0.8635451E-01
         -2   -1    0    0    0  501 -0.00000000000E+00  0.00000000000E+00  0.74027759036E+03  0.74027759036E+03  0.00000000000E+00 0.  1.
          1   -1    0    0  501    0  0.00000000000E+00 -0.00000000000E+00 -0.12703271337E+04  0.12703271337E+04  0.00000000000E+00 0. -1.
        -24    2    1    2    0    0  0.71485895424E+03  0.84457132076E+02 -0.44613133922E+03  0.85065037785E+03  0.80103444975E+02 0.  0.
        254    2    1    2    0    0 -0.71485895424E+03 -0.84457132076E+02 -0.83918204107E+02  0.11599543462E+04  0.90570165544E+03 0.  0.
         23    2    4    4    0    0 -0.68931049756E+03 -0.34894415859E+03 -0.26933314499E+03  0.82321265815E+03  0.90706944055E+02 0.  0.
         23    2    4    4    0    0 -0.25548456679E+02  0.26448702651E+03  0.18541494088E+03  0.33674168804E+03  0.91706888138E+02 0.  0.
          3    1    3    3  502    0  0.46337534080E+03  0.84244707354E+02 -0.31920433849E+03  0.56895104085E+03  0.00000000000E+00 0. -1.
         -4    1    3    3    0  502  0.25148361344E+03  0.21242472201E+00 -0.12692700073E+03  0.28169933700E+03  0.00000000000E+00 0.  1.
         13    1    5    5    0    0 -0.29692989535E+03 -0.19798557567E+03 -0.10749091705E+03  0.37271966433E+03  0.00000000000E+00 0. -1.
        -13    1    5    5    0    0 -0.39238060221E+03 -0.15095858292E+03 -0.16184222794E+03  0.45049299383E+03  0.00000000000E+00 0.  1.
          2    1    6    6  503    0 -0.18383232803E+02  0.26981066791E+03  0.17157028048E+03  0.32026879478E+03  0.00000000000E+00 0. -1.
         -2    1    6    6    0  503 -0.71652238761E+01 -0.53236413943E+01  0.13844660401E+02  0.16472893265E+02  0.00000000000E+00 0.  1.
<mgrwt>
<rscale>  0 0.19394790E+04</rscale>
<asrwt>0</asrwt>
<pdfrwt beam="1">  1        1 0.19543494E+00 0.19394790E+04</pdfrwt>
<pdfrwt beam="2">  1       -2 0.11388886E+00 0.19394790E+04</pdfrwt>
<totfact> 0.46928260E+00</totfact>
</mgrwt>
</event>
<event>
12    5  0.5029243E-008  0.1210371E+04  0.7818608E-02  0.9103827E-01
         -2   -1    0    0    0  501 -0.00000000000E+00  0.00000000000E+00  0.32337816582E+03  0.32337816582E+03  0.00000000000E+00 0.  1.
          1   -1    0    0  501    0  0.00000000000E+00 -0.00000000000E+00 -0.11325736547E+04  0.11325736547E+04  0.00000000000E+00 0. -1.
        -24    2    1    2    0    0 -0.20846788406E+03  0.14932551749E+03 -0.19857503476E+03  0.33377996035E+03  0.78867285006E+02 0.  0.
        254    2    1    2    0    0  0.20846788406E+03 -0.14932551749E+03 -0.61062045412E+03  0.11221718602E+04  0.90590031233E+03 0.  0.
         23    2    4    4    0    0  0.36798134709E+03  0.24683220797E+03 -0.12424142323E+03  0.46876588733E+03  0.89269900736E+02 0.  0.
         23    2    4    4    0    0 -0.15951346304E+03 -0.39615772547E+03 -0.48637903089E+03  0.65340597283E+03  0.89382969888E+02 0.  0.
          3    1    3    3  502    0 -0.17380940492E+03  0.15523150939E+03 -0.17540744607E+03  0.29167499530E+03  0.00000000000E+00 0. -1.
         -2    1    3    3    0  502 -0.34658479135E+02 -0.59059918959E+01 -0.23167588695E+02  0.42104965054E+02  0.00000000000E+00 0.  1.
         13    1    5    5    0    0  0.15451184906E+03  0.53412408028E+02 -0.34908503318E+02  0.16716877829E+03  0.00000000000E+00 0. -1.
        -13    1    5    5    0    0  0.21346949803E+03  0.19341979994E+03 -0.89332919913E+02  0.30159710904E+03  0.00000000000E+00 0.  1.
          2    1    6    6  503    0 -0.35540448398E+02 -0.22393639091E+02 -0.37880133762E+02  0.56564150112E+02  0.00000000000E+00 0. -1.
         -2    1    6    6    0  503 -0.12397301464E+03 -0.37376408637E+03 -0.44849889712E+03  0.59684182272E+03  0.00000000000E+00 0.  1.
<mgrwt>
<rscale>  0 0.12103712E+04</rscale>
<asrwt>0</asrwt>
<pdfrwt beam="1">  1        1 0.17424210E+00 0.12103712E+04</pdfrwt>
<pdfrwt beam="2">  1       -2 0.49750487E-01 0.12103712E+04</pdfrwt>
<totfact> 0.39733246E+01</totfact>
</mgrwt>
</event>
<event>
12    5  0.5029243E-008  0.1852629E+04  0.7818608E-02  0.8678802E-01
          1   -1    0    0  501    0  0.00000000000E+00  0.00000000000E+00  0.62844624166E+03  0.62844624166E+03  0.00000000000E+00 0. -1.
         -2   -1    0    0    0  501 -0.00000000000E+00 -0.00000000000E+00 -0.13653655320E+04  0.13653655320E+04  0.00000000000E+00 0.  1.
        -24    2    1    2    0    0 -0.32825549269E+03  0.19606565628E+03 -0.92439321004E+03  0.10036805446E+04  0.81721593367E+02 0.  0.
        254    2    1    2    0    0  0.32825549269E+03 -0.19606565628E+03  0.18747391970E+03  0.99013122903E+03  0.89387916973E+03 0.  0.
         23    2    4    4    0    0  0.78255599176E+01 -0.48375687563E+03 -0.41098358432E+02  0.49431122284E+03  0.92588097801E+02 0.  0.
         23    2    4    4    0    0  0.32042993277E+03  0.28769121935E+03  0.22857227814E+03  0.49582000619E+03  0.90280743789E+02 0.  0.
          3    1    3    3  502    0 -0.32341262063E+02  0.36028730241E+02 -0.18708837491E+03  0.19325135617E+03  0.00000000000E+00 0. -1.
         -4    1    3    3    0  502 -0.29591423063E+03  0.16003692604E+03 -0.73730483512E+03  0.81042918844E+03  0.00000000000E+00 0.  1.
         13    1    5    5    0    0  0.28194842177E+02 -0.46050110832E+03 -0.42833664828E+02  0.46334753991E+03  0.00000000000E+00 0.  1.
        -13    1    5    5    0    0 -0.20369282259E+02 -0.23255767305E+02  0.17353063964E+01  0.30963682936E+02  0.00000000000E+00 0. -1.
          3    1    6    6  503    0  0.12287832269E+03  0.56771391052E+02  0.57310936642E+02  0.14699189259E+03  0.00000000000E+00 0. -1.
         -3    1    6    6    0  503  0.19755161009E+03  0.23091982830E+03  0.17126134149E+03  0.34882811360E+03  0.00000000000E+00 0.  1.
<mgrwt>
<rscale>  0 0.18526293E+04</rscale>
<asrwt>0</asrwt>
<pdfrwt beam="1">  1        1 0.96684037E-01 0.18526293E+04</pdfrwt>
<pdfrwt beam="2">  1       -2 0.21005624E+00 0.18526293E+04</pdfrwt>
<totfact> 0.30103695E+00</totfact>
</mgrwt>
</event>
<event>
12    5  0.5029243E-008  0.1495882E+04  0.7818608E-02  0.8887196E-01
         -2   -1    0    0    0  501 -0.00000000000E+00  0.00000000000E+00  0.13582025444E+04  0.13582025444E+04  0.00000000000E+00 0.  1.
          1   -1    0    0  501    0  0.00000000000E+00 -0.00000000000E+00 -0.41187956389E+03  0.41187956389E+03  0.00000000000E+00 0. -1.
        -24    2    1    2    0    0  0.42808653807E+03  0.15412156214E+03  0.44888971461E+03  0.64398681606E+03  0.78775017570E+02 0.  0.
        254    2    1    2    0    0 -0.42808653807E+03 -0.15412156214E+03  0.49743326589E+03  0.11260952922E+04  0.90201951926E+03 0.  0.
         23    2    4    4    0    0 -0.54246827178E+03  0.17451855072E+03  0.50421372575E+03  0.76638992141E+03  0.91615937337E+02 0.  0.
         23    2    4    4    0    0  0.11438173372E+03 -0.32864011286E+03 -0.67804598627E+01  0.35970537079E+03  0.90854137779E+02 0.  0.
          1    1    3    3  502    0  0.28511448557E+03  0.83434320863E+02  0.24460875861E+03  0.38481813961E+03  0.00000000000E+00 0. -1.
         -2    1    3    3    0  502  0.14297205249E+03  0.70687241282E+02  0.20428095600E+03  0.25916867646E+03  0.00000000000E+00 0.  1.
         13    1    5    5    0    0 -0.23538012783E+03  0.10867854746E+03  0.18438410215E+03  0.31813885079E+03  0.00000000000E+00 0. -1.
        -13    1    5    5    0    0 -0.30708814396E+03  0.65840003258E+02  0.31982962359E+03  0.44825107062E+03  0.00000000000E+00 0.  1.
          2    1    6    6  503    0  0.47525013316E+02 -0.24859333243E+03  0.13509646259E+02  0.25345568125E+03  0.00000000000E+00 0. -1.
         -2    1    6    6    0  503  0.66856720401E+02 -0.80046780435E+02 -0.20290106121E+02  0.10624968954E+03  0.00000000000E+00 0.  1.
<mgrwt>
<rscale>  0 0.14958822E+04</rscale>
<asrwt>0</asrwt>
<pdfrwt beam="1">  1        1 0.63366088E-01 0.14958822E+04</pdfrwt>
<pdfrwt beam="2">  1       -2 0.20895423E+00 0.14958822E+04</pdfrwt>
<totfact> 0.56708785E+00</totfact>
</mgrwt>
</event>
<event>
12    5  0.5029243E-008  0.2011272E+04  0.7818608E-02  0.8601369E-01
          1   -1    0    0  501    0  0.00000000000E+00  0.00000000000E+00  0.77805105519E+03  0.77805105519E+03  0.00000000000E+00 0. -1.
         -2   -1    0    0    0  501 -0.00000000000E+00 -0.00000000000E+00 -0.12997906825E+04  0.12997906825E+04  0.00000000000E+00 0.  1.
        -24    2    1    2    0    0  0.76683848124E+03 -0.13703592011E+03 -0.21914673411E+02  0.78328328025E+03  0.78945199338E+02 0.  0.
        254    2    1    2    0    0 -0.76683848124E+03  0.13703592011E+03 -0.49982495393E+03  0.12945584575E+04  0.90511685188E+03 0.  0.
         23    2    4    4    0    0 -0.13726803471E+02 -0.26645907520E+03 -0.30187226419E+03  0.41300802695E+03  0.90884006014E+02 0.  0.
         23    2    4    4    0    0 -0.75311167777E+03  0.40349499531E+03 -0.19795268973E+03  0.88155043052E+03  0.89221543124E+02 0.  0.
          1    1    3    3  502    0  0.21863479196E+03 -0.43889921678E+02  0.29100355361E+02  0.22488736772E+03  0.00000000000E+00 0. -1.
         -2    1    3    3    0  502  0.54820368928E+03 -0.93145998429E+02 -0.51015028772E+02  0.55839591253E+03  0.00000000000E+00 0.  1.
         13    1    5    5    0    0 -0.17817843244E+02 -0.23594470483E+03 -0.21088826751E+03  0.31695621251E+03  0.00000000000E+00 0. -1.
        -13    1    5    5    0    0  0.40910397738E+01 -0.30514370368E+02 -0.90983996681E+02  0.96051814441E+02  0.00000000000E+00 0.  1.
          1    1    6    6  503    0 -0.69866862615E+03  0.35678162302E+03 -0.20070279263E+03  0.80976082065E+03  0.00000000000E+00 0. -1.
         -1    1    6    6    0  503 -0.54443051614E+02  0.46713372290E+02  0.27501028943E+01  0.71789609872E+02  0.00000000000E+00 0.  1.
<mgrwt>
<rscale>  0 0.20112717E+04</rscale>
<asrwt>0</asrwt>
<pdfrwt beam="1">  1        1 0.11970016E+00 0.20112717E+04</pdfrwt>
<pdfrwt beam="2">  1       -2 0.19996780E+00 0.20112717E+04</pdfrwt>
<totfact> 0.24962224E+00</totfact>
</mgrwt>
</event>
<event>
12    5  0.5029243E-008  0.1598087E+04  0.7818608E-02  0.8821724E-01
          1   -1    0    0  501    0  0.00000000000E+00  0.00000000000E+00  0.18825522809E+04  0.18825522809E+04  0.00000000000E+00 0. -1.
         -2   -1    0    0    0  501 -0.00000000000E+00 -0.00000000000E+00 -0.33915155788E+03  0.33915155788E+03  0.00000000000E+00 0.  1.
        -24    2    1    2    0    0  0.33075607787E+03  0.20399473608E+03  0.84449415031E+02  0.40563482125E+03  0.79965424512E+02 0.  0.
        254    2    1    2    0    0 -0.33075607787E+03 -0.20399473608E+03  0.14589513080E+04  0.18160690175E+04  0.10092345228E+04 0.  0.
         23    2    4    4    0    0  0.18347276851E+03  0.28876755922E+03  0.59569921226E+03  0.69307916176E+03  0.91935917513E+02 0.  0.
         23    2    4    4    0    0 -0.51422884638E+03 -0.49276229530E+03  0.86325209573E+03  0.11229898558E+04  0.93037891597E+02 0.  0.
          3    1    3    3  502    0  0.59742741786E+02  0.53430603476E+02  0.48118063005E+02  0.93484611414E+02  0.00000000000E+00 0. -1.
         -4    1    3    3    0  502  0.27101333608E+03  0.15056413260E+03  0.36331352026E+02  0.31215020984E+03  0.00000000000E+00 0.  1.
         13    1    5    5    0    0  0.98709161743E+02  0.19441239815E+03  0.44907198281E+03  0.49920469239E+03  0.00000000000E+00 0. -1.
        -13    1    5    5    0    0  0.84763606768E+02  0.94355161073E+02  0.14662722946E+03  0.19387446936E+03  0.00000000000E+00 0.  1.
          1    1    6    6  503    0 -0.19845202457E+03 -0.21431559606E+03  0.28855996661E+03  0.41058645265E+03  0.00000000000E+00 0. -1.
         -1    1    6    6    0  503 -0.31577682180E+03 -0.27844669924E+03  0.57469212912E+03  0.71240340313E+03  0.00000000000E+00 0.  1.
<mgrwt>
<rscale>  0 0.15980870E+04</rscale>
<asrwt>0</asrwt>
<pdfrwt beam="1">  1        1 0.28962342E+00 0.15980870E+04</pdfrwt>
<pdfrwt beam="2">  1       -2 0.52177164E-01 0.15980870E+04</pdfrwt>
<totfact> 0.10461462E+01</totfact>
</mgrwt>
</event>
<event>
12    5  0.5029243E-008  0.1893625E+04  0.7818608E-02  0.8658036E-01
         -2   -1    0    0    0  501 -0.00000000000E+00  0.00000000000E+00  0.10666670731E+04  0.10666670731E+04  0.00000000000E+00 0.  1.
          1   -1    0    0  501    0  0.00000000000E+00 -0.00000000000E+00 -0.84042517401E+03  0.84042517401E+03  0.00000000000E+00 0. -1.
        -24    2    1    2    0    0 -0.63382217374E+03  0.30870955601E+02  0.45322190686E+03  0.78437803437E+03  0.84588652400E+02 0.  0.
        254    2    1    2    0    0  0.63382217374E+03 -0.30870955601E+02 -0.22698000778E+03  0.11227142127E+04  0.89793302406E+03 0.  0.
         23    2    4    4    0    0  0.22555088201E+03  0.41378163635E+03 -0.21807037991E+02  0.47850800884E+03  0.80037020612E+02 0.  0.
         23    2    4    4    0    0  0.40827129173E+03 -0.44465259195E+03 -0.20517296979E+03  0.64420620388E+03  0.92218818090E+02 0.  0.
          1    1    3    3  502    0 -0.11748044424E+03 -0.27040548286E+02  0.89400804967E+02  0.15008447608E+03  0.00000000000E+00 0. -1.
         -2    1    3    3    0  502 -0.51634172950E+03  0.57911503887E+02  0.36382110189E+03  0.63429355829E+03  0.00000000000E+00 0.  1.
         13    1    5    5    0    0  0.63066824714E+02  0.15862355511E+03 -0.40467421104E+02  0.17543223417E+03  0.00000000000E+00 0. -1.
        -13    1    5    5    0    0  0.16248405730E+03  0.25515808123E+03  0.18660383113E+02  0.30307577467E+03  0.00000000000E+00 0.  1.
          2    1    6    6  503    0  0.31100766943E+03 -0.36542830577E+03 -0.12693786983E+03  0.49636361662E+03  0.00000000000E+00 0. -1.
         -2    1    6    6    0  503  0.97263622307E+02 -0.79224286174E+02 -0.78235099963E+02  0.14784258727E+03  0.00000000000E+00 0.  1.
<mgrwt>
<rscale>  0 0.18936249E+04</rscale>
<asrwt>0</asrwt>
<pdfrwt beam="1">  1        1 0.12929618E+00 0.18936249E+04</pdfrwt>
<pdfrwt beam="2">  1       -2 0.16410263E+00 0.18936249E+04</pdfrwt>
<totfact> 0.39321741E+00</totfact>
</mgrwt>
</event>
<event>
12    5  0.5029243E-008  0.1950106E+04  0.7818608E-02  0.8630310E-01
         -2   -1    0    0    0  501 -0.00000000000E+00  0.00000000000E+00  0.63494646006E+03  0.63494646006E+03  0.00000000000E+00 0.  1.
          1   -1    0    0  501    0  0.00000000000E+00 -0.00000000000E+00 -0.14973359562E+04  0.14973359562E+04  0.00000000000E+00 0. -1.
        -24    2    1    2    0    0 -0.36949397850E+03  0.12659136520E+02 -0.10875655243E+04  0.11514272592E+04  0.79371970714E+02 0.  0.
        254    2    1    2    0    0  0.36949397850E+03 -0.12659136520E+02  0.22517602811E+03  0.98085515709E+03  0.88016279271E+03 0.  0.
         23    2    4    4    0    0 -0.17718022486E+03 -0.35189573868E+02  0.35703498578E+03  0.41040411113E+03  0.91249192729E+02 0.  0.
         23    2    4    4    0    0  0.54667420336E+03  0.22530437348E+02 -0.13185895767E+03  0.57045104596E+03  0.93098366770E+02 0.  0.
          1    1    3    3  502    0 -0.31814802856E+03  0.37078657721E+02 -0.95131540991E+03  0.10037898207E+04  0.00000000000E+00 0. -1.
         -2    1    3    3    0  502 -0.51345949943E+02 -0.24419521201E+02 -0.13625011435E+03  0.14763743852E+03  0.00000000000E+00 0.  1.
         13    1    5    5    0    0 -0.18507587514E+03 -0.43041911973E+02  0.32478517902E+03  0.37628592620E+03  0.00000000000E+00 0. -1.
        -13    1    5    5    0    0  0.78956502807E+01  0.78523381051E+01  0.32249806761E+02  0.34118184934E+02  0.00000000000E+00 0.  1.
          4    1    6    6  503    0  0.44558416389E+03 -0.87959113370E+01 -0.80763946334E+02  0.45292982922E+03  0.00000000000E+00 0. -1.
         -4    1    6    6    0  503  0.10109003947E+03  0.31326348685E+02 -0.51095011338E+02  0.11752121674E+03  0.00000000000E+00 0.  1.
<mgrwt>
<rscale>  0 0.19501058E+04</rscale>
<asrwt>0</asrwt>
<pdfrwt beam="1">  1        1 0.23035938E+00 0.19501058E+04</pdfrwt>
<pdfrwt beam="2">  1       -2 0.97684072E-01 0.19501058E+04</pdfrwt>
<totfact> 0.46896506E+00</totfact>
</mgrwt>
</event>
<event>
12    5  0.5029243E-008  0.2265875E+04  0.7818608E-02  0.8491499E-01
          1   -1    0    0  501    0  0.00000000000E+00  0.00000000000E+00  0.11692229905E+04  0.11692229905E+04  0.00000000000E+00 0. -1.
         -4   -1    0    0    0  501 -0.00000000000E+00 -0.00000000000E+00 -0.10977779530E+04  0.10977779530E+04  0.00000000000E+00 0.  1.
        -24    2    1    2    0    0 -0.51021206777E+02 -0.12550092111E+03 -0.91760059012E+03  0.93087274160E+03  0.78610262172E+02 0.  0.
        254    2    1    2    0    0  0.51021206777E+02  0.12550092111E+03  0.98904562763E+03  0.13361282019E+04  0.88807301148E+03 0.  0.
         23    2    4    4    0    0 -0.81824738122E+02  0.48652274937E+03  0.53654803407E+03  0.73461680171E+03  0.91533486030E+02 0.  0.
         23    2    4    4    0    0  0.13284594490E+03 -0.36102182826E+03  0.45249759356E+03  0.60151140022E+03  0.95273746986E+02 0.  0.
          1    1    3    3  502    0 -0.31168676226E+02 -0.42303569362E+01 -0.13049461111E+03  0.13423198511E+03  0.00000000000E+00 0. -1.
         -2    1    3    3    0  502 -0.19852530551E+02 -0.12127056417E+03 -0.78710597901E+03  0.79664075649E+03  0.00000000000E+00 0.  1.
         13    1    5    5    0    0 -0.74195855028E+02  0.27991231044E+03  0.36530058467E+03  0.46615495664E+03  0.00000000000E+00 0.  1.
        -13    1    5    5    0    0 -0.76288830941E+01  0.20661043892E+03  0.17124744940E+03  0.26846184506E+03  0.00000000000E+00 0. -1.
          1    1    6    6  503    0  0.16877452551E+02 -0.19465950342E+02  0.75383353392E+02  0.79664431184E+02  0.00000000000E+00 0. -1.
         -1    1    6    6    0  503  0.11596849235E+03 -0.34155587792E+03  0.37711424017E+03  0.52184696904E+03  0.00000000000E+00 0.  1.
<mgrwt>
<rscale>  0 0.22658749E+04</rscale>
<asrwt>0</asrwt>
<pdfrwt beam="1">  1        1 0.17988046E+00 0.22658749E+04</pdfrwt>
<pdfrwt beam="2">  1       -4 0.16888892E+00 0.22658749E+04</pdfrwt>
<totfact> 0.10665596E+00</totfact>
</mgrwt>
</event>
<event>
12    5  0.5029243E-008  0.1959636E+04  0.7818608E-02  0.8625728E-01
          1   -1    0    0  501    0  0.00000000000E+00  0.00000000000E+00  0.20445857801E+04  0.20445857801E+04  0.00000000000E+00 0. -1.
         -2   -1    0    0    0  501 -0.00000000000E+00 -0.00000000000E+00 -0.46955372037E+03  0.46955372037E+03  0.00000000000E+00 0.  1.
        -24    2    1    2    0    0 -0.20169097965E+03  0.44041615919E+02 -0.30429931182E+03  0.37559167353E+03  0.76499142756E+02 0.  0.
        254    2    1    2    0    0  0.20169097965E+03 -0.44041615919E+02  0.18793313715E+04  0.21385478269E+04  0.99944058793E+03 0.  0.
         23    2    4    4    0    0 -0.29939391987E+03 -0.11999938265E+03  0.13838794898E+04  0.14238239595E+04  0.90086926653E+02 0.  0.
         23    2    4    4    0    0  0.50108489952E+03  0.75957766733E+02  0.49545188177E+03  0.71472386743E+03  0.92206185645E+02 0.  0.
          1    1    3    3  502    0 -0.14876954165E+02  0.25033879843E+02 -0.21798653888E+02  0.36375819119E+02  0.00000000000E+00 0. -1.
         -2    1    3    3    0  502 -0.18681402548E+03  0.19007736076E+02 -0.28250065794E+03  0.33921585441E+03  0.00000000000E+00 0.  1.
         13    1    5    5    0    0 -0.24583318042E+02 -0.19084389954E+02  0.28219051766E+03  0.28390146482E+03  0.00000000000E+00 0. -1.
        -13    1    5    5    0    0 -0.27481060183E+03 -0.10091499270E+03  0.11016889721E+04  0.11399224947E+04  0.00000000000E+00 0.  1.
          1    1    6    6  503    0  0.86955461367E+02  0.29567136792E+02  0.13761709790E+03  0.16545069802E+03  0.00000000000E+00 0. -1.
         -1    1    6    6    0  503  0.41412943815E+03  0.46390629941E+02  0.35783478387E+03  0.54927316941E+03  0.00000000000E+00 0.  1.
<mgrwt>
<rscale>  0 0.19596355E+04</rscale>
<asrwt>0</asrwt>
<pdfrwt beam="1">  1        1 0.31455165E+00 0.19596355E+04</pdfrwt>
<pdfrwt beam="2">  1       -2 0.72239035E-01 0.19596355E+04</pdfrwt>
<totfact> 0.39418474E+00</totfact>
</mgrwt>
</event>
<event>
12    5  0.5029243E-008  0.1131826E+04  0.7818608E-02  0.9174716E-01
          1   -1    0    0  501    0  0.00000000000E+00  0.00000000000E+00  0.58432361993E+03  0.58432361993E+03  0.00000000000E+00 0. -1.
         -2   -1    0    0    0  501 -0.00000000000E+00 -0.00000000000E+00 -0.54808211251E+03  0.54808211251E+03  0.00000000000E+00 0.  1.
        -24    2    1    2    0    0  0.13074892981E+03  0.14137033822E+03 -0.33879959924E+02  0.21075607702E+03  0.78672848831E+02 0.  0.
        254    2    1    2    0    0 -0.13074892981E+03 -0.14137033822E+03  0.70121467342E+02  0.92164965543E+03  0.89857677023E+03 0.  0.
         23    2    4    4    0    0 -0.45490657514E+03 -0.13897207984E+03 -0.16332871386E+03  0.51192779362E+03  0.95606307499E+02 0.  0.
         23    2    4    4    0    0  0.32415764533E+03 -0.23982583816E+01  0.23345018120E+03  0.40972186180E+03  0.91044419202E+02 0.  0.
          1    1    3    3  502    0  0.61052345964E+01  0.30536480042E+02  0.18139225061E+02  0.36038618018E+02  0.00000000000E+00 0. -1.
         -2    1    3    3    0  502  0.12464369521E+03  0.11083385818E+03 -0.52019184984E+02  0.17471745900E+03  0.00000000000E+00 0.  1.
         13    1    5    5    0    0 -0.26109704854E+03 -0.11803543954E+03 -0.12794411351E+03  0.31380524203E+03  0.00000000000E+00 0. -1.
        -13    1    5    5    0    0 -0.19380952660E+03 -0.20936640294E+02 -0.35384600352E+02  0.19812255159E+03  0.00000000000E+00 0.  1.
          2    1    6    6  503    0  0.74191512002E+02 -0.39311360081E+02  0.54653923893E+02  0.10018390530E+03  0.00000000000E+00 0.  1.
         -2    1    6    6    0  503  0.24996613333E+03  0.36913101700E+02  0.17879625731E+03  0.30953795650E+03  0.00000000000E+00 0. -1.
<mgrwt>
<rscale>  0 0.11318256E+04</rscale>
<asrwt>0</asrwt>
<pdfrwt beam="1">  1        1 0.89895942E-01 0.11318256E+04</pdfrwt>
<pdfrwt beam="2">  1       -2 0.84320325E-01 0.11318256E+04</pdfrwt>
<totfact> 0.38010441E+01</totfact>
</mgrwt>
</event>
<event>
12    5  0.5029243E-008  0.1644137E+04  0.7818608E-02  0.8793882E-01
          3   -1    0    0  501    0  0.00000000000E+00  0.00000000000E+00  0.10293472698E+04  0.10293472698E+04  0.00000000000E+00 0. -1.
         -4   -1    0    0    0  501 -0.00000000000E+00 -0.00000000000E+00 -0.65652956823E+03  0.65652956823E+03  0.00000000000E+00 0.  1.
        -24    2    1    2    0    0  0.42007219751E+01 -0.33252658148E+02 -0.45504640807E+03  0.46348607252E+03  0.81416955142E+02 0.  0.
        254    2    1    2    0    0 -0.42007219751E+01  0.33252658148E+02  0.82786410964E+03  0.12223907655E+04  0.89875292168E+03 0.  0.
         23    2    4    4    0    0  0.20608402533E+03  0.10987236361E+03 -0.95742835099E+02  0.26781527667E+03  0.89530833595E+02 0.  0.
         23    2    4    4    0    0 -0.21028474730E+03 -0.76619705465E+02  0.92360694474E+03  0.95457548883E+03  0.89857227293E+02 0.  0.
          3    1    3    3  502    0  0.22269982523E+01 -0.45708372294E+02 -0.12359870278E+03  0.13179853622E+03  0.00000000000E+00 0. -1.
         -4    1    3    3    0  502  0.19737237228E+01  0.12455714146E+02 -0.33144770529E+03  0.33168753631E+03  0.00000000000E+00 0.  1.
         13    1    5    5    0    0  0.20204800166E+03  0.11823060385E+03 -0.10327068275E+03  0.25586462158E+03  0.00000000000E+00 0.  1.
        -13    1    5    5    0    0  0.40360236693E+01 -0.83582402340E+01  0.75278476507E+01  0.11950655092E+02  0.00000000000E+00 0. -1.
          2    1    6    6  503    0 -0.20082095221E+02  0.98400382235E+01  0.20486902450E+03  0.20608598715E+03  0.00000000000E+00 0. -1.
         -2    1    6    6    0  503 -0.19020265208E+03 -0.86459743688E+02  0.71873792024E+03  0.74848950168E+03  0.00000000000E+00 0.  1.
<mgrwt>
<rscale>  0 0.16441374E+04</rscale>
<asrwt>0</asrwt>
<pdfrwt beam="1">  1        3 0.15836112E+00 0.16441374E+04</pdfrwt>
<pdfrwt beam="2">  1       -4 0.10100455E+00 0.16441374E+04</pdfrwt>
<totfact> 0.49548158E-01</totfact>
</mgrwt>
</event>
<event>
12    5  0.5029243E-008  0.1934949E+04  0.7818608E-02  0.8637653E-01
         -2   -1    0    0    0  501 -0.00000000000E+00  0.00000000000E+00  0.52404738961E+03  0.52404738961E+03  0.00000000000E+00 0.  1.
          1   -1    0    0  501    0  0.00000000000E+00 -0.00000000000E+00 -0.17861105318E+04  0.17861105318E+04  0.00000000000E+00 0. -1.
        -24    2    1    2    0    0 -0.48820833440E+03 -0.51239136677E+03 -0.19743414249E+03  0.73918829079E+03  0.80788601309E+02 0.  0.
        254    2    1    2    0    0  0.48820833440E+03  0.51239136677E+03 -0.10646289997E+04  0.15709696306E+04  0.91302704385E+03 0.  0.
         23    2    4    4    0    0  0.21393642223E+03  0.74593496322E+03 -0.67547029315E+03  0.10329037145E+04  0.91881469803E+02 0.  0.
         23    2    4    4    0    0  0.27427191216E+03 -0.23354359644E+03 -0.38915870654E+03  0.53806591607E+03  0.91119360800E+02 0.  0.
          3    1    3    3  502    0 -0.52233809288E+02 -0.23585256167E+02 -0.13846663890E+02  0.58960709307E+02  0.00000000000E+00 0. -1.
         -4    1    3    3    0  502 -0.43597452511E+03 -0.48880611061E+03 -0.18358747860E+03  0.68022758148E+03  0.00000000000E+00 0.  1.
         13    1    5    5    0    0  0.69722546155E+02  0.13467384588E+03 -0.10504137372E+03  0.18447755527E+03  0.00000000000E+00 0.  1.
        -13    1    5    5    0    0  0.14421387608E+03  0.61126111734E+03 -0.57042891943E+03  0.84842615928E+03  0.00000000000E+00 0. -1.
          1    1    6    6  503    0  0.18137259747E+03 -0.94937198201E+02 -0.21526573558E+03  0.29706636907E+03  0.00000000000E+00 0. -1.
         -1    1    6    6    0  503  0.92899314694E+02 -0.13860639824E+03 -0.17389297096E+03  0.24099954700E+03  0.00000000000E+00 0.  1.
<mgrwt>
<rscale>  0 0.19349486E+04</rscale>
<asrwt>0</asrwt>
<pdfrwt beam="1">  1        1 0.27478624E+00 0.19349486E+04</pdfrwt>
<pdfrwt beam="2">  1       -2 0.80622675E-01 0.19349486E+04</pdfrwt>
<totfact> 0.46319537E+00</totfact>
</mgrwt>
</event>
<event>
12    5  0.5029243E-008  0.1430931E+04  0.7818608E-02  0.8931729E-01
          1   -1    0    0  501    0  0.00000000000E+00  0.00000000000E+00  0.90831384817E+03  0.90831384817E+03  0.00000000000E+00 0. -1.
         -2   -1    0    0    0  501 -0.00000000000E+00 -0.00000000000E+00 -0.56356163241E+03  0.56356163241E+03  0.00000000000E+00 0.  1.
        -24    2    1    2    0    0 -0.41957583822E+03  0.14299925924E+03  0.13270543644E+03  0.46953213504E+03  0.79730927563E+02 0.  0.
        254    2    1    2    0    0  0.41957583822E+03 -0.14299925924E+03  0.21204677931E+03  0.10023433455E+04  0.87363360374E+03 0.  0.
         23    2    4    4    0    0  0.31952343167E+03 -0.49423491345E+03  0.75949212821E+02  0.60178230627E+03  0.10005142758E+03 0.  0.
         23    2    4    4    0    0  0.10005240655E+03  0.35123565421E+03  0.13609756649E+03  0.40056103927E+03  0.92464207858E+02 0.  0.
          1    1    3    3  502    0 -0.29667144782E+02  0.84389614590E+01  0.33015531334E+02  0.45181642946E+02  0.00000000000E+00 0. -1.
         -2    1    3    3    0  502 -0.38990869344E+03  0.13456029778E+03  0.99689905103E+02  0.42435049209E+03  0.00000000000E+00 0.  1.
         13    1    5    5    0    0  0.28098673962E+03 -0.41557826110E+03  0.98728718398E+02  0.51127898331E+03  0.00000000000E+00 0.  1.
        -13    1    5    5    0    0  0.38536692046E+02 -0.78656652346E+02 -0.22779505577E+02  0.90503322959E+02  0.00000000000E+00 0. -1.
          4    1    6    6  503    0  0.83838093327E+02  0.17143014766E+03  0.36219209872E+02  0.19423942077E+03  0.00000000000E+00 0.  1.
         -4    1    6    6    0  503  0.16214313227E+02  0.17980550655E+03  0.99878356622E+02  0.20632161850E+03  0.00000000000E+00 0. -1.
<mgrwt>
<rscale>  0 0.14309309E+04</rscale>
<asrwt>0</asrwt>
<pdfrwt beam="1">  1        1 0.13974059E+00 0.14309309E+04</pdfrwt>
<pdfrwt beam="2">  1       -2 0.86701790E-01 0.14309309E+04</pdfrwt>
<totfact> 0.17586704E+01</totfact>
</mgrwt>
</event>
<event>
12    5  0.5029243E-008  0.2573076E+04  0.7818608E-02  0.8377405E-01
         -2   -1    0    0    0  501 -0.00000000000E+00  0.00000000000E+00  0.87822628640E+03  0.87822628640E+03  0.00000000000E+00 0.  1.
          1   -1    0    0  501    0  0.00000000000E+00 -0.00000000000E+00 -0.18846847154E+04  0.18846847154E+04  0.00000000000E+00 0. -1.
        -24    2    1    2    0    0 -0.69414372620E+02  0.10667256658E+04 -0.70191744587E+02  0.10739619482E+04  0.75798310862E+02 0.  0.
        254    2    1    2    0    0  0.69414372620E+02 -0.10667256658E+04 -0.93626668439E+03  0.16889490536E+04  0.91281520584E+03 0.  0.
         23    2    4    4    0    0  0.43829991608E+03 -0.83169603970E+03 -0.52473994586E+03  0.10808843380E+04  0.95571033764E+02 0.  0.
         23    2    4    4    0    0 -0.36888554346E+03 -0.23502962613E+03 -0.41152673853E+03  0.60806471556E+03  0.95252151951E+02 0.  0.
          3    1    3    3  502    0 -0.46089397464E+02  0.87658393574E+03 -0.30490041803E+02  0.87832412674E+03  0.00000000000E+00 0. -1.
         -4    1    3    3    0  502 -0.23324975156E+02  0.19014173008E+03 -0.39701702784E+02  0.19563782147E+03  0.00000000000E+00 0.  1.
         13    1    5    5    0    0  0.36673913622E+03 -0.60741180450E+03 -0.39318198684E+03  0.81119588822E+03  0.00000000000E+00 0.  1.
        -13    1    5    5    0    0  0.71560779858E+02 -0.22428423520E+03 -0.13155795902E+03  0.26968844980E+03  0.00000000000E+00 0. -1.
          4    1    6    6  503    0 -0.23324239299E+03 -0.19614359722E+03 -0.25541744929E+03  0.39763349711E+03  0.00000000000E+00 0. -1.
         -4    1    6    6    0  503 -0.13564315047E+03 -0.38886028910E+02 -0.15610928923E+03  0.21043121845E+03  0.00000000000E+00 0.  1.
<mgrwt>
<rscale>  0 0.25730757E+04</rscale>
<asrwt>0</asrwt>
<pdfrwt beam="1">  1        1 0.28995149E+00 0.25730757E+04</pdfrwt>
<pdfrwt beam="2">  1       -2 0.13511174E+00 0.25730757E+04</pdfrwt>
<totfact> 0.10897739E+00</totfact>
</mgrwt>
</event>
<event>
12    5  0.5029243E-008  0.1220180E+04  0.7818608E-02  0.9095375E-01
         -2   -1    0    0    0  501 -0.00000000000E+00  0.00000000000E+00  0.18580424096E+03  0.18580424096E+03  0.00000000000E+00 0.  1.
          1   -1    0    0  501    0  0.00000000000E+00 -0.00000000000E+00 -0.20032347090E+04  0.20032347090E+04  0.00000000000E+00 0. -1.
        -24    2    1    2    0    0  0.18060361338E+03 -0.39509518820E+02 -0.81860890331E+03  0.84308645171E+03  0.80595044752E+02 0.  0.
        254    2    1    2    0    0 -0.18060361338E+03  0.39509518820E+02 -0.99882156474E+03  0.13459524983E+04  0.88304300130E+03 0.  0.
         23    2    4    4    0    0 -0.17933390238E+03  0.39628103005E+03 -0.82838172795E+03  0.94016510698E+03  0.92167444634E+02 0.  0.
         23    2    4    4    0    0 -0.12697109991E+01 -0.35677151123E+03 -0.17043983678E+03  0.40578739128E+03  0.91247715395E+02 0.  0.
          1    1    3    3  502    0  0.17467787202E+03 -0.31210267589E+02 -0.81145509717E+03  0.83062976981E+03  0.00000000000E+00 0. -1.
         -2    1    3    3    0  502  0.59257413593E+01 -0.82992512311E+01 -0.71538061416E+01  0.12456681900E+02  0.00000000000E+00 0.  1.
         13    1    5    5    0    0 -0.10947157385E+03  0.33223748359E+03 -0.65720741791E+03  0.74450477577E+03  0.00000000000E+00 0. -1.
        -13    1    5    5    0    0 -0.69862328525E+02  0.64043546457E+02 -0.17117431004E+03  0.19566033121E+03  0.00000000000E+00 0.  1.
          1    1    6    6  503    0 -0.14913258203E+02 -0.34886927816E+03 -0.15017504744E+03  0.38011146179E+03  0.00000000000E+00 0. -1.
         -1    1    6    6    0  503  0.13643547204E+02 -0.79022330739E+01 -0.20264789341E+02  0.25675929484E+02  0.00000000000E+00 0.  1.
<mgrwt>
<rscale>  0 0.12201795E+04</rscale>
<asrwt>0</asrwt>
<pdfrwt beam="1">  1        1 0.30818996E+00 0.12201795E+04</pdfrwt>
<pdfrwt beam="2">  1       -2 0.28585268E-01 0.12201795E+04</pdfrwt>
<totfact> 0.28910420E+01</totfact>
</mgrwt>
</event>
<event>
12    5  0.5029243E-008  0.1329070E+04  0.7818608E-02  0.9006825E-01
          1   -1    0    0  501    0  0.00000000000E+00  0.00000000000E+00  0.12821598620E+04  0.12821598620E+04  0.00000000000E+00 0. -1.
         -2   -1    0    0    0  501 -0.00000000000E+00 -0.00000000000E+00 -0.34442423113E+03  0.34442423113E+03  0.00000000000E+00 0.  1.
        -24    2    1    2    0    0  0.23596438237E+03  0.26167515618E+03  0.18641987737E+03  0.40656007463E+03  0.79910240241E+02 0.  0.
        254    2    1    2    0    0 -0.23596438237E+03 -0.26167515618E+03  0.75131575352E+03  0.12200240185E+04  0.89433224651E+03 0.  0.
         23    2    4    4    0    0  0.15032309386E+00  0.17172128402E+03 -0.11250573224E+03  0.22108558291E+03  0.82055305758E+02 0.  0.
         23    2    4    4    0    0 -0.23611470547E+03 -0.43339644020E+03  0.86382148576E+03  0.99893843560E+03  0.90043380281E+02 0.  0.
          3    1    3    3  502    0  0.72756649731E+02  0.77570279850E+02  0.16667092436E+02  0.10764975786E+03  0.00000000000E+00 0. -1.
         -4    1    3    3    0  502  0.16320773264E+03  0.18410487633E+03  0.16975278493E+03  0.29891031678E+03  0.00000000000E+00 0.  1.
         13    1    5    5    0    0  0.29476742398E+02  0.26681368909E+02 -0.97653571397E+01  0.40940639825E+02  0.00000000000E+00 0. -1.
        -13    1    5    5    0    0 -0.29326419304E+02  0.14503991511E+03 -0.10274037510E+03  0.18014494309E+03  0.00000000000E+00 0.  1.
          1    1    6    6  503    0 -0.62221442529E+02 -0.86349216907E+02  0.12359160001E+03  0.16310296982E+03  0.00000000000E+00 0. -1.
         -1    1    6    6    0  503 -0.17389326294E+03 -0.34704722329E+03  0.74022988575E+03  0.83583546578E+03  0.00000000000E+00 0.  1.
<mgrwt>
<rscale>  0 0.13290702E+04</rscale>
<asrwt>0</asrwt>
<pdfrwt beam="1">  1        1 0.19725536E+00 0.13290702E+04</pdfrwt>
<pdfrwt beam="2">  1       -2 0.52988344E-01 0.13290702E+04</pdfrwt>
<totfact> 0.26906491E+01</totfact>
</mgrwt>
</event>
<event>
12    5  0.5029243E-008  0.1724987E+04  0.7818608E-02  0.8747240E-01
         -2   -1    0    0    0  501 -0.00000000000E+00  0.00000000000E+00  0.93685876354E+03  0.93685876354E+03  0.00000000000E+00 0.  1.
          1   -1    0    0  501    0  0.00000000000E+00 -0.00000000000E+00 -0.79403103274E+03  0.79403103274E+03  0.00000000000E+00 0. -1.
        -24    2    1    2    0    0 -0.44545584692E+03  0.32823713254E+03 -0.23903855905E+03  0.60874197165E+03  0.85187021286E+02 0.  0.
        254    2    1    2    0    0  0.44545584692E+03 -0.32823713254E+03  0.38186628985E+03  0.11221478246E+04  0.89845609257E+03 0.  0.
         23    2    4    4    0    0  0.35135358908E+03  0.25892433237E+03  0.95666504519E+02  0.45606468411E+03  0.91387972716E+02 0.  0.
         23    2    4    4    0    0  0.94102257842E+02 -0.58716146491E+03  0.28619978533E+03  0.66608314052E+03  0.90236423650E+02 0.  0.
          3    1    3    3  502    0 -0.11811699566E+03  0.11718660814E+03 -0.10546665203E+03  0.19699629560E+03  0.00000000000E+00 0. -1.
         -4    1    3    3    0  502 -0.32733885126E+03  0.21105052440E+03 -0.13357190702E+03  0.41174567604E+03  0.00000000000E+00 0.  1.
         13    1    5    5    0    0  0.25188868150E+03  0.21916394972E+03  0.10095691735E+03  0.34881663362E+03  0.00000000000E+00 0.  1.
        -13    1    5    5    0    0  0.99464907576E+02  0.39760382650E+02 -0.52904128331E+01  0.10724805050E+03  0.00000000000E+00 0. -1.
          3    1    6    6  503    0  0.99978284556E+01 -0.19466155524E+03  0.13517383864E+03  0.23720253859E+03  0.00000000000E+00 0. -1.
         -3    1    6    6    0  503  0.84104429386E+02 -0.39249990968E+03  0.15102594669E+03  0.42888060193E+03  0.00000000000E+00 0.  1.
<mgrwt>
<rscale>  0 0.17249869E+04</rscale>
<asrwt>0</asrwt>
<pdfrwt beam="1">  1        1 0.12215862E+00 0.17249869E+04</pdfrwt>
<pdfrwt beam="2">  1       -2 0.14413212E+00 0.17249869E+04</pdfrwt>
<totfact> 0.61942311E+00</totfact>
</mgrwt>
</event>
<event>
12    5  0.5029243E-008  0.1823216E+04  0.7818608E-02  0.8694050E-01
         -2   -1    0    0    0  501 -0.00000000000E+00  0.00000000000E+00  0.66654377475E+03  0.66654377475E+03  0.00000000000E+00 0.  1.
          1   -1    0    0  501    0  0.00000000000E+00 -0.00000000000E+00 -0.12467740836E+04  0.12467740836E+04  0.00000000000E+00 0. -1.
        -24    2    1    2    0    0  0.45486730143E+03 -0.45665615922E+03 -0.35412037411E+01  0.64943271782E+03  0.79443093970E+02 0.  0.
        254    2    1    2    0    0 -0.45486730143E+03  0.45665615922E+03 -0.57668910511E+03  0.12638851405E+04  0.92162693908E+03 0.  0.
         23    2    4    4    0    0  0.11470851427E+03  0.10277683086E+03  0.17662061960E+03  0.25127003590E+03  0.90667896554E+02 0.  0.
         23    2    4    4    0    0 -0.56957581570E+03  0.35387932836E+03 -0.75330972472E+03  0.10126151046E+04  0.90920954089E+02 0.  0.
          1    1    3    3  502    0  0.13259746058E+03 -0.10414169909E+03 -0.29225690895E+02  0.17111902598E+03  0.00000000000E+00 0. -1.
         -2    1    3    3    0  502  0.32226984085E+03 -0.35251446013E+03  0.25684487154E+02  0.47831369184E+03  0.00000000000E+00 0.  1.
         13    1    5    5    0    0 -0.10315330429E+02  0.34317265014E+02  0.29396703512E+02  0.46349184430E+02  0.00000000000E+00 0. -1.
        -13    1    5    5    0    0  0.12502384470E+03  0.68459565850E+02  0.14722391609E+03  0.20492085148E+03  0.00000000000E+00 0.  1.
          1    1    6    6  503    0  0.98353360028E+00 -0.31024154347E+01 -0.15736217305E+01  0.36150525892E+01  0.00000000000E+00 0. -1.
         -1    1    6    6    0  503 -0.57055934930E+03  0.35698174379E+03 -0.75173610299E+03  0.10090000520E+04  0.00000000000E+00 0.  1.
<mgrwt>
<rscale>  0 0.18232164E+04</rscale>
<asrwt>0</asrwt>
<pdfrwt beam="1">  1        1 0.19181139E+00 0.18232164E+04</pdfrwt>
<pdfrwt beam="2">  1       -2 0.10254520E+00 0.18232164E+04</pdfrwt>
<totfact> 0.63498864E+00</totfact>
</mgrwt>
</event>
<event>
12    5  0.5029243E-008  0.1747480E+04  0.7818608E-02  0.8734738E-01
          1   -1    0    0  501    0  0.00000000000E+00  0.00000000000E+00  0.73473951688E+03  0.73473951688E+03  0.00000000000E+00 0. -1.
         -2   -1    0    0    0  501 -0.00000000000E+00 -0.00000000000E+00 -0.10390375221E+04  0.10390375221E+04  0.00000000000E+00 0.  1.
        -24    2    1    2    0    0  0.19818358111E+03  0.34409708116E+02  0.50149638341E+03  0.54633826171E+03  0.80784366078E+02 0.  0.
        254    2    1    2    0    0 -0.19818358111E+03 -0.34409708116E+02 -0.80579438866E+03  0.12274387773E+04  0.90379234086E+03 0.  0.
         23    2    4    4    0    0  0.31627915322E+03 -0.16884465711E+03 -0.44346400181E+03  0.57766315909E+03  0.92159554461E+02 0.  0.
         23    2    4    4    0    0 -0.51446273433E+03  0.13443494899E+03 -0.36233038685E+03  0.64977561821E+03  0.90445476736E+02 0.  0.
          3    1    3    3  502    0  0.18181290244E+03  0.19712313026E+02  0.48643496721E+03  0.51967632628E+03  0.00000000000E+00 0. -1.
         -4    1    3    3    0  502  0.16370678677E+02  0.14697395090E+02  0.15061416200E+02  0.26661935427E+02  0.00000000000E+00 0.  1.
         13    1    5    5    0    0  0.69170401247E+02 -0.29227570551E+02 -0.42109141344E+02  0.86092828236E+02  0.00000000000E+00 0.  1.
        -13    1    5    5    0    0  0.24710875197E+03 -0.13961708656E+03 -0.40135486047E+03  0.49157033086E+03  0.00000000000E+00 0. -1.
          3    1    6    6  503    0 -0.38595720601E+03  0.12736878101E+03 -0.23884440123E+03  0.47141533624E+03  0.00000000000E+00 0. -1.
         -3    1    6    6    0  503 -0.12850552832E+03  0.70661679761E+01 -0.12348598562E+03  0.17836028197E+03  0.00000000000E+00 0.  1.
<mgrwt>
<rscale>  0 0.17474804E+04</rscale>
<asrwt>0</asrwt>
<pdfrwt beam="1">  1        1 0.11303685E+00 0.17474804E+04</pdfrwt>
<pdfrwt beam="2">  1       -2 0.15985193E+00 0.17474804E+04</pdfrwt>
<totfact> 0.52983791E+00</totfact>
</mgrwt>
</event>
<event>
12    5  0.5029243E-008  0.2724662E+04  0.7818608E-02  0.8327047E-01
          1   -1    0    0  501    0  0.00000000000E+00  0.00000000000E+00  0.56766232657E+03  0.56766232657E+03  0.00000000000E+00 0. -1.
         -2   -1    0    0    0  501 -0.00000000000E+00 -0.00000000000E+00 -0.32694528902E+04  0.32694528902E+04  0.00000000000E+00 0.  1.
        -24    2    1    2    0    0 -0.32134140301E+03  0.10732948670E+04 -0.18524955832E+04  0.21664326271E+04  0.80425577373E+02 0.  0.
        254    2    1    2    0    0  0.32134140301E+03 -0.10732948670E+04 -0.84929498050E+03  0.16706825897E+04  0.90258306146E+03 0.  0.
         23    2    4    4    0    0 -0.22941487259E+03 -0.25705994911E+03  0.15098926546E+02  0.35725371344E+03  0.93226804002E+02 0.  0.
         23    2    4    4    0    0  0.55075627559E+03 -0.81623491785E+03 -0.86439390705E+03  0.13134288762E+04  0.91360112634E+02 0.  0.
          1    1    3    3  502    0 -0.14393212259E+03  0.43891845432E+03 -0.69157129865E+03  0.83164699637E+03  0.00000000000E+00 0. -1.
         -2    1    3    3    0  502 -0.17740928042E+03  0.63437641265E+03 -0.11609242845E+04  0.13347856308E+04  0.00000000000E+00 0.  1.
         13    1    5    5    0    0 -0.19460346882E+03 -0.24534428678E+03  0.35633890380E+02  0.31517313223E+03  0.00000000000E+00 0. -1.
        -13    1    5    5    0    0 -0.34811403766E+02 -0.11715662333E+02 -0.20534963834E+02  0.42080581219E+02  0.00000000000E+00 0.  1.
          1    1    6    6  503    0  0.45241770561E+03 -0.62413638075E+03 -0.63775998727E+03  0.10004827852E+04  0.00000000000E+00 0. -1.
         -1    1    6    6    0  503  0.98338569985E+02 -0.19209853711E+03 -0.22663391978E+03  0.31294609104E+03  0.00000000000E+00 0.  1.
<mgrwt>
<rscale>  0 0.27246616E+04</rscale>
<asrwt>0</asrwt>
<pdfrwt beam="1">  1        1 0.87332666E-01 0.27246616E+04</pdfrwt>
<pdfrwt beam="2">  1       -2 0.50299275E+00 0.27246616E+04</pdfrwt>
<totfact> 0.44595736E-02</totfact>
</mgrwt>
</event>
<event>
12    5  0.5029243E-008  0.1304577E+04  0.7818608E-02  0.9025944E-01
          1   -1    0    0  501    0  0.00000000000E+00  0.00000000000E+00  0.13532299087E+04  0.13532299087E+04  0.00000000000E+00 0. -1.
         -2   -1    0    0    0  501 -0.00000000000E+00 -0.00000000000E+00 -0.31441826816E+03  0.31441826816E+03  0.00000000000E+00 0.  1.
        -24    2    1    2    0    0  0.10184811262E+03  0.36382528781E+02 -0.13065537603E+03  0.18824380274E+03  0.81658897498E+02 0.  0.
        254    2    1    2    0    0 -0.10184811262E+03 -0.36382528781E+02  0.11694670165E+04  0.14794043741E+04  0.89960406449E+03 0.  0.
         23    2    4    4    0    0  0.16538234093E+02 -0.27080344513E+03  0.88898513482E+01  0.28599003427E+03  0.90018060216E+02 0.  0.
         23    2    4    4    0    0 -0.11838634671E+03  0.23442091635E+03  0.11605771652E+04  0.11934143398E+04  0.91268488529E+02 0.  0.
          3    1    3    3  502    0  0.23733843171E+02  0.28880302708E+02 -0.94921921625E+02  0.10201734363E+03  0.00000000000E+00 0. -1.
         -4    1    3    3    0  502  0.78114269449E+02  0.75022260725E+01 -0.35733454408E+02  0.86226459115E+02  0.00000000000E+00 0.  1.
         13    1    5    5    0    0 -0.50523177009E+01  0.13463232208E+01 -0.11084140820E+02  0.12255475433E+02  0.00000000000E+00 0. -1.
        -13    1    5    5    0    0  0.21590551793E+02 -0.27214976835E+03  0.19973992168E+02  0.27373455884E+03  0.00000000000E+00 0.  1.
          1    1    6    6  503    0 -0.28851843053E+02  0.89181788847E+01  0.71099522325E+02  0.77247037723E+02  0.00000000000E+00 0. -1.
         -1    1    6    6    0  503 -0.89534503660E+02  0.22550273746E+03  0.10894776429E+04  0.11161673021E+04  0.00000000000E+00 0.  1.
<mgrwt>
<rscale>  0 0.13045769E+04</rscale>
<asrwt>0</asrwt>
<pdfrwt beam="1">  1        1 0.20818921E+00 0.13045769E+04</pdfrwt>
<pdfrwt beam="2">  1       -2 0.48372042E-01 0.13045769E+04</pdfrwt>
<totfact> 0.28911736E+01</totfact>
</mgrwt>
</event>
<event>
12    5  0.5029243E-008  0.1363361E+04  0.7818608E-02  0.8980775E-01
          3   -1    0    0  501    0  0.00000000000E+00  0.00000000000E+00  0.14423865653E+04  0.14423865653E+04  0.00000000000E+00 0. -1.
         -4   -1    0    0    0  501 -0.00000000000E+00 -0.00000000000E+00 -0.32216613161E+03  0.32216613161E+03  0.00000000000E+00 0.  1.
        -24    2    1    2    0    0  0.26170377804E+03 -0.17255319831E+03  0.58089331096E+03  0.66482798556E+03  0.79345686532E+02 0.  0.
        254    2    1    2    0    0 -0.26170377804E+03  0.17255319831E+03  0.53932712269E+03  0.10997247113E+04  0.90568052962E+03 0.  0.
         23    2    4    4    0    0  0.25070190018E+03  0.31600848850E+03  0.17340389436E+03  0.44752113954E+03  0.86564728347E+02 0.  0.
         23    2    4    4    0    0 -0.51240567822E+03 -0.14345529020E+03  0.36592322833E+03  0.65220357178E+03  0.91272617256E+02 0.  0.
          1    1    3    3  502    0  0.26127116257E+03 -0.16266160218E+03  0.57744699143E+03  0.65434428638E+03  0.00000000000E+00 0. -1.
         -2    1    3    3    0  502  0.43261547488E+00 -0.98915961218E+01  0.34463195328E+01  0.10483699171E+02  0.00000000000E+00 0.  1.
         13    1    5    5    0    0  0.21652077994E+03  0.29559025675E+03  0.13041136944E+03  0.38892412282E+03  0.00000000000E+00 0. -1.
        -13    1    5    5    0    0  0.34181120231E+02  0.20418231749E+02  0.42992524928E+02  0.58597016713E+02  0.00000000000E+00 0.  1.
          3    1    6    6  503    0 -0.28256418796E+03 -0.12263636320E+03  0.22937292500E+03  0.38404965385E+03  0.00000000000E+00 0. -1.
         -3    1    6    6    0  503 -0.22984149026E+03 -0.20818926994E+02  0.13655030333E+03  0.26815391793E+03  0.00000000000E+00 0.  1.
<mgrwt>
<rscale>  0 0.13633607E+04</rscale>
<asrwt>0</asrwt>
<pdfrwt beam="1">  1        3 0.22190562E+00 0.13633607E+04</pdfrwt>
<pdfrwt beam="2">  1       -4 0.49564021E-01 0.13633607E+04</pdfrwt>
<totfact> 0.95088824E-01</totfact>
</mgrwt>
</event>
<event>
12    5  0.5029243E-008  0.1375185E+04  0.7818608E-02  0.8971979E-01
          1   -1    0    0  501    0  0.00000000000E+00  0.00000000000E+00  0.11914426974E+04  0.11914426974E+04  0.00000000000E+00 0. -1.
         -2   -1    0    0    0  501 -0.00000000000E+00 -0.00000000000E+00 -0.39681613662E+03  0.39681613662E+03  0.00000000000E+00 0.  1.
        -24    2    1    2    0    0 -0.11103650429E+03  0.27379618667E+03  0.51068172084E+03  0.59538498865E+03  0.79962538675E+02 0.  0.
        254    2    1    2    0    0  0.11103650429E+03 -0.27379618667E+03  0.28394483996E+03  0.99287384539E+03  0.90436737204E+03 0.  0.
         23    2    4    4    0    0 -0.16661946473E+03  0.22903969503E+03 -0.74608525513E+02  0.30955751876E+03  0.10019080503E+03 0.  0.
         23    2    4    4    0    0  0.27765596901E+03 -0.50283588170E+03  0.35855336547E+03  0.68331632664E+03  0.91781944316E+02 0.  0.
          3    1    3    3  502    0 -0.86104139415E+02  0.17391123225E+03  0.39778352041E+03  0.44259549098E+03  0.00000000000E+00 0. -1.
         -4    1    3    3    0  502 -0.24932364872E+02  0.99884954421E+02  0.11289820043E+03  0.15278949767E+03  0.00000000000E+00 0.  1.
         13    1    5    5    0    0 -0.44156921786E+02  0.72945406705E+02  0.23184879930E+02  0.88365178426E+02  0.00000000000E+00 0.  1.
        -13    1    5    5    0    0 -0.12246254294E+03  0.15609428833E+03 -0.97793405443E+02  0.22119234033E+03  0.00000000000E+00 0. -1.
          2    1    6    6  503    0  0.47654815634E+02 -0.14775793989E+03  0.64598079060E+02  0.16815558888E+03  0.00000000000E+00 0. -1.
         -2    1    6    6    0  503  0.23000115338E+03 -0.35507794181E+03  0.29395528641E+03  0.51516073776E+03  0.00000000000E+00 0.  1.
<mgrwt>
<rscale>  0 0.13751854E+04</rscale>
<asrwt>0</asrwt>
<pdfrwt beam="1">  1        1 0.18329887E+00 0.13751854E+04</pdfrwt>
<pdfrwt beam="2">  1       -2 0.61048637E-01 0.13751854E+04</pdfrwt>
<totfact> 0.23189072E+01</totfact>
</mgrwt>
</event>
<event>
12    5  0.5029243E-008  0.2263165E+04  0.7818608E-02  0.8492588E-01
         -2   -1    0    0    0  501 -0.00000000000E+00  0.00000000000E+00  0.14047743509E+04  0.14047743509E+04  0.00000000000E+00 0.  1.
          1   -1    0    0  501    0  0.00000000000E+00 -0.00000000000E+00 -0.91151938156E+03  0.91151938156E+03  0.00000000000E+00 0. -1.
        -24    2    1    2    0    0  0.60866880799E+03 -0.60542237779E+02  0.94821268649E+03  0.11312296612E+04  0.80188323869E+02 0.  0.
        254    2    1    2    0    0 -0.60866880799E+03  0.60542237779E+02 -0.45495771719E+03  0.11850640712E+04  0.90732973499E+03 0.  0.
         23    2    4    4    0    0 -0.10783430638E+03 -0.23490540690E+03  0.17055459969E+03  0.32629932094E+03  0.10282795121E+03 0.  0.
         23    2    4    4    0    0 -0.50083450162E+03  0.29544764468E+03 -0.62551231688E+03  0.85876475024E+03  0.89926241663E+02 0.  0.
          3    1    3    3  502    0  0.13260287256E+03 -0.18366171065E+01  0.15226844679E+03  0.20192220002E+03  0.00000000000E+00 0. -1.
         -4    1    3    3    0  502  0.47606593544E+03 -0.58705620673E+02  0.79594423970E+03  0.92930746123E+03  0.00000000000E+00 0.  1.
         13    1    5    5    0    0 -0.11397163463E+03 -0.13076099279E+03  0.98044234767E+02  0.19925020127E+03  0.00000000000E+00 0. -1.
        -13    1    5    5    0    0  0.61373282521E+01 -0.10414441411E+03  0.72510364922E+02  0.12704911967E+03  0.00000000000E+00 0.  1.
          1    1    6    6  503    0 -0.19832923531E+03  0.16874192921E+03 -0.28098075972E+03  0.38309073544E+03  0.00000000000E+00 0. -1.
         -1    1    6    6    0  503 -0.30250526631E+03  0.12670571547E+03 -0.34453155716E+03  0.47567401480E+03  0.00000000000E+00 0.  1.
<mgrwt>
<rscale>  0 0.22631651E+04</rscale>
<asrwt>0</asrwt>
<pdfrwt beam="1">  1        1 0.14023375E+00 0.22631651E+04</pdfrwt>
<pdfrwt beam="2">  1       -2 0.21611913E+00 0.22631651E+04</pdfrwt>
<totfact> 0.14804017E+00</totfact>
</mgrwt>
</event>
<event>
12    5  0.5029243E-008  0.1648401E+04  0.7818608E-02  0.8791353E-01
         -4   -1    0    0    0  501 -0.00000000000E+00  0.00000000000E+00  0.16563570903E+04  0.16563570903E+04  0.00000000000E+00 0.  1.
          1   -1    0    0  501    0  0.00000000000E+00 -0.00000000000E+00 -0.41012095514E+03  0.41012095514E+03  0.00000000000E+00 0. -1.
        -24    2    1    2    0    0 -0.43590770409E+03 -0.43331944012E+02  0.92033932113E+03  0.10224606542E+04  0.80673041362E+02 0.  0.
        254    2    1    2    0    0  0.43590770409E+03  0.43331944012E+02  0.32589681408E+03  0.10440173912E+04  0.88987099959E+03 0.  0.
         23    2    4    4    0    0  0.30251074576E+03 -0.40483160847E+03  0.13477026815E+03  0.53106166388E+03  0.91989581743E+02 0.  0.
         23    2    4    4    0    0  0.13339695833E+03  0.44816355248E+03  0.19112654593E+03  0.51295572736E+03  0.89156622871E+02 0.  0.
          1    1    3    3  502    0 -0.15368957439E+03 -0.20937944995E+02  0.41781210460E+03  0.44567458707E+03  0.00000000000E+00 0. -1.
         -2    1    3    3    0  502 -0.28221812971E+03 -0.22393999017E+02  0.50252721653E+03  0.57678606717E+03  0.00000000000E+00 0.  1.
         13    1    5    5    0    0  0.24119351183E+03 -0.35264428609E+03  0.82687105995E+02  0.43516601448E+03  0.00000000000E+00 0. -1.
        -13    1    5    5    0    0  0.61317233935E+02 -0.52187322384E+02  0.52083162152E+02  0.95895649405E+02  0.00000000000E+00 0.  1.
          4    1    6    6  503    0  0.14096192503E+03  0.41627688310E+03  0.15987484573E+03  0.46767154501E+03  0.00000000000E+00 0. -1.
         -4    1    6    6    0  503 -0.75649667032E+01  0.31886669381E+02  0.31251700199E+02  0.45284182346E+02  0.00000000000E+00 0.  1.
<mgrwt>
<rscale>  0 0.16484013E+04</rscale>
<asrwt>0</asrwt>
<pdfrwt beam="1">  1        1 0.63095532E-01 0.16484013E+04</pdfrwt>
<pdfrwt beam="2">  1       -4 0.25482416E+00 0.16484013E+04</pdfrwt>
<totfact> 0.15574806E+00</totfact>
</mgrwt>
</event>
<event>
12    5  0.5029243E-008  0.1643135E+04  0.7818608E-02  0.8794478E-01
         -2   -1    0    0    0  501 -0.00000000000E+00  0.00000000000E+00  0.12023156185E+04  0.12023156185E+04  0.00000000000E+00 0.  1.
          1   -1    0    0  501    0  0.00000000000E+00 -0.00000000000E+00 -0.56139398086E+03  0.56139398086E+03  0.00000000000E+00 0. -1.
        -24    2    1    2    0    0  0.29195664053E+02  0.22294378483E+03  0.73762171803E+03  0.77537114922E+03  0.80983344744E+02 0.  0.
        254    2    1    2    0    0 -0.29195664053E+02 -0.22294378483E+03 -0.96700080380E+02  0.98833845015E+03  0.95755191426E+03 0.  0.
         23    2    4    4    0    0  0.18555473959E+03  0.31772645677E+03  0.46338403451E+02  0.38227935275E+03  0.92787893565E+02 0.  0.
         23    2    4    4    0    0 -0.21475040364E+03 -0.54067024160E+03 -0.14303848383E+03  0.60605909739E+03  0.91681926574E+02 0.  0.
          3    1    3    3  502    0  0.74429168275E+01  0.86999382671E+02  0.16786204039E+03  0.18921404335E+03  0.00000000000E+00 0. -1.
         -4    1    3    3    0  502  0.21752747226E+02  0.13594440216E+03  0.56975967764E+03  0.58615710587E+03  0.00000000000E+00 0.  1.
         13    1    5    5    0    0  0.49167991377E+01  0.54996439276E+02  0.30429566983E+02  0.63045553321E+02  0.00000000000E+00 0. -1.
        -13    1    5    5    0    0  0.18063794045E+03  0.26273001749E+03  0.15908836469E+02  0.31923379943E+03  0.00000000000E+00 0.  1.
          4    1    6    6  503    0 -0.30567943809E+02 -0.40311194546E+02  0.95265528935E+01  0.51479576576E+02  0.00000000000E+00 0. -1.
         -4    1    6    6    0  503 -0.18418245983E+03 -0.50035904706E+03 -0.15256503673E+03  0.55457952082E+03  0.00000000000E+00 0.  1.
<mgrwt>
<rscale>  0 0.16431345E+04</rscale>
<asrwt>0</asrwt>
<pdfrwt beam="1">  1        1 0.86368305E-01 0.16431345E+04</pdfrwt>
<pdfrwt beam="2">  1       -2 0.18497163E+00 0.16431345E+04</pdfrwt>
<totfact> 0.52795101E+00</totfact>
</mgrwt>
</event>
<event>
12    5  0.5029243E-008  0.1105836E+04  0.7818608E-02  0.9199522E-01
          1   -1    0    0  501    0  0.00000000000E+00  0.00000000000E+00  0.14433993802E+04  0.14433993802E+04  0.00000000000E+00 0. -1.
         -4   -1    0    0    0  501 -0.00000000000E+00 -0.00000000000E+00 -0.21180448414E+03  0.21180448414E+03  0.00000000000E+00 0.  1.
        -24    2    1    2    0    0  0.15660015425E+02 -0.48715358022E+02 -0.38412493699E+02  0.98387309618E+02  0.74740356110E+02 0.  0.
        254    2    1    2    0    0 -0.15660015425E+02  0.48715358022E+02  0.12700073898E+04  0.15568165547E+04  0.89896640250E+03 0.  0.
         23    2    4    4    0    0 -0.19382663645E+03 -0.30764192328E+03  0.23175812533E+03  0.44095180016E+03  0.92273200069E+02 0.  0.
         23    2    4    4    0    0  0.17816662102E+03  0.35635728130E+03  0.10382492644E+04  0.11158647546E+04  0.91971509754E+02 0.  0.
          1    1    3    3  502    0  0.17873598514E+02  0.20952649594E+01 -0.43694135811E+02  0.47254980303E+02  0.00000000000E+00 0. -1.
         -2    1    3    3    0  502 -0.22135830894E+01 -0.50810622981E+02  0.52816421122E+01  0.51132329315E+02  0.00000000000E+00 0.  1.
         13    1    5    5    0    0 -0.15304577003E+03 -0.21826018327E+03  0.12055037922E+03  0.29256265868E+03  0.00000000000E+00 0.  1.
        -13    1    5    5    0    0 -0.40780866422E+02 -0.89381740008E+02  0.11120774612E+03  0.14838914148E+03  0.00000000000E+00 0. -1.
          3    1    6    6  503    0  0.10497711697E+02  0.54674667734E+02  0.80953111416E+02  0.98249312927E+02  0.00000000000E+00 0. -1.
         -3    1    6    6    0  503  0.16766890933E+03  0.30168261357E+03  0.95729615301E+03  0.10176154416E+04  0.00000000000E+00 0.  1.
<mgrwt>
<rscale>  0 0.11058363E+04</rscale>
<asrwt>0</asrwt>
<pdfrwt beam="1">  1        1 0.22206144E+00 0.11058363E+04</pdfrwt>
<pdfrwt beam="2">  1       -4 0.32585306E-01 0.11058363E+04</pdfrwt>
<totfact> 0.32214267E+01</totfact>
</mgrwt>
</event>
<event>
12    5  0.5029243E-008  0.2157734E+04  0.7818608E-02  0.8536229E-01
         -2   -1    0    0    0  501 -0.00000000000E+00  0.00000000000E+00  0.58627609412E+03  0.58627609412E+03  0.00000000000E+00 0.  1.
          1   -1    0    0  501    0  0.00000000000E+00 -0.00000000000E+00 -0.19853347311E+04  0.19853347311E+04  0.00000000000E+00 0. -1.
        -24    2    1    2    0    0 -0.39021442056E+03 -0.49413587199E+03  0.16956294072E+03  0.65712732537E+03  0.81407474353E+02 0.  0.
        254    2    1    2    0    0  0.39021442056E+03  0.49413587199E+03 -0.15686215777E+04  0.19144834999E+04  0.89901938977E+03 0.  0.
         23    2    4    4    0    0 -0.10080831112E+03  0.57609267040E+03 -0.85555368805E+03  0.10400384398E+04  0.87537207579E+02 0.  0.
         23    2    4    4    0    0  0.49102273167E+03 -0.81956798405E+02 -0.71306788966E+03  0.87444506003E+03  0.91477362921E+02 0.  0.
          3    1    3    3  502    0 -0.30736969085E+03 -0.33123308416E+03  0.11252333789E+03  0.46567476254E+03  0.00000000000E+00 0. -1.
         -2    1    3    3    0  502 -0.82844729712E+02 -0.16290278783E+03  0.57039602832E+02  0.19145256283E+03  0.00000000000E+00 0.  1.
         13    1    5    5    0    0 -0.10136876161E+03  0.57928420440E+03 -0.84999039153E+03  0.10336002520E+04  0.00000000000E+00 0.  1.
        -13    1    5    5    0    0  0.56045049905E+00 -0.31915339984E+01 -0.55632965226E+01  0.64381878058E+01  0.00000000000E+00 0. -1.
          3    1    6    6  503    0  0.22831107188E+03 -0.45882224137E+02 -0.25640716229E+03  0.34637516786E+03  0.00000000000E+00 0. -1.
         -3    1    6    6    0  503  0.26271165979E+03 -0.36074574268E+02 -0.45666072737E+03  0.52806989217E+03  0.00000000000E+00 0.  1.
<mgrwt>
<rscale>  0 0.21577343E+04</rscale>
<asrwt>0</asrwt>
<pdfrwt beam="1">  1        1 0.30543611E+00 0.21577343E+04</pdfrwt>
<pdfrwt beam="2">  1       -2 0.90196322E-01 0.21577343E+04</pdfrwt>
<totfact> 0.25769032E+00</totfact>
</mgrwt>
</event>
<event>
12    5  0.5029243E-008  0.1879020E+04  0.7818608E-02  0.8665370E-01
         -2   -1    0    0    0  501 -0.00000000000E+00  0.00000000000E+00  0.11725095574E+04  0.11725095574E+04  0.00000000000E+00 0.  1.
          1   -1    0    0  501    0  0.00000000000E+00 -0.00000000000E+00 -0.75281210093E+03  0.75281210093E+03  0.00000000000E+00 0. -1.
        -24    2    1    2    0    0 -0.21876880552E+03  0.48523485308E+03 -0.32642830841E+03  0.62949309899E+03  0.79959165997E+02 0.  0.
        254    2    1    2    0    0  0.21876880552E+03 -0.48523485308E+03  0.74612576493E+03  0.12958285594E+04  0.91605422618E+03 0.  0.
         23    2    4    4    0    0 -0.35112598505E+02  0.22265044364E+03  0.38866823608E+03  0.45814000001E+03  0.89572022673E+02 0.  0.
         23    2    4    4    0    0  0.25388140403E+03 -0.70788529672E+03  0.35745752886E+03  0.83768855938E+03  0.91590812609E+02 0.  0.
          1    1    3    3  502    0 -0.19665624708E+03  0.45644656730E+03 -0.27964877580E+03  0.57028114656E+03  0.00000000000E+00 0. -1.
         -2    1    3    3    0  502 -0.22112558441E+02  0.28788285781E+02 -0.46779532609E+02  0.59211952427E+02  0.00000000000E+00 0.  1.
         13    1    5    5    0    0  0.25809165781E+02  0.12348565728E+03  0.20008382412E+03  0.23653405097E+03  0.00000000000E+00 0. -1.
        -13    1    5    5    0    0 -0.60921764285E+02  0.99164786354E+02  0.18858441196E+03  0.22160594904E+03  0.00000000000E+00 0.  1.
          4    1    6    6  503    0  0.48536919234E+02 -0.71275408053E+02  0.20192652587E+02  0.88565001780E+02  0.00000000000E+00 0. -1.
         -4    1    6    6    0  503  0.20534448479E+03 -0.63660988867E+03  0.33726487627E+03  0.74912355760E+03  0.00000000000E+00 0.  1.
<mgrwt>
<rscale>  0 0.18790204E+04</rscale>
<asrwt>0</asrwt>
<pdfrwt beam="1">  1        1 0.11581725E+00 0.18790204E+04</pdfrwt>
<pdfrwt beam="2">  1       -2 0.18038609E+00 0.18790204E+04</pdfrwt>
<totfact> 0.36007603E+00</totfact>
</mgrwt>
</event>
<event>
12    5  0.5029243E-008  0.2202007E+04  0.7818608E-02  0.8517593E-01
         -2   -1    0    0    0  501 -0.00000000000E+00  0.00000000000E+00  0.11638631231E+04  0.11638631231E+04  0.00000000000E+00 0.  1.
          1   -1    0    0  501    0  0.00000000000E+00 -0.00000000000E+00 -0.10415388989E+04  0.10415388989E+04  0.00000000000E+00 0. -1.
        -24    2    1    2    0    0 -0.70106649602E+03  0.49935841202E+03  0.35600222211E+03  0.93483074410E+03  0.79485108444E+02 0.  0.
        254    2    1    2    0    0  0.70106649602E+03 -0.49935841202E+03 -0.23367799787E+03  0.12705712779E+04  0.90492701917E+03 0.  0.
         23    2    4    4    0    0  0.39807640801E+03 -0.37600796925E+03 -0.56829401017E+03  0.79396854036E+03  0.87069750902E+02 0.  0.
         23    2    4    4    0    0  0.30299008801E+03 -0.12335044277E+03  0.33461601230E+03  0.47660273753E+03  0.90354682082E+02 0.  0.
          3    1    3    3  502    0 -0.53963497423E+03  0.36493517774E+03  0.30132618944E+03  0.71776114538E+03  0.00000000000E+00 0. -1.
         -4    1    3    3    0  502 -0.16143152179E+03  0.13442323428E+03  0.54676032668E+02  0.21706959872E+03  0.00000000000E+00 0.  1.
         13    1    5    5    0    0  0.12298991515E+03 -0.14696814316E+03 -0.14960043271E+03  0.24311816839E+03  0.00000000000E+00 0.  1.
        -13    1    5    5    0    0  0.27508649286E+03 -0.22903982609E+03 -0.41869357746E+03  0.55085037196E+03  0.00000000000E+00 0. -1.
          4    1    6    6  503    0  0.16860356928E+03 -0.35559853952E+02  0.12643923808E+03  0.21372540260E+03  0.00000000000E+00 0.  1.
         -4    1    6    6    0  503  0.13438651873E+03 -0.87790588816E+02  0.20817677422E+03  0.26287733494E+03  0.00000000000E+00 0. -1.
<mgrwt>
<rscale>  0 0.22020070E+04</rscale>
<asrwt>0</asrwt>
<pdfrwt beam="1">  1        1 0.16023675E+00 0.22020070E+04</pdfrwt>
<pdfrwt beam="2">  1       -2 0.17905586E+00 0.22020070E+04</pdfrwt>
<totfact> 0.20668339E+00</totfact>
</mgrwt>
</event>
<event>
12    5  0.5029243E-008  0.2601573E+04  0.7818608E-02  0.8367667E-01
         -2   -1    0    0    0  501 -0.00000000000E+00  0.00000000000E+00  0.10125482998E+04  0.10125482998E+04  0.00000000000E+00 0.  1.
          1   -1    0    0  501    0  0.00000000000E+00 -0.00000000000E+00 -0.16710766296E+04  0.16710766296E+04  0.00000000000E+00 0. -1.
        -24    2    1    2    0    0  0.72612129241E+03  0.63334551833E+02  0.61894895655E+03  0.95966649527E+03  0.81231610710E+02 0.  0.
        254    2    1    2    0    0 -0.72612129241E+03 -0.63334551833E+02 -0.12774772863E+04  0.17239584341E+04  0.89934479970E+03 0.  0.
         23    2    4    4    0    0 -0.63069884690E+03  0.34272561465E+03 -0.70864176767E+03  0.10128187555E+04  0.91579441657E+02 0.  0.
         23    2    4    4    0    0 -0.95422445516E+02 -0.40606016648E+03 -0.56883551863E+03  0.71113967863E+03  0.90307770157E+02 0.  0.
          1    1    3    3  502    0  0.37140796322E+03  0.72754518887E+02  0.32677022441E+03  0.50001587447E+03  0.00000000000E+00 0. -1.
         -2    1    3    3    0  502  0.35471332919E+03 -0.94199670548E+01  0.29217873215E+03  0.45965062080E+03  0.00000000000E+00 0.  1.
         13    1    5    5    0    0 -0.40383777288E+03  0.17955069886E+03 -0.39503634973E+03  0.59277071274E+03  0.00000000000E+00 0. -1.
        -13    1    5    5    0    0 -0.22686107401E+03  0.16317491579E+03 -0.31360541794E+03  0.42004804273E+03  0.00000000000E+00 0.  1.
          2    1    6    6  503    0 -0.39693476438E+02 -0.31110273629E+03 -0.45642236831E+03  0.55378864460E+03  0.00000000000E+00 0. -1.
         -2    1    6    6    0  503 -0.55728969078E+02 -0.94957430192E+02 -0.11241315032E+03  0.15735103402E+03  0.00000000000E+00 0.  1.
<mgrwt>
<rscale>  0 0.26015732E+04</rscale>
<asrwt>0</asrwt>
<pdfrwt beam="1">  1        1 0.25708871E+00 0.26015732E+04</pdfrwt>
<pdfrwt beam="2">  1       -2 0.15577666E+00 0.26015732E+04</pdfrwt>
<totfact> 0.10451126E+00</totfact>
</mgrwt>
</event>
<event>
12    5  0.5029243E-008  0.1771346E+04  0.7818608E-02  0.8721688E-01
         -2   -1    0    0    0  501 -0.00000000000E+00  0.00000000000E+00  0.49081641180E+03  0.49081641180E+03  0.00000000000E+00 0.  1.
          1   -1    0    0  501    0  0.00000000000E+00 -0.00000000000E+00 -0.15981869214E+04  0.15981869214E+04  0.00000000000E+00 0. -1.
        -24    2    1    2    0    0  0.11863727663E+03  0.63166730789E+03 -0.41476908260E+03  0.76904642584E+03  0.79502339297E+02 0.  0.
        254    2    1    2    0    0 -0.11863727663E+03 -0.63166730789E+03 -0.69260142698E+03  0.13199569073E+04  0.92168926939E+03 0.  0.
         23    2    4    4    0    0 -0.34012404859E+03 -0.73400206402E+02  0.46664594399E+02  0.36292213622E+03  0.91994205568E+02 0.  0.
         23    2    4    4    0    0  0.22148677196E+03 -0.55826710148E+03 -0.73926602138E+03  0.95703477112E+03  0.93181307219E+02 0.  0.
          1    1    3    3  502    0  0.10720259125E+03  0.40310289379E+03 -0.24130706981E+03  0.48188529807E+03  0.00000000000E+00 0. -1.
         -2    1    3    3    0  502  0.11434685376E+02  0.22856441409E+03 -0.17346201279E+03  0.28716112777E+03  0.00000000000E+00 0.  1.
         13    1    5    5    0    0 -0.69239759179E+01  0.13630866045E+02  0.47074079061E+01  0.15996925981E+02  0.00000000000E+00 0. -1.
        -13    1    5    5    0    0 -0.33320007267E+03 -0.87031072447E+02  0.41957186493E+02  0.34692521023E+03  0.00000000000E+00 0.  1.
          1    1    6    6  503    0 -0.46257036972E+01 -0.63208213228E+02 -0.83859876610E+02  0.10511495735E+03  0.00000000000E+00 0. -1.
         -1    1    6    6    0  503  0.22611247566E+03 -0.49505888826E+03 -0.65540614477E+03  0.85191981377E+03  0.00000000000E+00 0.  1.
<mgrwt>
<rscale>  0 0.17713457E+04</rscale>
<asrwt>0</asrwt>
<pdfrwt beam="1">  1        1 0.24587491E+00 0.17713457E+04</pdfrwt>
<pdfrwt beam="2">  1       -2 0.75510217E-01 0.17713457E+04</pdfrwt>
<totfact> 0.73076339E+00</totfact>
</mgrwt>
</event>
<event>
12    5  0.5029243E-008  0.1626272E+04  0.7818608E-02  0.8804568E-01
          1   -1    0    0  501    0  0.00000000000E+00  0.00000000000E+00  0.12862817192E+04  0.12862817192E+04  0.00000000000E+00 0. -1.
         -2   -1    0    0    0  501 -0.00000000000E+00 -0.00000000000E+00 -0.51403246280E+03  0.51403246280E+03  0.00000000000E+00 0.  1.
        -24    2    1    2    0    0  0.29847239463E+02  0.41869125814E+03 -0.14075858723E+03  0.45215737520E+03  0.91869933729E+02 0.  0.
        254    2    1    2    0    0 -0.29847239463E+02 -0.41869125814E+03  0.91300784361E+03  0.13481568068E+04  0.89874925639E+03 0.  0.
         23    2    4    4    0    0  0.12795039643E+03 -0.24281911397E+03  0.10294930797E+04  0.10693116408E+04  0.90768705575E+02 0.  0.
         23    2    4    4    0    0 -0.15779763589E+03 -0.17587214416E+03 -0.11648523611E+03  0.27884516599E+03  0.91404110293E+02 0.  0.
          3    1    3    3  502    0 -0.43246200924E+01  0.25819761528E+03 -0.44869319390E+02  0.26210296964E+03  0.00000000000E+00 0. -1.
         -4    1    3    3    0  502  0.34171859555E+02  0.16049364286E+03 -0.95889267838E+02  0.19005440555E+03  0.00000000000E+00 0.  1.
         13    1    5    5    0    0  0.13440017893E+02 -0.20270077551E+02  0.28325107217E+02  0.37333923230E+02  0.00000000000E+00 0.  1.
        -13    1    5    5    0    0  0.11451037853E+03 -0.22254903642E+03  0.10011679725E+04  0.10319777176E+04  0.00000000000E+00 0. -1.
          3    1    6    6  503    0 -0.11041355143E+03 -0.14867175414E+03 -0.48134006697E+02  0.19134086187E+03  0.00000000000E+00 0. -1.
         -3    1    6    6    0  503 -0.47384084463E+02 -0.27200390018E+02 -0.68351229413E+02  0.87504304121E+02  0.00000000000E+00 0.  1.
<mgrwt>
<rscale>  0 0.16262725E+04</rscale>
<asrwt>0</asrwt>
<pdfrwt beam="1">  1        1 0.19788949E+00 0.16262725E+04</pdfrwt>
<pdfrwt beam="2">  1       -2 0.79081918E-01 0.16262725E+04</pdfrwt>
<totfact> 0.11024815E+01</totfact>
</mgrwt>
</event>
<event>
12    5  0.5029243E-008  0.1434356E+04  0.7818608E-02  0.8929319E-01
          1   -1    0    0  501    0  0.00000000000E+00  0.00000000000E+00  0.58459438289E+03  0.58459438289E+03  0.00000000000E+00 0. -1.
         -2   -1    0    0    0  501 -0.00000000000E+00 -0.00000000000E+00 -0.87983109194E+03  0.87983109194E+03  0.00000000000E+00 0.  1.
        -24    2    1    2    0    0  0.26751279403E+03  0.30529367313E+03  0.56090552730E+02  0.41758596380E+03  0.80402520049E+02 0.  0.
        254    2    1    2    0    0 -0.26751279403E+03 -0.30529367313E+03 -0.35132726177E+03  0.10468395110E+04  0.89870729116E+03 0.  0.
         23    2    4    4    0    0 -0.50928086470E+03 -0.28079262639E+03 -0.47787457426E+03  0.75799816135E+03  0.89362216244E+02 0.  0.
         23    2    4    4    0    0  0.24176807067E+03 -0.24501046738E+02  0.12654731248E+03  0.28884134969E+03  0.91449448914E+02 0.  0.
          1    1    3    3  502    0  0.12881589520E+03  0.20654496058E+03  0.37962348195E+02  0.24636455808E+03  0.00000000000E+00 0. -1.
         -2    1    3    3    0  502  0.13869689883E+03  0.98748712550E+02  0.18128204535E+02  0.17122140572E+03  0.00000000000E+00 0.  1.
         13    1    5    5    0    0 -0.47143237604E+03 -0.28354969929E+03 -0.45279079768E+03  0.71250854283E+03  0.00000000000E+00 0.  1.
        -13    1    5    5    0    0 -0.37848488660E+02  0.27570728986E+01 -0.25083776581E+02  0.45489618513E+02  0.00000000000E+00 0. -1.
          3    1    6    6  503    0  0.26054467489E+02  0.13380242703E+01 -0.14468947630E+02  0.29832466050E+02  0.00000000000E+00 0. -1.
         -3    1    6    6    0  503  0.21571360318E+03 -0.25839071009E+02  0.14101626011E+03  0.25900888364E+03  0.00000000000E+00 0.  1.
<mgrwt>
<rscale>  0 0.14343560E+04</rscale>
<asrwt>0</asrwt>
<pdfrwt beam="1">  1        1 0.89937597E-01 0.14343560E+04</pdfrwt>
<pdfrwt beam="2">  1       -2 0.13535863E+00 0.14343560E+04</pdfrwt>
<totfact> 0.11849608E+01</totfact>
</mgrwt>
</event>
<event>
12    5  0.5029243E-008  0.1980637E+04  0.7818608E-02  0.8615727E-01
         -2   -1    0    0    0  501 -0.00000000000E+00  0.00000000000E+00  0.10174125700E+04  0.10174125700E+04  0.00000000000E+00 0.  1.
          1   -1    0    0  501    0  0.00000000000E+00 -0.00000000000E+00 -0.96394626327E+03  0.96394626327E+03  0.00000000000E+00 0. -1.
        -24    2    1    2    0    0  0.47338405578E+01  0.15041714739E+03  0.78386725653E+03  0.80210869091E+03  0.79263791776E+02 0.  0.
        254    2    1    2    0    0 -0.47338405578E+01 -0.15041714739E+03 -0.73040094984E+03  0.11792501423E+04  0.91350841439E+03 0.  0.
         23    2    4    4    0    0  0.92239744328E+02 -0.43833994024E+03 -0.73049658901E+03  0.86163097513E+03  0.90180913210E+02 0.  0.
         23    2    4    4    0    0 -0.96973584886E+02  0.28792279285E+03  0.95639167672E-01  0.31761916719E+03  0.92620275351E+02 0.  0.
          1    1    3    3  502    0 -0.20527780129E+02  0.59642264610E+02  0.17556254174E+03  0.18654971334E+03  0.00000000000E+00 0. -1.
         -2    1    3    3    0  502  0.25261620687E+02  0.90774882780E+02  0.60830471479E+03  0.61555897756E+03  0.00000000000E+00 0.  1.
         13    1    5    5    0    0  0.24956958445E+02 -0.13977086233E+03 -0.31557249807E+03  0.34604153691E+03  0.00000000000E+00 0. -1.
        -13    1    5    5    0    0  0.67282785884E+02 -0.29856907791E+03 -0.41492409094E+03  0.51558943822E+03  0.00000000000E+00 0.  1.
          4    1    6    6  503    0 -0.93248644927E+02  0.13548751989E+03  0.10297400572E+02  0.16479749478E+03  0.00000000000E+00 0. -1.
         -4    1    6    6    0  503 -0.37249399588E+01  0.15243527297E+03 -0.10201761404E+02  0.15282167241E+03  0.00000000000E+00 0.  1.
<mgrwt>
<rscale>  0 0.19806373E+04</rscale>
<asrwt>0</asrwt>
<pdfrwt beam="1">  1        1 0.14829943E+00 0.19806373E+04</pdfrwt>
<pdfrwt beam="2">  1       -2 0.15652501E+00 0.19806373E+04</pdfrwt>
<totfact> 0.35175490E+00</totfact>
</mgrwt>
</event>
<event>
12    5  0.5029243E-008  0.1486794E+04  0.7818608E-02  0.8893282E-01
         -2   -1    0    0    0  501 -0.00000000000E+00  0.00000000000E+00  0.13765238993E+04  0.13765238993E+04  0.00000000000E+00 0.  1.
          1   -1    0    0  501    0  0.00000000000E+00 -0.00000000000E+00 -0.40147443030E+03  0.40147443030E+03  0.00000000000E+00 0. -1.
        -24    2    1    2    0    0 -0.43697025302E+03 -0.16492736931E+02  0.30077070300E+02  0.44545133720E+03  0.79418204859E+02 0.  0.
        254    2    1    2    0    0  0.43697025302E+03  0.16492736931E+02  0.94497239868E+03  0.13325469924E+04  0.83156096604E+03 0.  0.
         23    2    4    4    0    0  0.41524348984E+03  0.21711930941E+03  0.13857039076E+03  0.49617061343E+03  0.86113727522E+02 0.  0.
         23    2    4    4    0    0  0.21726763181E+02 -0.20062657248E+03  0.80640200791E+03  0.83637637894E+03  0.92293960060E+02 0.  0.
          3    1    3    3  502    0 -0.42766800261E+03 -0.28105253623E+02  0.23646762678E+02  0.42924235011E+03  0.00000000000E+00 0. -1.
         -4    1    3    3    0  502 -0.93022504046E+01  0.11612516693E+02  0.64303076211E+01  0.16208987094E+02  0.00000000000E+00 0.  1.
         13    1    5    5    0    0  0.17181400225E+01  0.16467076249E+02  0.77527076297E+01  0.18281714386E+02  0.00000000000E+00 0.  1.
        -13    1    5    5    0    0  0.41352534981E+03  0.20065223316E+03  0.13081768313E+03  0.47788889905E+03  0.00000000000E+00 0. -1.
          1    1    6    6  503    0  0.67345449099E+01 -0.14068647187E+03  0.69364704282E+03  0.70780241415E+03  0.00000000000E+00 0. -1.
         -1    1    6    6    0  503  0.14992218271E+02 -0.59940100608E+02  0.11275496510E+03  0.12857396480E+03  0.00000000000E+00 0.  1.
<mgrwt>
<rscale>  0 0.14867941E+04</rscale>
<asrwt>0</asrwt>
<pdfrwt beam="1">  1        1 0.61765297E-01 0.14867941E+04</pdfrwt>
<pdfrwt beam="2">  1       -2 0.21177291E+00 0.14867941E+04</pdfrwt>
<totfact> 0.56321352E+00</totfact>
</mgrwt>
</event>
<event>
12    5  0.5029243E-008  0.1713993E+04  0.7818608E-02  0.8753424E-01
          1   -1    0    0  501    0  0.00000000000E+00  0.00000000000E+00  0.14577686879E+04  0.14577686879E+04  0.00000000000E+00 0. -1.
         -2   -1    0    0    0  501 -0.00000000000E+00 -0.00000000000E+00 -0.50381310695E+03  0.50381310695E+03  0.00000000000E+00 0.  1.
        -24    2    1    2    0    0 -0.17139989497E+03  0.42619713684E+03  0.81922265334E+03  0.94255666153E+03  0.79154159840E+02 0.  0.
        254    2    1    2    0    0  0.17139989497E+03 -0.42619713684E+03  0.13473292765E+03  0.10190251334E+04  0.89957619864E+03 0.  0.
         23    2    4    4    0    0  0.14343733203E+03 -0.27070623006E+03 -0.36628318810E+03  0.48614328805E+03  0.91190961260E+02 0.  0.
         23    2    4    4    0    0  0.27962562941E+02 -0.15549090678E+03  0.50101611575E+03  0.53288184531E+03  0.89367699961E+02 0.  0.
          3    1    3    3  502    0 -0.42602611841E+02  0.86468511002E+02  0.24220103688E+03  0.26067820813E+03  0.00000000000E+00 0. -1.
         -4    1    3    3    0  502 -0.12879728313E+03  0.33972862583E+03  0.57702161646E+03  0.68187845340E+03  0.00000000000E+00 0.  1.
         13    1    5    5    0    0  0.13657869209E+03 -0.17371866074E+03 -0.23251977417E+03  0.32077617992E+03  0.00000000000E+00 0. -1.
        -13    1    5    5    0    0  0.68586399341E+01 -0.96987569320E+02 -0.13376341393E+03  0.16536710813E+03  0.00000000000E+00 0.  1.
          2    1    6    6  503    0  0.76042026030E+01  0.11222152923E+02  0.36652936798E+02  0.39079385734E+02  0.00000000000E+00 0. -1.
         -2    1    6    6    0  503  0.20358360338E+02 -0.16671305970E+03  0.46436317896E+03  0.49380245957E+03  0.00000000000E+00 0.  1.
<mgrwt>
<rscale>  0 0.17139930E+04</rscale>
<asrwt>0</asrwt>
<pdfrwt beam="1">  1        1 0.22427210E+00 0.17139930E+04</pdfrwt>
<pdfrwt beam="2">  1       -2 0.77509709E-01 0.17139930E+04</pdfrwt>
<totfact> 0.86628873E+00</totfact>
</mgrwt>
</event>
<event>
12    5  0.5029243E-008  0.2273873E+04  0.7818608E-02  0.8488294E-01
         -2   -1    0    0    0  501 -0.00000000000E+00  0.00000000000E+00  0.69816156887E+03  0.69816156887E+03  0.00000000000E+00 0.  1.
          1   -1    0    0  501    0  0.00000000000E+00 -0.00000000000E+00 -0.18514693606E+04  0.18514693606E+04  0.00000000000E+00 0. -1.
        -24    2    1    2    0    0  0.24128726238E+03 -0.36965735725E+02 -0.15357175299E+04  0.15571251760E+04  0.81390868995E+02 0.  0.
        254    2    1    2    0    0 -0.24128726238E+03  0.36965735725E+02  0.38240973813E+03  0.99250575349E+03  0.88274823948E+03 0.  0.
         23    2    4    4    0    0  0.31121973595E+03  0.10430712604E+03  0.71180299480E+02  0.34829594025E+03  0.92226494978E+02 0.  0.
         23    2    4    4    0    0 -0.55250699833E+03 -0.67341390314E+02  0.31122943865E+03  0.64420981324E+03  0.91343713178E+02 0.  0.
          3    1    3    3  502    0  0.17582050488E+03 -0.61482631428E+02 -0.11790087073E+04  0.11936308038E+04  0.00000000000E+00 0. -1.
         -2    1    3    3    0  502  0.65466757502E+02  0.24516895703E+02 -0.35670882254E+03  0.36349437216E+03  0.00000000000E+00 0.  1.
         13    1    5    5    0    0  0.19442868753E+03  0.50197589485E+02  0.86554903734E+02  0.21866427208E+03  0.00000000000E+00 0. -1.
        -13    1    5    5    0    0  0.11679104842E+03  0.54109536554E+02 -0.15374604253E+02  0.12963166817E+03  0.00000000000E+00 0.  1.
          3    1    6    6  503    0 -0.35168114452E+03 -0.68348036299E+02  0.15777340457E+03  0.39146331714E+03  0.00000000000E+00 0. -1.
         -3    1    6    6    0  503 -0.20082585381E+03  0.10066459855E+01  0.15345603407E+03  0.25274649609E+03  0.00000000000E+00 0.  1.
<mgrwt>
<rscale>  0 0.22738731E+04</rscale>
<asrwt>0</asrwt>
<pdfrwt beam="1">  1        1 0.28484144E+00 0.22738731E+04</pdfrwt>
<pdfrwt beam="2">  1       -2 0.10740947E+00 0.22738731E+04</pdfrwt>
<totfact> 0.20816906E+00</totfact>
</mgrwt>
</event>
<event>
12    5  0.5029243E-008  0.1820082E+04  0.7818608E-02  0.8695692E-01
          1   -1    0    0  501    0  0.00000000000E+00  0.00000000000E+00  0.97702047748E+03  0.97702047748E+03  0.00000000000E+00 0. -1.
         -2   -1    0    0    0  501 -0.00000000000E+00 -0.00000000000E+00 -0.84765370828E+03  0.84765370828E+03  0.00000000000E+00 0.  1.
        -24    2    1    2    0    0  0.30528926858E+03  0.62163190077E+03  0.18717170682E+01  0.69702605601E+03  0.78829321151E+02 0.  0.
        254    2    1    2    0    0 -0.30528926858E+03 -0.62163190077E+03  0.12749505214E+03  0.11276481297E+04  0.88074261770E+03 0.  0.
         23    2    4    4    0    0  0.58020649784E+02 -0.17274026737E+03  0.42531778303E+03  0.47155837942E+03  0.90920255548E+02 0.  0.
         23    2    4    4    0    0 -0.36330991836E+03 -0.44889163340E+03 -0.29782273090E+03  0.65608975032E+03  0.90871261252E+02 0.  0.
          1    1    3    3  502    0  0.19035011775E+03  0.37023224940E+03 -0.36724245409E+02  0.41791596766E+03  0.00000000000E+00 0. -1.
         -2    1    3    3    0  502  0.11493915083E+03  0.25139965137E+03  0.38595962477E+02  0.27911008835E+03  0.00000000000E+00 0.  1.
         13    1    5    5    0    0 -0.60246236113E+00 -0.41039234522E+02  0.30180884523E+02  0.50945731142E+02  0.00000000000E+00 0.  1.
        -13    1    5    5    0    0  0.58623112145E+02 -0.13170103285E+03  0.39513689851E+03  0.42061264828E+03  0.00000000000E+00 0. -1.
          4    1    6    6  503    0 -0.36813268449E+03 -0.44073013358E+03 -0.29717098025E+03  0.64658743843E+03  0.00000000000E+00 0. -1.
         -4    1    6    6    0  503  0.48227661252E+01 -0.81614998151E+01 -0.65175064944E+00  0.95023118892E+01  0.00000000000E+00 0.  1.
<mgrwt>
<rscale>  0 0.18200824E+04</rscale>
<asrwt>0</asrwt>
<pdfrwt beam="1">  1        1 0.15031084E+00 0.18200824E+04</pdfrwt>
<pdfrwt beam="2">  1       -2 0.13040826E+00 0.18200824E+04</pdfrwt>
<totfact> 0.56116159E+00</totfact>
</mgrwt>
</event>
<event>
12    5  0.5029243E-008  0.1105745E+04  0.7818608E-02  0.9199611E-01
          1   -1    0    0  501    0  0.00000000000E+00  0.00000000000E+00  0.18201123748E+03  0.18201123748E+03  0.00000000000E+00 0. -1.
         -2   -1    0    0    0  501 -0.00000000000E+00 -0.00000000000E+00 -0.16793895516E+04  0.16793895516E+04  0.00000000000E+00 0.  1.
        -24    2    1    2    0    0 -0.80835479154E+02 -0.15408683383E+03 -0.20948570708E+03  0.28233767946E+03  0.74519639850E+02 0.  0.
        254    2    1    2    0    0  0.80835479154E+02  0.15408683383E+03 -0.12878926071E+04  0.15790631097E+04  0.89693690405E+03 0.  0.
         23    2    4    4    0    0 -0.32168471630E+03  0.44329298520E+02 -0.16156498796E+03  0.37390542587E+03  0.90861866297E+02 0.  0.
         23    2    4    4    0    0  0.40252019546E+03  0.10975753531E+03 -0.11263276191E+04  0.12051576838E+04  0.98599761073E+02 0.  0.
          1    1    3    3  502    0 -0.73856874464E+02 -0.11834984800E+03 -0.20146899004E+03  0.24505362347E+03  0.00000000000E+00 0. -1.
         -4    1    3    3    0  502 -0.69786046900E+01 -0.35736985825E+02 -0.80167170451E+01  0.37284055995E+02  0.00000000000E+00 0.  1.
         13    1    5    5    0    0 -0.32934647918E+01 -0.23441871111E+01  0.88812683489E+01  0.97580249555E+01  0.00000000000E+00 0. -1.
        -13    1    5    5    0    0 -0.31839125151E+03  0.46673485631E+02 -0.17044625631E+03  0.36414740091E+03  0.00000000000E+00 0.  1.
          1    1    6    6  503    0  0.25462371040E+02  0.36320500573E+02 -0.10554737791E+03  0.11448912649E+03  0.00000000000E+00 0. -1.
         -1    1    6    6    0  503  0.37705782442E+03  0.73437034737E+02 -0.10207802412E+04  0.10906685573E+04  0.00000000000E+00 0.  1.
<mgrwt>
<rscale>  0 0.11057446E+04</rscale>
<asrwt>0</asrwt>
<pdfrwt beam="1">  1        1 0.28001729E-01 0.11057446E+04</pdfrwt>
<pdfrwt beam="2">  1       -2 0.25836763E+00 0.11057446E+04</pdfrwt>
<totfact> 0.83813705E+00</totfact>
</mgrwt>
</event>
<event>
12    5  0.5029243E-008  0.2692448E+04  0.7818608E-02  0.8337459E-01
          1   -1    0    0  501    0  0.00000000000E+00  0.00000000000E+00  0.14417184430E+04  0.14417184430E+04  0.00000000000E+00 0. -1.
         -2   -1    0    0    0  501 -0.00000000000E+00 -0.00000000000E+00 -0.12570550994E+04  0.12570550994E+04  0.00000000000E+00 0.  1.
        -24    2    1    2    0    0 -0.17371225226E+02  0.10785168036E+04  0.59667651030E+03  0.12353180596E+04  0.80545610142E+02 0.  0.
        254    2    1    2    0    0  0.17371225226E+02 -0.10785168036E+04 -0.41201316670E+03  0.14634554829E+04  0.89913672255E+03 0.  0.
         23    2    4    4    0    0  0.29330652535E+03 -0.10158093578E+03  0.77772634071E+02  0.33268117952E+03  0.90998792656E+02 0.  0.
         23    2    4    4    0    0 -0.27593530013E+03 -0.97693586780E+03 -0.48978580077E+03  0.11307743034E+04  0.90644442264E+02 0.  0.
          1    1    3    3  502    0 -0.33621550338E+02  0.10015410469E+04  0.56581491061E+03  0.11508090156E+04  0.00000000000E+00 0. -1.
         -4    1    3    3    0  502  0.16250325113E+02  0.76975756640E+02  0.30861599689E+02  0.84509043965E+02  0.00000000000E+00 0.  1.
         13    1    5    5    0    0  0.24134977194E+02 -0.54519756832E+01 -0.18702875386E+02  0.31016426466E+02  0.00000000000E+00 0. -1.
        -13    1    5    5    0    0  0.26917154816E+03 -0.96128960095E+02  0.96475509457E+02  0.30166475305E+03  0.00000000000E+00 0.  1.
          4    1    6    6  503    0 -0.37526647525E+02 -0.13205830065E+03 -0.33104785911E+02  0.14122170830E+03  0.00000000000E+00 0. -1.
         -4    1    6    6    0  503 -0.23840865260E+03 -0.84487756715E+03 -0.45668101486E+03  0.98955259509E+03  0.00000000000E+00 0.  1.
<mgrwt>
<rscale>  0 0.26924483E+04</rscale>
<asrwt>0</asrwt>
<pdfrwt beam="1">  1        1 0.22180284E+00 0.26924483E+04</pdfrwt>
<pdfrwt beam="2">  1       -2 0.19339309E+00 0.26924483E+04</pdfrwt>
<totfact> 0.81059104E-01</totfact>
</mgrwt>
</event>
<event>
12    5  0.5029243E-008  0.1525073E+04  0.7818608E-02  0.8867948E-01
          1   -1    0    0  501    0  0.00000000000E+00  0.00000000000E+00  0.28330474438E+04  0.28330474438E+04  0.00000000000E+00 0. -1.
         -2   -1    0    0    0  501 -0.00000000000E+00 -0.00000000000E+00 -0.20524267736E+03  0.20524267736E+03  0.00000000000E+00 0.  1.
        -24    2    1    2    0    0 -0.77298955711E+02  0.39805690586E+03  0.14274423485E+04  0.14860119443E+04  0.78837881525E+02 0.  0.
        254    2    1    2    0    0  0.77298955711E+02 -0.39805690586E+03  0.12003624180E+04  0.15522781768E+04  0.89681278703E+03 0.  0.
         23    2    4    4    0    0  0.33536778273E+03 -0.52674464138E+02  0.97913974182E+02  0.36496073658E+03  0.91449680370E+02 0.  0.
         23    2    4    4    0    0 -0.25806882701E+03 -0.34538244172E+03  0.11024484438E+04  0.11873174403E+04  0.91878083561E+02 0.  0.
          1    1    3    3  502    0 -0.90389262133E+02  0.28080404477E+03  0.10350391556E+04  0.10762560958E+04  0.00000000000E+00 0. -1.
         -4    1    3    3    0  502  0.13090306422E+02  0.11725286110E+03  0.39240319291E+03  0.40975584848E+03  0.00000000000E+00 0.  1.
         13    1    5    5    0    0  0.30794857777E+03 -0.58703170464E+02  0.11281755776E+03  0.33317591466E+03  0.00000000000E+00 0.  1.
        -13    1    5    5    0    0  0.27419204959E+02  0.60287063256E+01 -0.14903583582E+02  0.31784821914E+02  0.00000000000E+00 0. -1.
          1    1    6    6  503    0 -0.14599228240E+03 -0.25899640378E+03  0.69212644787E+03  0.75328076010E+03  0.00000000000E+00 0. -1.
         -1    1    6    6    0  503 -0.11207654461E+03 -0.86386037942E+02  0.41032199591E+03  0.43403668017E+03  0.00000000000E+00 0.  1.
<mgrwt>
<rscale>  0 0.15250734E+04</rscale>
<asrwt>0</asrwt>
<pdfrwt beam="1">  1        1 0.43585342E+00 0.15250734E+04</pdfrwt>
<pdfrwt beam="2">  1       -2 0.31575799E-01 0.15250734E+04</pdfrwt>
<totfact> 0.62614463E+00</totfact>
</mgrwt>
</event>
<event>
12    5  0.5029243E-008  0.1682161E+04  0.7818608E-02  0.8771605E-01
         -2   -1    0    0    0  501 -0.00000000000E+00  0.00000000000E+00  0.33133491323E+03  0.33133491323E+03  0.00000000000E+00 0.  1.
          1   -1    0    0  501    0  0.00000000000E+00 -0.00000000000E+00 -0.21350488449E+04  0.21350488449E+04  0.00000000000E+00 0. -1.
        -24    2    1    2    0    0  0.34916739579E+03 -0.44287438765E+03 -0.37603902141E+03  0.68295558321E+03  0.83470890178E+02 0.  0.
        254    2    1    2    0    0 -0.34916739579E+03  0.44287438765E+03 -0.14276749103E+04  0.17834281749E+04  0.90791233726E+03 0.  0.
         23    2    4    4    0    0  0.15651864974E+03 -0.84647615036E+02 -0.28552922370E+02  0.20222323031E+03  0.91736901264E+02 0.  0.
         23    2    4    4    0    0 -0.50568604552E+03  0.52752200268E+03 -0.13991219879E+04  0.15812049446E+04  0.93106927117E+02 0.  0.
          1    1    3    3  502    0  0.17931674094E+03 -0.17647386200E+03 -0.19911850419E+03  0.32085151747E+03  0.00000000000E+00 0. -1.
         -2    1    3    3    0  502  0.16985065485E+03 -0.26640052565E+03 -0.17692051722E+03  0.36210406575E+03  0.00000000000E+00 0.  1.
         13    1    5    5    0    0  0.16878468398E+03 -0.76219941902E+02 -0.24586033266E+02  0.18682136420E+03  0.00000000000E+00 0.  1.
        -13    1    5    5    0    0 -0.12266034242E+02 -0.84276731349E+01 -0.39668891039E+01  0.15401866109E+02  0.00000000000E+00 0. -1.
          4    1    6    6  503    0 -0.12001319675E+03  0.17152318081E+03 -0.45924467613E+03  0.50470688672E+03  0.00000000000E+00 0. -1.
         -4    1    6    6    0  503 -0.38567284877E+03  0.35599882188E+03 -0.93987731176E+03  0.10764980579E+04  0.00000000000E+00 0.  1.
<mgrwt>
<rscale>  0 0.16821608E+04</rscale>
<asrwt>0</asrwt>
<pdfrwt beam="1">  1        1 0.32846906E+00 0.16821608E+04</pdfrwt>
<pdfrwt beam="2">  1       -2 0.50974600E-01 0.16821608E+04</pdfrwt>
<totfact> 0.73470339E+00</totfact>
</mgrwt>
</event>
<event>
12    5  0.5029243E-008  0.1164982E+04  0.7818608E-02  0.9144072E-01
         -2   -1    0    0    0  501 -0.00000000000E+00  0.00000000000E+00  0.31590746320E+03  0.31590746320E+03  0.00000000000E+00 0.  1.
          1   -1    0    0  501    0  0.00000000000E+00 -0.00000000000E+00 -0.10740349048E+04  0.10740349048E+04  0.00000000000E+00 0. -1.
        -24    2    1    2    0    0 -0.19920872285E+03 -0.87310282451E+02 -0.12868466571E+03  0.26532724904E+03  0.80818346996E+02 0.  0.
        254    2    1    2    0    0  0.19920872285E+03  0.87310282451E+02 -0.62944277588E+03  0.11246151189E+04  0.90623052088E+03 0.  0.
         23    2    4    4    0    0  0.39814876258E+03 -0.17281213605E+02 -0.74955817581E+03  0.85416111934E+03  0.94512863533E+02 0.  0.
         23    2    4    4    0    0 -0.19894003973E+03  0.10459149606E+03  0.12011539994E+03  0.27045399961E+03  0.90560124508E+02 0.  0.
          1    1    3    3  502    0 -0.11293857734E+03 -0.64776900401E+02 -0.11765760940E+03  0.17548356654E+03  0.00000000000E+00 0. -1.
         -2    1    3    3    0  502 -0.86270145515E+02 -0.22533382050E+02 -0.11027056311E+02  0.89843682497E+02  0.00000000000E+00 0.  1.
         13    1    5    5    0    0  0.16213467049E+03  0.31105972850E+02 -0.25075680933E+03  0.30022360058E+03  0.00000000000E+00 0.  1.
        -13    1    5    5    0    0  0.23601409208E+03 -0.48387186455E+02 -0.49880136649E+03  0.55393751875E+03  0.00000000000E+00 0. -1.
          2    1    6    6  503    0 -0.14232501205E+03  0.11037083341E+03  0.65697430876E+02  0.19171406403E+03  0.00000000000E+00 0. -1.
         -2    1    6    6    0  503 -0.56615027680E+02 -0.57793373546E+01  0.54417969060E+02  0.78739935586E+02  0.00000000000E+00 0.  1.
<mgrwt>
<rscale>  0 0.11649818E+04</rscale>
<asrwt>0</asrwt>
<pdfrwt beam="1">  1        1 0.16523614E+00 0.11649818E+04</pdfrwt>
<pdfrwt beam="2">  1       -2 0.48601148E-01 0.11649818E+04</pdfrwt>
<totfact> 0.46265061E+01</totfact>
</mgrwt>
</event>
<event>
12    5  0.5029243E-008  0.1854238E+04  0.7818608E-02  0.8677976E-01
          1   -1    0    0  501    0  0.00000000000E+00  0.00000000000E+00  0.12160573159E+04  0.12160573159E+04  0.00000000000E+00 0. -1.
         -2   -1    0    0    0  501 -0.00000000000E+00 -0.00000000000E+00 -0.70683315446E+03  0.70683315446E+03  0.00000000000E+00 0.  1.
        -24    2    1    2    0    0 -0.41451645929E+03  0.56508590003E+03  0.10823871789E+03  0.71372999586E+03  0.80925382341E+02 0.  0.
        254    2    1    2    0    0  0.41451645929E+03 -0.56508590003E+03  0.40098544354E+03  0.12091604745E+04  0.90007430677E+03 0.  0.
         23    2    4    4    0    0  0.12466865481E+03 -0.58084272316E+03 -0.11544726705E+03  0.61052204086E+03  0.80551526125E+02 0.  0.
         23    2    4    4    0    0  0.28984780448E+03  0.15756823128E+02  0.51643271060E+03  0.59863843364E+03  0.86053485821E+02 0.  0.
          3    1    3    3  502    0 -0.16814897843E+02  0.11126098077E+02 -0.84857587575E+01  0.21875533127E+02  0.00000000000E+00 0. -1.
         -2    1    3    3    0  502 -0.39770156144E+03  0.55395980195E+03  0.11672447665E+03  0.69185446274E+03  0.00000000000E+00 0.  1.
         13    1    5    5    0    0  0.11837296737E+03 -0.56025648413E+03 -0.12633824646E+03  0.58639648697E+03  0.00000000000E+00 0. -1.
        -13    1    5    5    0    0  0.62956874409E+01 -0.20586239028E+02  0.10890979408E+02  0.24125553883E+02  0.00000000000E+00 0.  1.
          1    1    6    6  503    0  0.25303644690E+03 -0.15586102631E+02  0.41572448411E+03  0.48692629499E+03  0.00000000000E+00 0. -1.
         -1    1    6    6    0  503  0.36811357575E+02  0.31342925759E+02  0.10070822648E+03  0.11171213865E+03  0.00000000000E+00 0.  1.
<mgrwt>
<rscale>  0 0.18542380E+04</rscale>
<asrwt>0</asrwt>
<pdfrwt beam="1">  1        1 0.18708574E+00 0.18542380E+04</pdfrwt>
<pdfrwt beam="2">  1       -2 0.10874356E+00 0.18542380E+04</pdfrwt>
<totfact> 0.57890809E+00</totfact>
</mgrwt>
</event>
<event>
12    5  0.5029243E-008  0.1608339E+04  0.7818608E-02  0.8815441E-01
          1   -1    0    0  501    0  0.00000000000E+00  0.00000000000E+00  0.68952704158E+03  0.68952704158E+03  0.00000000000E+00 0. -1.
         -2   -1    0    0    0  501 -0.00000000000E+00 -0.00000000000E+00 -0.93787327230E+03  0.93787327230E+03  0.00000000000E+00 0.  1.
        -24    2    1    2    0    0 -0.58337153438E+02 -0.46395672943E+03 -0.30402057935E+03  0.56657203773E+03  0.99580575469E+02 0.  0.
        254    2    1    2    0    0  0.58337153438E+02  0.46395672943E+03  0.55674348626E+02  0.10608282761E+04  0.95057768127E+03 0.  0.
         23    2    4    4    0    0 -0.20371878623E+02  0.63714595482E+03 -0.24745397314E+03  0.69022947820E+03  0.93879084829E+02 0.  0.
         23    2    4    4    0    0  0.78709032062E+02 -0.17318922539E+03  0.30312832177E+03  0.37059879795E+03  0.96265622459E+02 0.  0.
          3    1    3    3  502    0  0.21069087829E+02 -0.35056436983E+02 -0.16261298395E+02  0.44014657347E+02  0.00000000000E+00 0. -1.
         -4    1    3    3    0  502 -0.79406241267E+02 -0.42890029245E+03 -0.28775928095E+03  0.52255738038E+03  0.00000000000E+00 0.  1.
         13    1    5    5    0    0 -0.39885302117E+02  0.12731496480E+03 -0.64748426236E+02  0.14829799825E+03  0.00000000000E+00 0.  1.
        -13    1    5    5    0    0  0.19513423494E+02  0.50983099002E+03 -0.18270554690E+03  0.54193147994E+03  0.00000000000E+00 0. -1.
          2    1    6    6  503    0 -0.14810052350E+02 -0.78007411871E+02  0.10268958305E+03  0.12980618022E+03  0.00000000000E+00 0. -1.
         -2    1    6    6    0  503  0.93519084412E+02 -0.95181813515E+02  0.20043873872E+03  0.24079261773E+03  0.00000000000E+00 0.  1.
<mgrwt>
<rscale>  0 0.16083395E+04</rscale>
<asrwt>0</asrwt>
<pdfrwt beam="1">  1        1 0.10608108E+00 0.16083395E+04</pdfrwt>
<pdfrwt beam="2">  1       -2 0.14428820E+00 0.16083395E+04</pdfrwt>
<totfact> 0.77644158E+00</totfact>
</mgrwt>
</event>
<event>
12    5  0.5029243E-008  0.1263784E+04  0.7818608E-02  0.9058788E-01
          1   -1    0    0  501    0  0.00000000000E+00  0.00000000000E+00  0.27972766014E+04  0.27972766014E+04  0.00000000000E+00 0. -1.
         -2   -1    0    0    0  501 -0.00000000000E+00 -0.00000000000E+00 -0.14274155221E+03  0.14274155221E+03  0.00000000000E+00 0.  1.
        -24    2    1    2    0    0  0.15381124749E+03  0.22127819359E+03  0.34140374028E+03  0.44201720029E+03  0.78744857968E+02 0.  0.
        254    2    1    2    0    0 -0.15381124749E+03 -0.22127819359E+03  0.23131313089E+04  0.24980009533E+04  0.90377562023E+03 0.  0.
         23    2    4    4    0    0 -0.35516758567E+02 -0.36703379795E+03  0.22483528440E+04  0.22802330101E+04  0.91634164757E+02 0.  0.
         23    2    4    4    0    0 -0.11829448893E+03  0.14575560437E+03  0.64778464874E+02  0.21776794321E+03  0.89377543400E+02 0.  0.
          3    1    3    3  502    0  0.14528858506E+01 -0.65245681741E+01  0.75059308432E+01  0.10050863892E+02  0.00000000000E+00 0. -1.
         -4    1    3    3    0  502  0.15235836164E+03  0.22780276176E+03  0.33389780944E+03  0.43196633640E+03  0.00000000000E+00 0.  1.
         13    1    5    5    0    0 -0.44570617456E+02 -0.35274722873E+03  0.20041027571E+04  0.20353979975E+04  0.00000000000E+00 0.  1.
        -13    1    5    5    0    0  0.90538588890E+01 -0.14286569222E+02  0.24425008689E+03  0.24483501255E+03  0.00000000000E+00 0. -1.
          3    1    6    6  503    0 -0.32855210102E+02 -0.61924221224E+01  0.13545813309E+02  0.36073535740E+02  0.00000000000E+00 0. -1.
         -3    1    6    6    0  503 -0.85439278825E+02  0.15194802649E+03  0.51232651565E+02  0.18169440747E+03  0.00000000000E+00 0.  1.
<mgrwt>
<rscale>  0 0.12637842E+04</rscale>
<asrwt>0</asrwt>
<pdfrwt beam="1">  1        1 0.43035020E+00 0.12637842E+04</pdfrwt>
<pdfrwt beam="2">  1       -2 0.21960241E-01 0.12637842E+04</pdfrwt>
<totfact> 0.13226691E+01</totfact>
</mgrwt>
</event>
<event>
12    5  0.5029243E-008  0.1665746E+04  0.7818608E-02  0.8781145E-01
         -2   -1    0    0    0  501 -0.00000000000E+00  0.00000000000E+00  0.28061968627E+03  0.28061968627E+03  0.00000000000E+00 0.  1.
          1   -1    0    0  501    0  0.00000000000E+00 -0.00000000000E+00 -0.24719491390E+04  0.24719491390E+04  0.00000000000E+00 0. -1.
        -24    2    1    2    0    0 -0.56874613287E+02  0.58540152320E+03 -0.77774558741E+03  0.97805176442E+03  0.75943335100E+02 0.  0.
        254    2    1    2    0    0  0.56874613287E+02 -0.58540152320E+03 -0.14135838653E+04  0.17745170608E+04  0.89708516313E+03 0.  0.
         23    2    4    4    0    0  0.41758755177E+03 -0.18201076845E+03 -0.36282850359E+03  0.58952504392E+03  0.91585867741E+02 0.  0.
         23    2    4    4    0    0 -0.36071293848E+03 -0.40339075475E+03 -0.10507553617E+04  0.11849920169E+04  0.85330679989E+02 0.  0.
          1    1    3    3  502    0 -0.49301741882E+02  0.57422423758E+03 -0.73995537843E+03  0.93792222431E+03  0.00000000000E+00 0. -1.
         -2    1    3    3    0  502 -0.75728714048E+01  0.11177285622E+02 -0.37790208977E+02  0.40129540113E+02  0.00000000000E+00 0.  1.
         13    1    5    5    0    0  0.20345822720E+03 -0.69785806129E+02 -0.22485930397E+03  0.31117039630E+03  0.00000000000E+00 0. -1.
        -13    1    5    5    0    0  0.21412932457E+03 -0.11222496232E+03 -0.13796919962E+03  0.27835464762E+03  0.00000000000E+00 0.  1.
          3    1    6    6  503    0 -0.14815342383E+03 -0.11340101415E+03 -0.31562475637E+03  0.36664453335E+03  0.00000000000E+00 0. -1.
         -3    1    6    6    0  503 -0.21255951465E+03 -0.28998974060E+03 -0.73513060534E+03  0.81834748355E+03  0.00000000000E+00 0.  1.
<mgrwt>
<rscale>  0 0.16657462E+04</rscale>
<asrwt>0</asrwt>
<pdfrwt beam="1">  1        1 0.38029986E+00 0.16657462E+04</pdfrwt>
<pdfrwt beam="2">  1       -2 0.43172260E-01 0.16657462E+04</pdfrwt>
<totfact> 0.60498666E+00</totfact>
</mgrwt>
</event>
<event>
12    5  0.5029243E-008  0.1871187E+04  0.7818608E-02  0.8669333E-01
         -2   -1    0    0    0  501 -0.00000000000E+00  0.00000000000E+00  0.62330295793E+03  0.62330295793E+03  0.00000000000E+00 0.  1.
          1   -1    0    0  501    0  0.00000000000E+00 -0.00000000000E+00 -0.14043494686E+04  0.14043494686E+04  0.00000000000E+00 0. -1.
        -24    2    1    2    0    0 -0.60418163851E+03  0.22046842379E+03  0.44219194442E+02  0.64932254589E+03  0.77605755194E+02 0.  0.
        254    2    1    2    0    0  0.60418163851E+03 -0.22046842379E+03 -0.82526570514E+03  0.13783298807E+04  0.89726696010E+03 0.  0.
         23    2    4    4    0    0  0.10286537415E+03  0.30761072175E+03 -0.42459751344E+03  0.54199049929E+03  0.90912109073E+02 0.  0.
         23    2    4    4    0    0  0.50131626436E+03 -0.52807914554E+03 -0.40066819171E+03  0.83633938138E+03  0.93503904421E+02 0.  0.
          3    1    3    3  502    0 -0.39774777677E+03  0.12717381693E+03 -0.44911292280E+01  0.41760824212E+03  0.00000000000E+00 0. -1.
         -4    1    3    3    0  502 -0.20643386173E+03  0.93294606858E+02  0.48710323670E+02  0.23171430377E+03  0.00000000000E+00 0.  1.
         13    1    5    5    0    0  0.10410066627E+03  0.31375669028E+03 -0.41613070023E+03  0.53145551938E+03  0.00000000000E+00 0. -1.
        -13    1    5    5    0    0 -0.12352921183E+01 -0.61459685308E+01 -0.84668132084E+01  0.10534979910E+02  0.00000000000E+00 0.  1.
          3    1    6    6  503    0  0.20012908013E+03 -0.27718358406E+03 -0.19730763672E+03  0.39473116357E+03  0.00000000000E+00 0. -1.
         -3    1    6    6    0  503  0.30118718423E+03 -0.25089556147E+03 -0.20336055499E+03  0.44160821781E+03  0.00000000000E+00 0.  1.
<mgrwt>
<rscale>  0 0.18711870E+04</rscale>
<asrwt>0</asrwt>
<pdfrwt beam="1">  1        1 0.21605376E+00 0.18711870E+04</pdfrwt>
<pdfrwt beam="2">  1       -2 0.95892764E-01 0.18711870E+04</pdfrwt>
<totfact> 0.57251636E+00</totfact>
</mgrwt>
</event>
<event>
12    5  0.5029243E-008  0.1708851E+04  0.7818608E-02  0.8756332E-01
          1   -1    0    0  501    0  0.00000000000E+00  0.00000000000E+00  0.10003356253E+04  0.10003356253E+04  0.00000000000E+00 0. -1.
         -2   -1    0    0    0  501 -0.00000000000E+00 -0.00000000000E+00 -0.72979780417E+03  0.72979780417E+03  0.00000000000E+00 0.  1.
        -24    2    1    2    0    0  0.15430294635E+03 -0.42035486901E+03  0.52235001159E+03  0.69265018371E+03  0.80044532855E+02 0.  0.
        254    2    1    2    0    0 -0.15430294635E+03  0.42035486901E+03 -0.25181219043E+03  0.10374832458E+04  0.90136257459E+03 0.  0.
         23    2    4    4    0    0 -0.28362830008E+03  0.71571745915E+02  0.25742184425E+03  0.40059613693E+03  0.92971670985E+02 0.  0.
         23    2    4    4    0    0  0.12932535373E+03  0.34878312309E+03 -0.50923403468E+03  0.63688710885E+03  0.89057134912E+02 0.  0.
          3    1    3    3  502    0  0.85826585733E+02 -0.29654313121E+03  0.31012657777E+03  0.43758716358E+03  0.00000000000E+00 0. -1.
         -4    1    3    3    0  502  0.68476360619E+02 -0.12381173779E+03  0.21222343382E+03  0.25506302014E+03  0.00000000000E+00 0.  1.
         13    1    5    5    0    0 -0.10884589550E+03  0.62224575567E+01  0.45245103958E+02  0.11803926201E+03  0.00000000000E+00 0. -1.
        -13    1    5    5    0    0 -0.17478240458E+03  0.65349288359E+02  0.21217674029E+03  0.28255687491E+03  0.00000000000E+00 0.  1.
          4    1    6    6  503    0  0.63310521435E+02  0.26826770931E+03 -0.40200372406E+03  0.48742464047E+03  0.00000000000E+00 0.  1.
         -4    1    6    6    0  503  0.66014832292E+02  0.80515413776E+02 -0.10723031062E+03  0.14946246838E+03  0.00000000000E+00 0. -1.
<mgrwt>
<rscale>  0 0.17088508E+04</rscale>
<asrwt>0</asrwt>
<pdfrwt beam="1">  1        1 0.15389779E+00 0.17088508E+04</pdfrwt>
<pdfrwt beam="2">  1       -2 0.11227658E+00 0.17088508E+04</pdfrwt>
<totfact> 0.78800691E+00</totfact>
</mgrwt>
</event>
<event>
12    5  0.5029243E-008  0.1383095E+04  0.7818608E-02  0.8966147E-01
         -2   -1    0    0    0  501 -0.00000000000E+00  0.00000000000E+00  0.60561253514E+03  0.60561253514E+03  0.00000000000E+00 0.  1.
          1   -1    0    0  501    0  0.00000000000E+00 -0.00000000000E+00 -0.78967685250E+03  0.78967685250E+03  0.00000000000E+00 0. -1.
        -24    2    1    2    0    0 -0.36401480217E+03  0.73547017048E+02 -0.18499419112E+03  0.42287426606E+03  0.81754842263E+02 0.  0.
        254    2    1    2    0    0  0.36401480217E+03 -0.73547017048E+02  0.92987375726E+00  0.97241512158E+03  0.89870705133E+03 0.  0.
         23    2    4    4    0    0  0.61603371067E+02  0.38814700172E+03 -0.66048855236E+02  0.40867619534E+03  0.90557777621E+02 0.  0.
         23    2    4    4    0    0  0.30241143110E+03 -0.46169401877E+03  0.66978728994E+02  0.56373892625E+03  0.93281221032E+02 0.  0.
          3    1    3    3  502    0 -0.22736771888E+03  0.21252503841E+02 -0.14743805221E+03  0.27181929244E+03  0.00000000000E+00 0. -1.
         -4    1    3    3    0  502 -0.13664708330E+03  0.52294513207E+02 -0.37556138911E+02  0.15105497362E+03  0.00000000000E+00 0.  1.
         13    1    5    5    0    0  0.24773986655E+02  0.16397058769E+02 -0.36820317902E+01  0.29936120476E+02  0.00000000000E+00 0. -1.
        -13    1    5    5    0    0  0.36829384412E+02  0.37174994295E+03 -0.62366823446E+02  0.37874007486E+03  0.00000000000E+00 0.  1.
          1    1    6    6  503    0  0.14101050621E+03 -0.15740644770E+03 -0.69748839326E+01  0.21144597808E+03  0.00000000000E+00 0. -1.
         -1    1    6    6    0  503  0.16140092489E+03 -0.30428757107E+03  0.73953612926E+02  0.35229294817E+03  0.00000000000E+00 0.  1.
<mgrwt>
<rscale>  0 0.13830954E+04</rscale>
<asrwt>0</asrwt>
<pdfrwt beam="1">  1        1 0.12148875E+00 0.13830954E+04</pdfrwt>
<pdfrwt beam="2">  1       -2 0.93171160E-01 0.13830954E+04</pdfrwt>
<totfact> 0.18832390E+01</totfact>
</mgrwt>
</event>
<event>
12    5  0.5029243E-008  0.1457859E+04  0.7818608E-02  0.8912970E-01
         -2   -1    0    0    0  501 -0.00000000000E+00  0.00000000000E+00  0.13184915778E+04  0.13184915778E+04  0.00000000000E+00 0.  1.
          1   -1    0    0  501    0  0.00000000000E+00 -0.00000000000E+00 -0.40298965230E+03  0.40298965230E+03  0.00000000000E+00 0. -1.
        -24    2    1    2    0    0 -0.34527247308E+03 -0.12488628772E+03 -0.64073440497E+01  0.37533838818E+03  0.77641393972E+02 0.  0.
        254    2    1    2    0    0  0.34527247308E+03  0.12488628772E+03  0.92190926958E+03  0.13461428419E+04  0.90960111260E+03 0.  0.
         23    2    4    4    0    0 -0.14423948003E+03 -0.21113321779E+03  0.61446538778E+03  0.67164958408E+03  0.90350361162E+02 0.  0.
         23    2    4    4    0    0  0.48951195310E+03  0.33601950551E+03  0.30744388180E+03  0.67449325787E+03  0.88816406916E+02 0.  0.
          3    1    3    3  502    0 -0.23307907837E+03 -0.95205315630E+02 -0.39045453625E+02  0.25478315554E+03  0.00000000000E+00 0. -1.
         -4    1    3    3    0  502 -0.11219339471E+03 -0.29680972091E+02  0.32638109575E+02  0.12055523265E+03  0.00000000000E+00 0.  1.
         13    1    5    5    0    0  0.10401584441E+02 -0.34925724446E+02  0.72220830118E+02  0.80894051017E+02  0.00000000000E+00 0.  1.
        -13    1    5    5    0    0 -0.15464106447E+03 -0.17620749334E+03  0.54224455766E+03  0.59075553306E+03  0.00000000000E+00 0. -1.
          1    1    6    6  503    0  0.11010257636E+03  0.45014532368E+02  0.90286106219E+02  0.14933340692E+03  0.00000000000E+00 0.  1.
         -1    1    6    6    0  503  0.37940937674E+03  0.29100497314E+03  0.21715777558E+03  0.52515985095E+03  0.00000000000E+00 0. -1.
<mgrwt>
<rscale>  0 0.14578593E+04</rscale>
<asrwt>0</asrwt>
<pdfrwt beam="1">  1        1 0.61998409E-01 0.14578593E+04</pdfrwt>
<pdfrwt beam="2">  1       -2 0.20284485E+00 0.14578593E+04</pdfrwt>
<totfact> 0.64149180E+00</totfact>
</mgrwt>
</event>
<event>
12    5  0.5029243E-008  0.1185470E+04  0.7818608E-02  0.9125671E-01
         -2   -1    0    0    0  501 -0.00000000000E+00  0.00000000000E+00  0.20887110790E+03  0.20887110790E+03  0.00000000000E+00 0.  1.
          1   -1    0    0  501    0  0.00000000000E+00 -0.00000000000E+00 -0.16820646247E+04  0.16820646247E+04  0.00000000000E+00 0. -1.
        -24    2    1    2    0    0 -0.11081971532E+03  0.20502848086E+03 -0.23780704174E+03  0.34231561671E+03  0.79436169803E+02 0.  0.
        254    2    1    2    0    0  0.11081971532E+03 -0.20502848086E+03 -0.12353864750E+04  0.15486201159E+04  0.90428249639E+03 0.  0.
         23    2    4    4    0    0  0.11372093483E+03  0.18841690191E+03 -0.10937617403E+04  0.11194007440E+04  0.91158659414E+02 0.  0.
         23    2    4    4    0    0 -0.29012195014E+01 -0.39344538278E+03 -0.14162473472E+03  0.42921937185E+03  0.96767853036E+02 0.  0.
          1    1    3    3  502    0 -0.18843468363E+02  0.10444250646E+03 -0.13428881449E+03  0.17116307766E+03  0.00000000000E+00 0. -1.
         -2    1    3    3    0  502 -0.91976246961E+02  0.10058597440E+03 -0.10351822725E+03  0.17115253906E+03  0.00000000000E+00 0.  1.
         13    1    5    5    0    0  0.10524474479E+03  0.19198095329E+03 -0.93167993180E+03  0.95705832531E+03  0.00000000000E+00 0.  1.
        -13    1    5    5    0    0  0.84761900327E+01 -0.35640513728E+01 -0.16208180850E+03  0.16234241869E+03  0.00000000000E+00 0. -1.
          4    1    6    6  503    0 -0.58138306968E+00 -0.68526782002E+02  0.12387933308E+02  0.69639922095E+02  0.00000000000E+00 0.  1.
         -4    1    6    6    0  503 -0.23198364318E+01 -0.32491860078E+03 -0.15401266803E+03  0.35957944975E+03  0.00000000000E+00 0. -1.
<mgrwt>
<rscale>  0 0.11854699E+04</rscale>
<asrwt>0</asrwt>
<pdfrwt beam="1">  1        1 0.25877916E+00 0.11854699E+04</pdfrwt>
<pdfrwt beam="2">  1       -2 0.32134018E-01 0.11854699E+04</pdfrwt>
<totfact> 0.38432434E+01</totfact>
</mgrwt>
</event>
<event>
12    5  0.5029243E-008  0.2559803E+04  0.7818608E-02  0.8381985E-01
          1   -1    0    0  501    0  0.00000000000E+00  0.00000000000E+00  0.22465399917E+04  0.22465399917E+04  0.00000000000E+00 0. -1.
         -2   -1    0    0    0  501 -0.00000000000E+00 -0.00000000000E+00 -0.72918715420E+03  0.72918715420E+03  0.00000000000E+00 0.  1.
        -24    2    1    2    0    0 -0.68342687516E+03  0.81526754005E+03  0.10603683129E+04  0.15041188426E+04  0.79114336486E+02 0.  0.
        254    2    1    2    0    0  0.68342687516E+03 -0.81526754005E+03  0.45698452466E+03  0.14716083033E+04  0.90832961367E+03 0.  0.
         23    2    4    4    0    0  0.70952672512E+03 -0.17869605139E+03  0.36015678099E+03  0.82068417146E+03  0.91919257808E+02 0.  0.
         23    2    4    4    0    0 -0.26099849961E+02 -0.63657148867E+03  0.96827743671E+02  0.65092413186E+03  0.91772278723E+02 0.  0.
          3    1    3    3  502    0 -0.64116605381E+03  0.78130616028E+03  0.10243031742E+04  0.14390032027E+04  0.00000000000E+00 0. -1.
         -4    1    3    3    0  502 -0.42260821347E+02  0.33961379776E+02  0.36065138645E+02  0.65115639924E+02  0.00000000000E+00 0.  1.
         13    1    5    5    0    0  0.67750887293E+03 -0.14887707613E+03  0.33786504775E+03  0.77157983850E+03  0.00000000000E+00 0. -1.
        -13    1    5    5    0    0  0.32017852189E+02 -0.29818975261E+02  0.22291733249E+02  0.49104332962E+02  0.00000000000E+00 0.  1.
          3    1    6    6  503    0 -0.40759045094E+02 -0.57537313046E+03  0.65183734780E+02  0.58048639802E+03  0.00000000000E+00 0. -1.
         -3    1    6    6    0  503  0.14659195133E+02 -0.61198358209E+02  0.31644008891E+02  0.70437733837E+02  0.00000000000E+00 0.  1.
<mgrwt>
<rscale>  0 0.25598032E+04</rscale>
<asrwt>0</asrwt>
<pdfrwt beam="1">  1        1 0.34562154E+00 0.25598032E+04</pdfrwt>
<pdfrwt beam="2">  1       -2 0.11218264E+00 0.25598032E+04</pdfrwt>
<totfact> 0.98523630E-01</totfact>
</mgrwt>
</event>
<event>
12    5  0.5029243E-008  0.2126801E+04  0.7818608E-02  0.8549528E-01
         -2   -1    0    0    0  501 -0.00000000000E+00  0.00000000000E+00  0.57128947226E+03  0.57128947226E+03  0.00000000000E+00 0.  1.
          1   -1    0    0  501    0  0.00000000000E+00 -0.00000000000E+00 -0.19794187115E+04  0.19794187115E+04  0.00000000000E+00 0. -1.
        -24    2    1    2    0    0 -0.77508781939E+02  0.79218589553E+03 -0.15469224504E+03  0.81476518221E+03  0.79664967982E+02 0.  0.
        254    2    1    2    0    0  0.77508781939E+02 -0.79218589553E+03 -0.12534369942E+04  0.17359430016E+04  0.89934848744E+03 0.  0.
         23    2    4    4    0    0 -0.18340179990E+03 -0.88537618464E+03 -0.97150283774E+03  0.13303458847E+04  0.92060852596E+02 0.  0.
         23    2    4    4    0    0  0.26091058184E+03  0.93190289112E+02 -0.28193415649E+03  0.40559711691E+03  0.90903195492E+02 0.  0.
          3    1    3    3  502    0 -0.15693147421E+02  0.41946916337E+03 -0.11271417118E+03  0.43463218735E+03  0.00000000000E+00 0. -1.
         -4    1    3    3    0  502 -0.61815634518E+02  0.37271673216E+03 -0.41978073859E+02  0.38013299486E+03  0.00000000000E+00 0.  1.
         13    1    5    5    0    0 -0.52812465798E+01 -0.14733168026E+03 -0.19364223019E+03  0.24337590039E+03  0.00000000000E+00 0.  1.
        -13    1    5    5    0    0 -0.17812055332E+03 -0.73804450438E+03 -0.77786060755E+03  0.10869699843E+04  0.00000000000E+00 0. -1.
          1    1    6    6  503    0  0.85277370006E+02 -0.12915567640E+02 -0.89216961497E+02  0.12409153050E+03  0.00000000000E+00 0. -1.
         -1    1    6    6    0  503  0.17563321183E+03  0.10610585675E+03 -0.19271719499E+03  0.28150558641E+03  0.00000000000E+00 0.  1.
<mgrwt>
<rscale>  0 0.21268014E+04</rscale>
<asrwt>0</asrwt>
<pdfrwt beam="1">  1        1 0.30452596E+00 0.21268014E+04</pdfrwt>
<pdfrwt beam="2">  1       -2 0.87890688E-01 0.21268014E+04</pdfrwt>
<totfact> 0.27680436E+00</totfact>
</mgrwt>
</event>
<event>
12    5  0.5029243E-008  0.1129320E+04  0.7818608E-02  0.9177077E-01
          1   -1    0    0  501    0  0.00000000000E+00  0.00000000000E+00  0.37680031928E+03  0.37680031928E+03  0.00000000000E+00 0. -1.
         -2   -1    0    0    0  501 -0.00000000000E+00 -0.00000000000E+00 -0.84618000296E+03  0.84618000296E+03  0.00000000000E+00 0.  1.
        -24    2    1    2    0    0  0.58675228966E+02  0.90003053356E+02 -0.24975798116E+03  0.28379675313E+03  0.81352417455E+02 0.  0.
        254    2    1    2    0    0 -0.58675228966E+02 -0.90003053356E+02 -0.21962170251E+03  0.93918356911E+03  0.90680138518E+03 0.  0.
         23    2    4    4    0    0 -0.15593485013E+03 -0.46310355564E+03 -0.28133773514E+02  0.49903010820E+03  0.97257179388E+02 0.  0.
         23    2    4    4    0    0  0.97259621161E+02  0.37310050229E+03 -0.19148792900E+03  0.44015346091E+03  0.91673461173E+02 0.  0.
          1    1    3    3  502    0  0.18550802403E+02 -0.64425375549E+01 -0.95498662207E+02  0.97496836068E+02  0.00000000000E+00 0. -1.
         -4    1    3    3    0  502  0.40124426564E+02  0.96445590910E+02 -0.15425931896E+03  0.18629991706E+03  0.00000000000E+00 0.  1.
         13    1    5    5    0    0 -0.14265328979E+03 -0.31556886919E+03  0.85658256107E+01  0.34642033090E+03  0.00000000000E+00 0.  1.
        -13    1    5    5    0    0 -0.13281560333E+02 -0.14753468646E+03 -0.36699599125E+02  0.15260977730E+03  0.00000000000E+00 0. -1.
          3    1    6    6  503    0 -0.10514009407E+02  0.46985960038E+01 -0.77162835105E+00  0.11541949945E+02  0.00000000000E+00 0. -1.
         -3    1    6    6    0  503  0.10777363057E+03  0.36840190628E+03 -0.19071630065E+03  0.42861151097E+03  0.00000000000E+00 0.  1.
<mgrwt>
<rscale>  0 0.11293200E+04</rscale>
<asrwt>0</asrwt>
<pdfrwt beam="1">  1        1 0.57969280E-01 0.11293200E+04</pdfrwt>
<pdfrwt beam="2">  1       -2 0.13018154E+00 0.11293200E+04</pdfrwt>
<totfact> 0.24404800E+01</totfact>
</mgrwt>
</event>
<event>
12    5  0.5029243E-008  0.1330217E+04  0.7818608E-02  0.9005940E-01
          1   -1    0    0  501    0  0.00000000000E+00  0.00000000000E+00  0.58701136712E+03  0.58701136712E+03  0.00000000000E+00 0. -1.
         -2   -1    0    0    0  501 -0.00000000000E+00 -0.00000000000E+00 -0.75359565513E+03  0.75359565513E+03  0.00000000000E+00 0.  1.
        -24    2    1    2    0    0 -0.23302007979E+03  0.22883594868E+03  0.10209908084E+03  0.35122396185E+03  0.79182069137E+02 0.  0.
        254    2    1    2    0    0  0.23302007979E+03 -0.22883594868E+03 -0.26868336885E+03  0.98938306040E+03  0.89444051704E+03 0.  0.
         23    2    4    4    0    0  0.27075404755E+03 -0.13289471284E+03 -0.57374913868E+03  0.65465632202E+03  0.91750023752E+02 0.  0.
         23    2    4    4    0    0 -0.37733967766E+02 -0.95941235844E+02  0.30506576982E+03  0.33472673838E+03  0.91368990434E+02 0.  0.
          3    1    3    3  502    0 -0.23884682651E+03  0.22221969715E+03  0.10358085589E+03  0.34228408383E+03  0.00000000000E+00 0. -1.
         -4    1    3    3    0  502  0.58267467214E+01  0.66162515326E+01 -0.14817750484E+01  0.89398780189E+01  0.00000000000E+00 0.  1.
         13    1    5    5    0    0  0.20509936240E+03 -0.90076885771E+02 -0.33189124033E+03  0.40041402225E+03  0.00000000000E+00 0. -1.
        -13    1    5    5    0    0  0.65654685149E+02 -0.42817827065E+02 -0.24185789835E+03  0.25424229977E+03  0.00000000000E+00 0.  1.
          1    1    6    6  503    0 -0.18132878382E+02 -0.99790054135E+02  0.29580349267E+03  0.31270843043E+03  0.00000000000E+00 0. -1.
         -1    1    6    6    0  503 -0.19601089384E+02  0.38488182906E+01  0.92622771487E+01  0.22018307956E+02  0.00000000000E+00 0.  1.
<mgrwt>
<rscale>  0 0.13302168E+04</rscale>
<asrwt>0</asrwt>
<pdfrwt beam="1">  1        1 0.90309442E-01 0.13302168E+04</pdfrwt>
<pdfrwt beam="2">  1       -2 0.11593779E+00 0.13302168E+04</pdfrwt>
<totfact> 0.17523883E+01</totfact>
</mgrwt>
</event>
<event>
12    5  0.5029243E-008  0.1398374E+04  0.7818608E-02  0.8954996E-01
          1   -1    0    0  501    0  0.00000000000E+00  0.00000000000E+00  0.17761927062E+03  0.17761927062E+03  0.00000000000E+00 0. -1.
         -2   -1    0    0    0  501 -0.00000000000E+00 -0.00000000000E+00 -0.27523063542E+04  0.27523063542E+04  0.00000000000E+00 0.  1.
        -24    2    1    2    0    0  0.10635755858E+03 -0.37499043871E+03 -0.10311716892E+04  0.11053251393E+04  0.80615455109E+02 0.  0.
        254    2    1    2    0    0 -0.10635755858E+03  0.37499043871E+03 -0.15435153943E+04  0.18246004855E+04  0.89151410512E+03 0.  0.
         23    2    4    4    0    0 -0.48114034407E+03  0.29989962877E+03 -0.97623654021E+03  0.11335292981E+04  0.10205424655E+03 0.  0.
         23    2    4    4    0    0  0.37478278549E+03  0.75090809936E+02 -0.56727885413E+03  0.69107118735E+03  0.98353045708E+02 0.  0.
          3    1    3    3  502    0 -0.61184754883E+00  0.28927659809E+00  0.13572244679E+01  0.15166069462E+01  0.00000000000E+00 0. -1.
         -4    1    3    3    0  502  0.10696940613E+03 -0.37527971531E+03 -0.10325289137E+04  0.11038085324E+04  0.00000000000E+00 0.  1.
         13    1    5    5    0    0 -0.40550812835E+03  0.27697410251E+03 -0.89048135341E+03  0.10169112726E+04  0.00000000000E+00 0.  1.
        -13    1    5    5    0    0 -0.75632215717E+02  0.22925526261E+02 -0.85755186803E+02  0.11661802550E+03  0.00000000000E+00 0. -1.
          2    1    6    6  503    0  0.72442921647E+02  0.47033041300E+02 -0.17359945235E+03  0.19389908130E+03  0.00000000000E+00 0. -1.
         -2    1    6    6    0  503  0.30233986385E+03  0.28057768636E+02 -0.39367940178E+03  0.49717210605E+03  0.00000000000E+00 0.  1.
<mgrwt>
<rscale>  0 0.13983743E+04</rscale>
<asrwt>0</asrwt>
<pdfrwt beam="1">  1        1 0.27326042E-01 0.13983743E+04</pdfrwt>
<pdfrwt beam="2">  1       -2 0.42343175E+00 0.13983743E+04</pdfrwt>
<totfact> 0.77846804E-01</totfact>
</mgrwt>
</event>
<event>
12    5  0.5029243E-008  0.1381938E+04  0.7818608E-02  0.8966998E-01
         -2   -1    0    0    0  501 -0.00000000000E+00  0.00000000000E+00  0.40222919124E+03  0.40222919124E+03  0.00000000000E+00 0.  1.
          1   -1    0    0  501    0  0.00000000000E+00 -0.00000000000E+00 -0.11869803296E+04  0.11869803296E+04  0.00000000000E+00 0. -1.
        -24    2    1    2    0    0  0.17096672605E+03  0.35397606768E+03 -0.26035493295E+03  0.47838179548E+03  0.80844129194E+02 0.  0.
        254    2    1    2    0    0 -0.17096672605E+03 -0.35397606768E+03 -0.52439620543E+03  0.11108277254E+04  0.89689362653E+03 0.  0.
         23    2    4    4    0    0  0.16860067601E+03 -0.52118075976E+03 -0.16166314801E+03  0.57820573361E+03  0.90173857930E+02 0.  0.
         23    2    4    4    0    0 -0.33956740206E+03  0.16720469208E+03 -0.36273305741E+03  0.53262199178E+03  0.94061073735E+02 0.  0.
          3    1    3    3  502    0  0.90945120499E+02  0.23984761673E+03 -0.20516182587E+03  0.32846501943E+03  0.00000000000E+00 0. -1.
         -4    1    3    3    0  502  0.80021605551E+02  0.11412845095E+03 -0.55193107077E+02  0.14991677605E+03  0.00000000000E+00 0.  1.
         13    1    5    5    0    0  0.17387888374E+03 -0.48375166935E+03 -0.16592397051E+03  0.54016692587E+03  0.00000000000E+00 0. -1.
        -13    1    5    5    0    0 -0.52782077306E+01 -0.37429090412E+02  0.42608225007E+01  0.38038807740E+02  0.00000000000E+00 0.  1.
          4    1    6    6  503    0 -0.30700763482E+03  0.17800733413E+03 -0.32024601925E+03  0.47801444715E+03  0.00000000000E+00 0. -1.
         -4    1    6    6    0  503 -0.32559767238E+02 -0.10802642054E+02 -0.42487038168E+02  0.54607544627E+02  0.00000000000E+00 0.  1.
<mgrwt>
<rscale>  0 0.13819380E+04</rscale>
<asrwt>0</asrwt>
<pdfrwt beam="1">  1        1 0.18261236E+00 0.13819380E+04</pdfrwt>
<pdfrwt beam="2">  1       -2 0.61881413E-01 0.13819380E+04</pdfrwt>
<totfact> 0.22688874E+01</totfact>
</mgrwt>
</event>
<event>
12    5  0.5029243E-008  0.1578882E+04  0.7818608E-02  0.8833628E-01
          1   -1    0    0  501    0  0.00000000000E+00  0.00000000000E+00  0.18085468332E+04  0.18085468332E+04  0.00000000000E+00 0. -1.
         -2   -1    0    0    0  501 -0.00000000000E+00 -0.00000000000E+00 -0.34459531285E+03  0.34459531285E+03  0.00000000000E+00 0.  1.
        -24    2    1    2    0    0 -0.72473040154E+02 -0.47923573760E+03  0.78659442646E+03  0.92730701768E+03  0.79046059735E+02 0.  0.
        254    2    1    2    0    0  0.72473040154E+02  0.47923573760E+03  0.67735709385E+03  0.12258351283E+04  0.89941086024E+03 0.  0.
         23    2    4    4    0    0  0.38731088784E+03  0.51147870909E+03  0.60837783349E+03  0.88879636874E+03  0.90637757713E+02 0.  0.
         23    2    4    4    0    0 -0.31483784768E+03 -0.32242971490E+02  0.68979260364E+02  0.33703875959E+03  0.93137036451E+02 0.  0.
          3    1    3    3  502    0 -0.67109248669E+02 -0.26341742836E+03  0.38391115383E+03  0.47040425897E+03  0.00000000000E+00 0. -1.
         -4    1    3    3    0  502 -0.53637914858E+01 -0.21581830924E+03  0.40268327264E+03  0.45690275872E+03  0.00000000000E+00 0.  1.
         13    1    5    5    0    0  0.16019696420E+03  0.25198584940E+03  0.23043969538E+03  0.37717686679E+03  0.00000000000E+00 0.  1.
        -13    1    5    5    0    0  0.22711392364E+03  0.25949285969E+03  0.37793813811E+03  0.51161950195E+03  0.00000000000E+00 0. -1.
          3    1    6    6  503    0 -0.84745768801E+02 -0.51004573396E+02  0.25171021803E+02  0.10206317737E+03  0.00000000000E+00 0.  1.
         -3    1    6    6    0  503 -0.23009207888E+03  0.18761601906E+02  0.43808238561E+02  0.23497558221E+03  0.00000000000E+00 0. -1.
<mgrwt>
<rscale>  0 0.15788816E+04</rscale>
<asrwt>0</asrwt>
<pdfrwt beam="1">  1        1 0.27823797E+00 0.15788816E+04</pdfrwt>
<pdfrwt beam="2">  1       -2 0.53014665E-01 0.15788816E+04</pdfrwt>
<totfact> 0.11381904E+01</totfact>
</mgrwt>
</event>
<event>
12    5  0.5029243E-008  0.1493066E+04  0.7818608E-02  0.8889077E-01
         -2   -1    0    0    0  501 -0.00000000000E+00  0.00000000000E+00  0.67131903991E+03  0.67131903991E+03  0.00000000000E+00 0.  1.
          1   -1    0    0  501    0  0.00000000000E+00 -0.00000000000E+00 -0.83017391476E+03  0.83017391476E+03  0.00000000000E+00 0. -1.
        -24    2    1    2    0    0  0.17213527272E+03  0.17546728478E+03 -0.46641231363E+03  0.53327202316E+03  0.80120435795E+02 0.  0.
        254    2    1    2    0    0 -0.17213527272E+03 -0.17546728478E+03  0.30755743878E+03  0.96822093151E+03  0.88455687998E+03 0.  0.
         23    2    4    4    0    0 -0.41505837582E+03  0.19354369903E+03  0.14877911446E+03  0.49024928273E+03  0.92067994139E+02 0.  0.
         23    2    4    4    0    0  0.24292310310E+03 -0.36901098381E+03  0.15877832432E+03  0.47797164878E+03  0.89808688738E+02 0.  0.
          3    1    3    3  502    0  0.98166344656E+02  0.12624307990E+03 -0.36467576368E+03  0.39819889385E+03  0.00000000000E+00 0. -1.
         -4    1    3    3    0  502  0.73968928067E+02  0.49224204877E+02 -0.10173654995E+03  0.13507312931E+03  0.00000000000E+00 0.  1.
         13    1    5    5    0    0 -0.37094543249E+03  0.17086331917E+03  0.16127919908E+03  0.43909653583E+03  0.00000000000E+00 0.  1.
        -13    1    5    5    0    0 -0.44112943332E+02  0.22680379857E+02 -0.12500084619E+02  0.51152746900E+02  0.00000000000E+00 0. -1.
          4    1    6    6  503    0 -0.13216178310E+01  0.44118686912E+01  0.20404213087E+01  0.50373185482E+01  0.00000000000E+00 0. -1.
         -4    1    6    6    0  503  0.24424472093E+03 -0.37342285250E+03  0.15673790302E+03  0.47293433023E+03  0.00000000000E+00 0.  1.
<mgrwt>
<rscale>  0 0.14930660E+04</rscale>
<asrwt>0</asrwt>
<pdfrwt beam="1">  1        1 0.12771906E+00 0.14930660E+04</pdfrwt>
<pdfrwt beam="2">  1       -2 0.10327985E+00 0.14930660E+04</pdfrwt>
<totfact> 0.13503314E+01</totfact>
</mgrwt>
</event>
<event>
12    5  0.5029243E-008  0.1525953E+04  0.7818608E-02  0.8867375E-01
          1   -1    0    0  501    0  0.00000000000E+00  0.00000000000E+00  0.18266697841E+04  0.18266697841E+04  0.00000000000E+00 0. -1.
         -4   -1    0    0    0  501 -0.00000000000E+00 -0.00000000000E+00 -0.31868562109E+03  0.31868562109E+03  0.00000000000E+00 0.  1.
        -24    2    1    2    0    0  0.17958584936E+03  0.36436157084E+03  0.98349768528E+02  0.42574671408E+03  0.81099666968E+02 0.  0.
        254    2    1    2    0    0 -0.17958584936E+03 -0.36436157084E+03  0.14096343945E+04  0.17196086911E+04  0.89720370755E+03 0.  0.
         23    2    4    4    0    0  0.30419503373E+03  0.41302032886E+01  0.76625022877E+03  0.82973656997E+03  0.93657275853E+02 0.  0.
         23    2    4    4    0    0 -0.48378088309E+03 -0.36849177413E+03  0.64338416569E+03  0.88987212113E+03  0.89994871269E+02 0.  0.
          3    1    3    3  502    0  0.54118286294E+02  0.74734725807E+02  0.54269770107E+02  0.10704800839E+03  0.00000000000E+00 0. -1.
         -2    1    3    3    0  502  0.12546756306E+03  0.28962684503E+03  0.44079998421E+02  0.31869870569E+03  0.00000000000E+00 0.  1.
         13    1    5    5    0    0  0.68225324491E+02  0.30385397255E+02  0.12102748197E+03  0.14221680161E+03  0.00000000000E+00 0. -1.
        -13    1    5    5    0    0  0.23596970924E+03 -0.26255193967E+02  0.64522274680E+03  0.68751976836E+03  0.00000000000E+00 0.  1.
          4    1    6    6  503    0 -0.99806560092E+02 -0.98115071427E+02  0.19932030530E+03  0.24354979118E+03  0.00000000000E+00 0. -1.
         -4    1    6    6    0  503 -0.38397432300E+03 -0.27037670270E+03  0.44406386040E+03  0.64632232996E+03  0.00000000000E+00 0.  1.
<mgrwt>
<rscale>  0 0.15259533E+04</rscale>
<asrwt>0</asrwt>
<pdfrwt beam="1">  1        1 0.28102611E+00 0.15259533E+04</pdfrwt>
<pdfrwt beam="2">  1       -4 0.49028558E-01 0.15259533E+04</pdfrwt>
<totfact> 0.74839387E+00</totfact>
</mgrwt>
</event>
<event>
12    5  0.5029243E-008  0.1567854E+04  0.7818608E-02  0.8840544E-01
          1   -1    0    0  501    0  0.00000000000E+00  0.00000000000E+00  0.14833902409E+04  0.14833902409E+04  0.00000000000E+00 0. -1.
         -2   -1    0    0    0  501 -0.00000000000E+00 -0.00000000000E+00 -0.41428179202E+03  0.41428179202E+03  0.00000000000E+00 0.  1.
        -24    2    1    2    0    0 -0.16304625122E+03  0.10080333094E+03  0.95199784418E+03  0.97438667725E+03  0.79900625310E+02 0.  0.
        254    2    1    2    0    0  0.16304625122E+03 -0.10080333094E+03  0.11711060471E+03  0.92328535568E+03  0.89554204966E+03 0.  0.
         23    2    4    4    0    0  0.14011391338E+03 -0.45872612694E+03  0.22677421854E+03  0.53755561855E+03  0.86475017116E+02 0.  0.
         23    2    4    4    0    0  0.22932337837E+02  0.35792279600E+03 -0.10966361383E+03  0.38572973712E+03  0.90148221778E+02 0.  0.
          1    1    3    3  502    0 -0.25009525371E+02  0.37671476562E+02  0.37659747136E+03  0.37930234898E+03  0.00000000000E+00 0. -1.
         -2    1    3    3    0  502 -0.13803672585E+03  0.63131854378E+02  0.57540037282E+03  0.59508432827E+03  0.00000000000E+00 0.  1.
         13    1    5    5    0    0  0.68308640669E+02 -0.23821096104E+03  0.16445965580E+03  0.29741807399E+03  0.00000000000E+00 0. -1.
        -13    1    5    5    0    0  0.71805272712E+02 -0.22051516590E+03  0.62314562746E+02  0.24013754457E+03  0.00000000000E+00 0.  1.
          4    1    6    6  503    0  0.26992567351E+02  0.34425525302E+03 -0.12264732423E+03  0.36644596337E+03  0.00000000000E+00 0. -1.
         -4    1    6    6    0  503 -0.40602295143E+01  0.13667542972E+02  0.12983710397E+02  0.19283773756E+02  0.00000000000E+00 0.  1.
<mgrwt>
<rscale>  0 0.15678540E+04</rscale>
<asrwt>0</asrwt>
<pdfrwt beam="1">  1        1 0.22821388E+00 0.15678540E+04</pdfrwt>
<pdfrwt beam="2">  1       -2 0.63735661E-01 0.15678540E+04</pdfrwt>
<totfact> 0.12913708E+01</totfact>
</mgrwt>
</event>
<event>
12    5  0.5029243E-008  0.1304970E+04  0.7818608E-02  0.9025633E-01
         -2   -1    0    0    0  501 -0.00000000000E+00  0.00000000000E+00  0.24204770342E+03  0.24204770342E+03  0.00000000000E+00 0.  1.
          1   -1    0    0  501    0  0.00000000000E+00 -0.00000000000E+00 -0.17588961739E+04  0.17588961739E+04  0.00000000000E+00 0. -1.
        -24    2    1    2    0    0 -0.17700479019E+03  0.26885062640E+03 -0.36052766669E+03  0.48958972676E+03  0.78144398581E+02 0.  0.
        254    2    1    2    0    0  0.17700479019E+03 -0.26885062640E+03 -0.11563208038E+04  0.15113541506E+04  0.91842376500E+03 0.  0.
         23    2    4    4    0    0 -0.12219090784E+03 -0.31240448683E+02 -0.11046059294E+04  0.11156788936E+04  0.93158739719E+02 0.  0.
         23    2    4    4    0    0  0.29919569803E+03 -0.23761017772E+03 -0.51714874404E+02  0.39567525698E+03  0.88925915660E+02 0.  0.
          1    1    3    3  502    0 -0.16345332351E+03  0.27171810118E+03 -0.34100547969E+03  0.46565271679E+03  0.00000000000E+00 0. -1.
         -2    1    3    3    0  502 -0.13551466677E+02 -0.28674747813E+01 -0.19522187002E+02  0.23937009965E+02  0.00000000000E+00 0.  1.
         13    1    5    5    0    0 -0.11071570839E+03  0.68311893114E+01 -0.93058038195E+03  0.93716833093E+03  0.00000000000E+00 0.  1.
        -13    1    5    5    0    0 -0.11475199449E+02 -0.38071637995E+02 -0.17402554746E+03  0.17851056269E+03  0.00000000000E+00 0. -1.
          1    1    6    6  503    0  0.16249573830E+03 -0.74061981906E+02 -0.34000736020E+02  0.18178584153E+03  0.00000000000E+00 0. -1.
         -1    1    6    6    0  503  0.13669995972E+03 -0.16354819581E+03 -0.17714138384E+02  0.21388941545E+03  0.00000000000E+00 0.  1.
<mgrwt>
<rscale>  0 0.13049702E+04</rscale>
<asrwt>0</asrwt>
<pdfrwt beam="1">  1        1 0.27059943E+00 0.13049702E+04</pdfrwt>
<pdfrwt beam="2">  1       -2 0.37238106E-01 0.13049702E+04</pdfrwt>
<totfact> 0.25475812E+01</totfact>
</mgrwt>
</event>
<event>
12    5  0.5029243E-008  0.1132562E+04  0.7818608E-02  0.9174023E-01
         -2   -1    0    0    0  501 -0.00000000000E+00  0.00000000000E+00  0.14281149183E+03  0.14281149183E+03  0.00000000000E+00 0.  1.
          1   -1    0    0  501    0  0.00000000000E+00 -0.00000000000E+00 -0.22454369727E+04  0.22454369727E+04  0.00000000000E+00 0. -1.
        -24    2    1    2    0    0  0.47004188909E+02 -0.16739891899E+03 -0.43751109340E+03  0.47721313130E+03  0.78003999772E+02 0.  0.
        254    2    1    2    0    0 -0.47004188909E+02  0.16739891899E+03 -0.16651143875E+04  0.19110353333E+04  0.92153042795E+03 0.  0.
         23    2    4    4    0    0 -0.14317641836E+03  0.44479245303E+03 -0.14731493890E+04  0.15485050352E+04  0.96741452603E+02 0.  0.
         23    2    4    4    0    0  0.96172229450E+02 -0.27739353403E+03 -0.19196499850E+03  0.36253029807E+03  0.91549909496E+02 0.  0.
          3    1    3    3  502    0  0.49721447333E+02 -0.13242625813E+03 -0.40644491216E+03  0.43035613484E+03  0.00000000000E+00 0. -1.
         -4    1    3    3    0  502 -0.27172584233E+01 -0.34972660859E+02 -0.31066181242E+02  0.46856996467E+02  0.00000000000E+00 0.  1.
         13    1    5    5    0    0 -0.12199458959E+03  0.32558376264E+03 -0.95282369128E+03  0.10142782917E+04  0.00000000000E+00 0. -1.
        -13    1    5    5    0    0 -0.21181828769E+02  0.11920869039E+03 -0.52032569771E+03  0.53422674347E+03  0.00000000000E+00 0.  1.
          3    1    6    6  503    0 -0.10071644377E+02 -0.19391556576E+02 -0.38036609576E+02  0.43866321420E+02  0.00000000000E+00 0. -1.
         -3    1    6    6    0  503  0.10624387383E+03 -0.25800197746E+03 -0.15392838893E+03  0.31866397665E+03  0.00000000000E+00 0.  1.
<mgrwt>
<rscale>  0 0.11325621E+04</rscale>
<asrwt>0</asrwt>
<pdfrwt beam="1">  1        1 0.34545187E+00 0.11325621E+04</pdfrwt>
<pdfrwt beam="2">  1       -2 0.21970997E-01 0.11325621E+04</pdfrwt>
<totfact> 0.32200236E+01</totfact>
</mgrwt>
</event>
<event>
12    5  0.5029243E-008  0.3434341E+04  0.7818608E-02  0.8129529E-01
          1   -1    0    0  501    0  0.00000000000E+00  0.00000000000E+00  0.21444938036E+04  0.21444938036E+04  0.00000000000E+00 0. -1.
         -2   -1    0    0    0  501 -0.00000000000E+00 -0.00000000000E+00 -0.13749976859E+04  0.13749976859E+04  0.00000000000E+00 0.  1.
        -24    2    1    2    0    0 -0.13421970717E+02  0.15538946467E+04  0.72619737607E+03  0.17171027304E+04  0.79438247998E+02 0.  0.
        254    2    1    2    0    0  0.13421970717E+02 -0.15538946467E+04  0.43298741590E+02  0.18023887591E+04  0.91211936473E+03 0.  0.
         23    2    4    4    0    0 -0.28090834876E+03 -0.11986919979E+04  0.29590952555E+03  0.12696405609E+04  0.93019892491E+02 0.  0.
         23    2    4    4    0    0  0.29433031948E+03 -0.35520264885E+03 -0.25261078396E+03  0.53274819821E+03  0.84906865504E+02 0.  0.
          3    1    3    3  502    0 -0.22457102304E+02  0.98809612822E+03  0.50086354987E+03  0.11080174076E+04  0.00000000000E+00 0. -1.
         -4    1    3    3    0  502  0.90351315874E+01  0.56579851848E+03  0.22533382620E+03  0.60908532271E+03  0.00000000000E+00 0.  1.
         13    1    5    5    0    0 -0.17931195510E+03 -0.56560308873E+03  0.15180107667E+03  0.61245669080E+03  0.00000000000E+00 0.  1.
        -13    1    5    5    0    0 -0.10159639366E+03 -0.63308890912E+03  0.14410844887E+03  0.65718387008E+03  0.00000000000E+00 0. -1.
          2    1    6    6  503    0  0.14920359783E+03 -0.20898052911E+03 -0.96682565303E+02  0.27437582544E+03  0.00000000000E+00 0.  1.
         -2    1    6    6    0  503  0.14512672165E+03 -0.14622211974E+03 -0.15592821865E+03  0.25837237277E+03  0.00000000000E+00 0. -1.
<mgrwt>
<rscale>  0 0.34343407E+04</rscale>
<asrwt>0</asrwt>
<pdfrwt beam="1">  1        1 0.32992213E+00 0.34343407E+04</pdfrwt>
<pdfrwt beam="2">  1       -2 0.21153810E+00 0.34343407E+04</pdfrwt>
<totfact> 0.19193262E-01</totfact>
</mgrwt>
</event>
<event>
12    5  0.5029243E-008  0.1453550E+04  0.7818608E-02  0.8915943E-01
          1   -1    0    0  501    0  0.00000000000E+00  0.00000000000E+00  0.44764535593E+03  0.44764535593E+03  0.00000000000E+00 0. -1.
         -2   -1    0    0    0  501 -0.00000000000E+00 -0.00000000000E+00 -0.11799568922E+04  0.11799568922E+04  0.00000000000E+00 0.  1.
        -24    2    1    2    0    0 -0.25091590379E+03  0.12655619303E+03  0.14613401296E+03  0.32563470475E+03  0.75548331675E+02 0.  0.
        254    2    1    2    0    0  0.25091590379E+03 -0.12655619303E+03 -0.87844554921E+03  0.13019675434E+04  0.91895464539E+03 0.  0.
         23    2    4    4    0    0  0.32956738807E+03  0.28163724487E+03 -0.72337465210E+03  0.84852029673E+03  0.93710221869E+02 0.  0.
         23    2    4    4    0    0 -0.78651484281E+02 -0.40819343790E+03 -0.15507089712E+03  0.45344724664E+03  0.93592113086E+02 0.  0.
          1    1    3    3  502    0 -0.81538369238E+02  0.77916597102E+02  0.75841455502E+02  0.13590963224E+03  0.00000000000E+00 0. -1.
         -2    1    3    3    0  502 -0.16937753456E+03  0.48639595932E+02  0.70292557461E+02  0.18972507251E+03  0.00000000000E+00 0.  1.
         13    1    5    5    0    0  0.14558682872E+03  0.15204874254E+03 -0.43012244156E+03  0.47887332306E+03  0.00000000000E+00 0.  1.
        -13    1    5    5    0    0  0.18398055936E+03  0.12958850233E+03 -0.29325221054E+03  0.36964697367E+03  0.00000000000E+00 0. -1.
          2    1    6    6  503    0 -0.29891796897E+02 -0.13509389217E+03 -0.59477601344E+01  0.13848918757E+03  0.00000000000E+00 0. -1.
         -2    1    6    6    0  503 -0.48759687384E+02 -0.27309954573E+03 -0.14912313698E+03  0.31495805908E+03  0.00000000000E+00 0.  1.
<mgrwt>
<rscale>  0 0.14535504E+04</rscale>
<asrwt>0</asrwt>
<pdfrwt beam="1">  1        1 0.68868517E-01 0.14535504E+04</pdfrwt>
<pdfrwt beam="2">  1       -2 0.18153183E+00 0.14535504E+04</pdfrwt>
<totfact> 0.77386103E+00</totfact>
</mgrwt>
</event>
<event>
12    5  0.5029243E-008  0.1662915E+04  0.7818608E-02  0.8782803E-01
         -2   -1    0    0    0  501 -0.00000000000E+00  0.00000000000E+00  0.70519254154E+03  0.70519254154E+03  0.00000000000E+00 0.  1.
          1   -1    0    0  501    0  0.00000000000E+00 -0.00000000000E+00 -0.98033010080E+03  0.98033010080E+03  0.00000000000E+00 0. -1.
        -24    2    1    2    0    0 -0.12028863815E+03  0.50782695033E+03 -0.35950223754E+03  0.63884241047E+03  0.80747747168E+02 0.  0.
        254    2    1    2    0    0  0.12028863815E+03 -0.50782695033E+03  0.84364678291E+02  0.10466802319E+04  0.90336290653E+03 0.  0.
         23    2    4    4    0    0 -0.20832339974E+03 -0.11157981175E+03  0.37203802575E+03  0.44954821668E+03  0.88502052220E+02 0.  0.
         23    2    4    4    0    0  0.32861203789E+03 -0.39624713858E+03 -0.28767334746E+03  0.59713201519E+03  0.93877699398E+02 0.  0.
          1    1    3    3  502    0 -0.82777871133E+02  0.30896000813E+03 -0.26555325953E+03  0.41572466396E+03  0.00000000000E+00 0. -1.
         -4    1    3    3    0  502 -0.37510767015E+02  0.19886694220E+03 -0.93948978011E+02  0.22311774652E+03  0.00000000000E+00 0.  1.
         13    1    5    5    0    0 -0.20673034567E+03 -0.83510316323E+02  0.34326966636E+03  0.40932318844E+03  0.00000000000E+00 0.  1.
        -13    1    5    5    0    0 -0.15930540717E+01 -0.28069495429E+02  0.28768359392E+02  0.40225028241E+02  0.00000000000E+00 0. -1.
          2    1    6    6  503    0  0.50494437356E+02 -0.19197913138E+02 -0.39634840580E+02  0.67001258648E+02  0.00000000000E+00 0. -1.
         -2    1    6    6    0  503  0.27811760054E+03 -0.37704922544E+03 -0.24803850688E+03  0.53013075654E+03  0.00000000000E+00 0.  1.
<mgrwt>
<rscale>  0 0.16629149E+04</rscale>
<asrwt>0</asrwt>
<pdfrwt beam="1">  1        1 0.15082001E+00 0.16629149E+04</pdfrwt>
<pdfrwt beam="2">  1       -2 0.10849116E+00 0.16629149E+04</pdfrwt>
<totfact> 0.89130171E+00</totfact>
</mgrwt>
</event>
<event>
12    5  0.5029243E-008  0.2298424E+04  0.7818608E-02  0.8478543E-01
          1   -1    0    0  501    0  0.00000000000E+00  0.00000000000E+00  0.27932640649E+04  0.27932640649E+04  0.00000000000E+00 0. -1.
         -2   -1    0    0    0  501 -0.00000000000E+00 -0.00000000000E+00 -0.47281187361E+03  0.47281187361E+03  0.00000000000E+00 0.  1.
        -24    2    1    2    0    0 -0.34519066199E+03  0.29282404765E+03 -0.23633296600E+03  0.51738779539E+03  0.83272708542E+02 0.  0.
        254    2    1    2    0    0  0.34519066199E+03 -0.29282404765E+03  0.25567851573E+04  0.27486881432E+04  0.90179468376E+03 0.  0.
         23    2    4    4    0    0  0.57673447289E+03  0.31879209517E+02  0.12613215740E+04  0.13900801833E+04  0.88044685320E+02 0.  0.
         23    2    4    4    0    0 -0.23154381089E+03 -0.32470325717E+03  0.12954635833E+04  0.13586079599E+04  0.92438906617E+02 0.  0.
          1    1    3    3  502    0 -0.61208323613E+02  0.16708504430E+02 -0.22891586338E+02  0.67451150656E+02  0.00000000000E+00 0. -1.
         -2    1    3    3    0  502 -0.28398233838E+03  0.27611554322E+03 -0.21344137966E+03  0.44993664473E+03  0.00000000000E+00 0.  1.
         13    1    5    5    0    0  0.41982956080E+03  0.34214385173E+02  0.82328965469E+03  0.92478826755E+03  0.00000000000E+00 0. -1.
        -13    1    5    5    0    0  0.15690491208E+03 -0.23351756560E+01  0.43803191935E+03  0.46529191574E+03  0.00000000000E+00 0.  1.
          3    1    6    6  503    0 -0.21326283267E+03 -0.23365877674E+03  0.10173732627E+04  0.10654228341E+04  0.00000000000E+00 0. -1.
         -3    1    6    6    0  503 -0.18280978221E+02 -0.91044480431E+02  0.27809032060E+03  0.29318512581E+03  0.00000000000E+00 0.  1.
<mgrwt>
<rscale>  0 0.22984242E+04</rscale>
<asrwt>0</asrwt>
<pdfrwt beam="1">  1        1 0.42973292E+00 0.22984242E+04</pdfrwt>
<pdfrwt beam="2">  1       -2 0.72740290E-01 0.22984242E+04</pdfrwt>
<totfact> 0.11442706E+00</totfact>
</mgrwt>
</event>
<event>
12    5  0.5029243E-008  0.2276113E+04  0.7818608E-02  0.8487399E-01
         -2   -1    0    0    0  501 -0.00000000000E+00  0.00000000000E+00  0.71755749241E+03  0.71755749241E+03  0.00000000000E+00 0.  1.
          1   -1    0    0  501    0  0.00000000000E+00 -0.00000000000E+00 -0.18049745139E+04  0.18049745139E+04  0.00000000000E+00 0. -1.
        -24    2    1    2    0    0 -0.33878981672E+03 -0.90165862930E+02 -0.14529403096E+04  0.14967720010E+04  0.79890279888E+02 0.  0.
        254    2    1    2    0    0  0.33878981672E+03  0.90165862930E+02  0.36552328815E+03  0.10257600053E+04  0.89200218137E+03 0.  0.
         23    2    4    4    0    0  0.58310534876E+03  0.10602227965E+03  0.45164811733E+03  0.75071458322E+03  0.91289605365E+02 0.  0.
         23    2    4    4    0    0 -0.24431553204E+03 -0.15856416718E+02 -0.86124829171E+02  0.27504542209E+03  0.91054889305E+02 0.  0.
          1    1    3    3  502    0 -0.28690419876E+03 -0.55248131668E+02 -0.10898472059E+04  0.11283320910E+04  0.00000000000E+00 0. -1.
         -2    1    3    3    0  502 -0.51885617954E+02 -0.34917731263E+02 -0.36309310371E+03  0.36843990998E+03  0.00000000000E+00 0.  1.
         13    1    5    5    0    0  0.33087161255E+02  0.12631649377E+02  0.57882477015E+02  0.67857939486E+02  0.00000000000E+00 0.  1.
        -13    1    5    5    0    0  0.55001818750E+03  0.93390630271E+02  0.39376564031E+03  0.68285664374E+03  0.00000000000E+00 0. -1.
          3    1    6    6  503    0 -0.19290919207E+03  0.15287371498E+02 -0.92720007929E+02  0.21458019476E+03  0.00000000000E+00 0. -1.
         -3    1    6    6    0  503 -0.51406339974E+02 -0.31143788216E+02  0.65951787574E+01  0.60465227336E+02  0.00000000000E+00 0.  1.
<mgrwt>
<rscale>  0 0.22761133E+04</rscale>
<asrwt>0</asrwt>
<pdfrwt beam="1">  1        1 0.27768839E+00 0.22761133E+04</pdfrwt>
<pdfrwt beam="2">  1       -2 0.11039346E+00 0.22761133E+04</pdfrwt>
<totfact> 0.20946950E+00</totfact>
</mgrwt>
</event>
<event>
12    5  0.5029243E-008  0.1438111E+04  0.7818608E-02  0.8926685E-01
         -2   -1    0    0    0  501 -0.00000000000E+00  0.00000000000E+00  0.35975542062E+03  0.35975542062E+03  0.00000000000E+00 0.  1.
          1   -1    0    0  501    0  0.00000000000E+00 -0.00000000000E+00 -0.14372002401E+04  0.14372002401E+04  0.00000000000E+00 0. -1.
        -24    2    1    2    0    0  0.12330112490E+03 -0.36079489724E+03 -0.59020383473E+03  0.70714281836E+03  0.79588150865E+02 0.  0.
        254    2    1    2    0    0 -0.12330112490E+03  0.36079489724E+03 -0.48724098480E+03  0.10898128424E+04  0.89716895229E+03 0.  0.
         23    2    4    4    0    0  0.19438086524E+03  0.54488740946E+03 -0.37285705637E+03  0.69444317636E+03  0.92426895130E+02 0.  0.
         23    2    4    4    0    0 -0.31768199014E+03 -0.18409251223E+03 -0.11438392842E+03  0.39536966605E+03  0.91769220505E+02 0.  0.
          3    1    3    3  502    0  0.12951027124E+03 -0.32253297839E+03 -0.49970156983E+03  0.60868882970E+03  0.00000000000E+00 0. -1.
         -4    1    3    3    0  502 -0.62091463450E+01 -0.38261918845E+02 -0.90502264899E+02  0.98453988664E+02  0.00000000000E+00 0.  1.
         13    1    5    5    0    0  0.13611027202E+03  0.44699728712E+03 -0.33289180275E+03  0.57371555076E+03  0.00000000000E+00 0.  1.
        -13    1    5    5    0    0  0.58270593225E+02  0.97890122344E+02 -0.39965253625E+02  0.12072762561E+03  0.00000000000E+00 0. -1.
          4    1    6    6  503    0 -0.28434353176E+03 -0.15797136465E+03 -0.12990939623E+03  0.35026082757E+03  0.00000000000E+00 0.  1.
         -4    1    6    6    0  503 -0.33338458382E+02 -0.26121147580E+02  0.15525467807E+02  0.45108838478E+02  0.00000000000E+00 0. -1.
<mgrwt>
<rscale>  0 0.14381107E+04</rscale>
<asrwt>0</asrwt>
<pdfrwt beam="1">  1        1 0.22110773E+00 0.14381107E+04</pdfrwt>
<pdfrwt beam="2">  1       -2 0.55346988E-01 0.14381107E+04</pdfrwt>
<totfact> 0.18935175E+01</totfact>
</mgrwt>
</event>
<event>
12    5  0.5029243E-008  0.1606330E+04  0.7818608E-02  0.8816669E-01
          1   -1    0    0  501    0  0.00000000000E+00  0.00000000000E+00  0.18388766553E+04  0.18388766553E+04  0.00000000000E+00 0. -1.
         -2   -1    0    0    0  501 -0.00000000000E+00 -0.00000000000E+00 -0.35079776946E+03  0.35079776946E+03  0.00000000000E+00 0.  1.
        -24    2    1    2    0    0 -0.16655356994E+03 -0.26046701255E+03  0.11255303455E+04  0.11700356591E+04  0.81127853048E+02 0.  0.
        254    2    1    2    0    0  0.16655356994E+03  0.26046701255E+03  0.36254854037E+03  0.10196387657E+04  0.90146470378E+03 0.  0.
         23    2    4    4    0    0 -0.19209719078E+03 -0.15342700370E+03  0.38421865439E+03  0.46404549880E+03  0.85282321767E+02 0.  0.
         23    2    4    4    0    0  0.35865076072E+03  0.41389401625E+03 -0.21670114017E+02  0.55559326693E+03  0.90970652182E+02 0.  0.
          1    1    3    3  502    0 -0.13969854641E+03 -0.25613989577E+03  0.10488601105E+04  0.10886830859E+04  0.00000000000E+00 0. -1.
         -4    1    3    3    0  502 -0.26855023532E+02 -0.43271167806E+01  0.76670235011E+02  0.81352573193E+02  0.00000000000E+00 0.  1.
         13    1    5    5    0    0 -0.15178474997E+03 -0.77687799816E+02  0.21582430718E+03  0.27505296969E+03  0.00000000000E+00 0. -1.
        -13    1    5    5    0    0 -0.40312440814E+02 -0.75739203885E+02  0.16839434721E+03  0.18899252912E+03  0.00000000000E+00 0.  1.
          3    1    6    6  503    0  0.35642915984E+03  0.38289605220E+03 -0.28047830846E+02  0.52386812614E+03  0.00000000000E+00 0. -1.
         -3    1    6    6    0  503  0.22216008848E+01  0.30997964056E+02  0.63777168287E+01  0.31725140789E+02  0.00000000000E+00 0.  1.
<mgrwt>
<rscale>  0 0.16063298E+04</rscale>
<asrwt>0</asrwt>
<pdfrwt beam="1">  1        1 0.28290409E+00 0.16063298E+04</pdfrwt>
<pdfrwt beam="2">  1       -2 0.53968889E-01 0.16063298E+04</pdfrwt>
<totfact> 0.10437817E+01</totfact>
</mgrwt>
</event>
<event>
12    5  0.5029243E-008  0.1636616E+04  0.7818608E-02  0.8798364E-01
          1   -1    0    0  501    0  0.00000000000E+00  0.00000000000E+00  0.30725761364E+04  0.30725761364E+04  0.00000000000E+00 0. -1.
         -2   -1    0    0    0  501 -0.00000000000E+00 -0.00000000000E+00 -0.21793689185E+03  0.21793689185E+03  0.00000000000E+00 0.  1.
        -24    2    1    2    0    0  0.45048541826E+03 -0.32155552171E+03  0.78809020000E+03  0.96786420800E+03  0.96643138358E+02 0.  0.
        254    2    1    2    0    0 -0.45048541826E+03  0.32155552171E+03  0.20665490445E+04  0.23226488202E+04  0.90428840701E+03 0.  0.
         23    2    4    4    0    0 -0.26884260987E+03 -0.23518872404E+03  0.13157642270E+04  0.13663771635E+04  0.90338072052E+02 0.  0.
         23    2    4    4    0    0 -0.18164280838E+03  0.55674424575E+03  0.75078481755E+03  0.95627165668E+03  0.88427224829E+02 0.  0.
          3    1    3    3  502    0  0.74855093107E+02 -0.98105139070E+02  0.20272775064E+03  0.23733192823E+03  0.00000000000E+00 0. -1.
         -4    1    3    3    0  502  0.37563032515E+03 -0.22345038264E+03  0.58536244935E+03  0.73053227977E+03  0.00000000000E+00 0.  1.
         13    1    5    5    0    0 -0.25505520226E+03 -0.24175749843E+03  0.12824614266E+04  0.13297395064E+04  0.00000000000E+00 0. -1.
        -13    1    5    5    0    0 -0.13787407612E+02  0.65687743898E+01  0.33302800358E+02  0.36637657094E+02  0.00000000000E+00 0.  1.
          3    1    6    6  503    0 -0.18819182833E+03  0.55410179247E+03  0.74107885188E+03  0.94426840749E+03  0.00000000000E+00 0. -1.
         -3    1    6    6    0  503  0.65490199501E+01  0.26424532807E+01  0.97059656654E+01  0.12003249191E+02  0.00000000000E+00 0.  1.
<mgrwt>
<rscale>  0 0.16366156E+04</rscale>
<asrwt>0</asrwt>
<pdfrwt beam="1">  1        1 0.47270399E+00 0.16366156E+04</pdfrwt>
<pdfrwt beam="2">  1       -2 0.33528755E-01 0.16366156E+04</pdfrwt>
<totfact> 0.37130797E+00</totfact>
</mgrwt>
</event>
<event>
12    5  0.5029243E-008  0.1497287E+04  0.7818608E-02  0.8886259E-01
          1   -1    0    0  501    0  0.00000000000E+00  0.00000000000E+00  0.19076317598E+04  0.19076317598E+04  0.00000000000E+00 0. -1.
         -2   -1    0    0    0  501 -0.00000000000E+00 -0.00000000000E+00 -0.29380238191E+03  0.29380238191E+03  0.00000000000E+00 0.  1.
        -24    2    1    2    0    0 -0.86781505585E+02  0.69397500626E+02 -0.15721025863E+03  0.20859303951E+03  0.80305341710E+02 0.  0.
        254    2    1    2    0    0  0.86781505585E+02 -0.69397500626E+02  0.17710396365E+04  0.19928411022E+04  0.90691081242E+03 0.  0.
         23    2    4    4    0    0  0.30246831185E+03  0.25708604341E+03  0.42811770582E+03  0.59111356787E+03  0.92467111407E+02 0.  0.
         23    2    4    4    0    0 -0.21568680626E+03 -0.32648354404E+03  0.13429219307E+04  0.14017275343E+04  0.91041010716E+02 0.  0.
          3    1    3    3  502    0  0.53092335487E+01  0.68563426042E+01  0.63474924093E+01  0.10746536869E+02  0.00000000000E+00 0. -1.
         -4    1    3    3    0  502 -0.92090739134E+02  0.62541158022E+02 -0.16355775104E+03  0.19784650264E+03  0.00000000000E+00 0.  1.
         13    1    5    5    0    0  0.11286720751E+03  0.44841947153E+02  0.10514735310E+03  0.16064175242E+03  0.00000000000E+00 0. -1.
        -13    1    5    5    0    0  0.18960110434E+03  0.21224409626E+03  0.32297035271E+03  0.43047181545E+03  0.00000000000E+00 0.  1.
          2    1    6    6  503    0 -0.21772775653E+02 -0.76441174619E+01  0.37661701405E+02  0.44168880948E+02  0.00000000000E+00 0. -1.
         -2    1    6    6    0  503 -0.19391403061E+03 -0.31883942657E+03  0.13052602293E+04  0.13575586534E+04  0.00000000000E+00 0.  1.
<mgrwt>
<rscale>  0 0.14972866E+04</rscale>
<asrwt>0</asrwt>
<pdfrwt beam="1">  1        1 0.29348180E+00 0.14972866E+04</pdfrwt>
<pdfrwt beam="2">  1       -2 0.45200368E-01 0.14972866E+04</pdfrwt>
<totfact> 0.13578793E+01</totfact>
</mgrwt>
</event>
<event>
12    5  0.5029243E-008  0.1182343E+04  0.7818608E-02  0.9128454E-01
         -2   -1    0    0    0  501 -0.00000000000E+00  0.00000000000E+00  0.81917392081E+03  0.81917392081E+03  0.00000000000E+00 0.  1.
          1   -1    0    0  501    0  0.00000000000E+00 -0.00000000000E+00 -0.42662912456E+03  0.42662912456E+03  0.00000000000E+00 0. -1.
        -24    2    1    2    0    0  0.14754896146E+03 -0.11372088136E+03 -0.72066669781E+02  0.21508697869E+03  0.79785140378E+02 0.  0.
        254    2    1    2    0    0 -0.14754896146E+03  0.11372088136E+03  0.46461146604E+03  0.10307160667E+04  0.90100425129E+03 0.  0.
         23    2    4    4    0    0 -0.24249200128E+03  0.55261289418E+02 -0.21207083633E+03  0.33890386475E+03  0.89585764097E+02 0.  0.
         23    2    4    4    0    0  0.94943039826E+02  0.58459591945E+02  0.67668230237E+03  0.69181220193E+03  0.90958670266E+02 0.  0.
          3    1    3    3  502    0  0.95577665234E+02 -0.39667354905E+02 -0.71370896675E+01  0.10372814076E+03  0.00000000000E+00 0. -1.
         -4    1    3    3    0  502  0.51971296223E+02 -0.74053526459E+02 -0.64929580113E+02  0.11135883793E+03  0.00000000000E+00 0.  1.
         13    1    5    5    0    0 -0.15704883639E+03  0.70782755254E+02 -0.17141120715E+03  0.24301509704E+03  0.00000000000E+00 0. -1.
        -13    1    5    5    0    0 -0.85443164893E+02 -0.15521465836E+02 -0.40659629181E+02  0.95888767714E+02  0.00000000000E+00 0.  1.
          4    1    6    6  503    0  0.18729755778E+02 -0.15791108173E+02  0.28123684658E+03  0.28230183620E+03  0.00000000000E+00 0. -1.
         -4    1    6    6    0  503  0.76213284048E+02  0.74250700118E+02  0.39544545578E+03  0.40951036572E+03  0.00000000000E+00 0.  1.
<mgrwt>
<rscale>  0 0.11823425E+04</rscale>
<asrwt>0</asrwt>
<pdfrwt beam="1">  1        1 0.65635250E-01 0.11823425E+04</pdfrwt>
<pdfrwt beam="2">  1       -2 0.12602676E+00 0.11823425E+04</pdfrwt>
<totfact> 0.22373466E+01</totfact>
</mgrwt>
</event>
<event>
12    5  0.5029243E-008  0.1692071E+04  0.7818608E-02  0.8765899E-01
         -2   -1    0    0    0  501 -0.00000000000E+00  0.00000000000E+00  0.34312867313E+03  0.34312867313E+03  0.00000000000E+00 0.  1.
          1   -1    0    0  501    0  0.00000000000E+00 -0.00000000000E+00 -0.20860284733E+04  0.20860284733E+04  0.00000000000E+00 0. -1.
        -24    2    1    2    0    0 -0.35495922846E+03  0.42270372170E+03 -0.26595628551E+03  0.61795783377E+03  0.80403036691E+02 0.  0.
        254    2    1    2    0    0  0.35495922846E+03 -0.42270372170E+03 -0.14769435147E+04  0.18111993127E+04  0.89129474054E+03 0.  0.
         23    2    4    4    0    0  0.20669358516E+02  0.24252980872E+03 -0.19103467172E+03  0.32236813275E+03  0.90438026937E+02 0.  0.
         23    2    4    4    0    0  0.33428986995E+03 -0.66523353042E+03 -0.12859088430E+04  0.14888311799E+04  0.93655554014E+02 0.  0.
          1    1    3    3  502    0 -0.15408030739E+02  0.10309620533E+02 -0.27003720854E+02  0.32755100774E+02  0.00000000000E+00 0. -1.
         -2    1    3    3    0  502 -0.33955119772E+03  0.41239410117E+03 -0.23895256466E+03  0.58520273300E+03  0.00000000000E+00 0.  1.
         13    1    5    5    0    0 -0.37223808383E+01  0.12249741856E+01 -0.32232144312E+02  0.32469490415E+02  0.00000000000E+00 0. -1.
        -13    1    5    5    0    0  0.24391739354E+02  0.24130483453E+03 -0.15880252741E+03  0.28989864234E+03  0.00000000000E+00 0.  1.
          2    1    6    6  503    0  0.15377540404E+03 -0.25622431591E+03 -0.43714436270E+03  0.52952145263E+03  0.00000000000E+00 0.  1.
         -2    1    6    6    0  503  0.18051446591E+03 -0.40900921450E+03 -0.84876448026E+03  0.95930972730E+03  0.00000000000E+00 0. -1.
<mgrwt>
<rscale>  0 0.16920711E+04</rscale>
<asrwt>0</asrwt>
<pdfrwt beam="1">  1        1 0.32092746E+00 0.16920711E+04</pdfrwt>
<pdfrwt beam="2">  1       -2 0.52789026E-01 0.16920711E+04</pdfrwt>
<totfact> 0.73753394E+00</totfact>
</mgrwt>
</event>
<event>
12    5  0.5029243E-008  0.1283208E+04  0.7818608E-02  0.9042988E-01
         -2   -1    0    0    0  501 -0.00000000000E+00  0.00000000000E+00  0.20121754945E+03  0.20121754945E+03  0.00000000000E+00 0.  1.
          1   -1    0    0  501    0  0.00000000000E+00 -0.00000000000E+00 -0.20458251173E+04  0.20458251173E+04  0.00000000000E+00 0. -1.
        -24    2    1    2    0    0 -0.17965544874E+03  0.54133209416E+02 -0.74959182896E+03  0.77665336637E+03  0.78077249099E+02 0.  0.
        254    2    1    2    0    0  0.17965544874E+03 -0.54133209416E+02 -0.10950157388E+04  0.14703893003E+04  0.96321271878E+03 0.  0.
         23    2    4    4    0    0 -0.42106403472E+02 -0.45961539382E+03 -0.75363349278E+03  0.88849823659E+03  0.91904382549E+02 0.  0.
         23    2    4    4    0    0  0.22176185222E+03  0.40548218441E+03 -0.34138224606E+03  0.58189106375E+03  0.91985059526E+02 0.  0.
          3    1    3    3  502    0 -0.17426697692E+03  0.59942181469E+02 -0.74508604335E+03  0.76753843966E+03  0.00000000000E+00 0. -1.
         -4    1    3    3    0  502 -0.53884718285E+01 -0.58089720540E+01 -0.45057856108E+01  0.91149267107E+01  0.00000000000E+00 0.  1.
         13    1    5    5    0    0  0.24782410241E+02 -0.87234090894E+02 -0.17599341196E+03  0.19798392744E+03  0.00000000000E+00 0. -1.
        -13    1    5    5    0    0 -0.66888813712E+02 -0.37238130293E+03 -0.57764008083E+03  0.69051430915E+03  0.00000000000E+00 0.  1.
          1    1    6    6  503    0  0.58892439687E+02  0.13697795615E+03 -0.61698608017E+02  0.16136293922E+03  0.00000000000E+00 0. -1.
         -1    1    6    6    0  503  0.16286941253E+03  0.26850422826E+03 -0.27968363804E+03  0.42052812453E+03  0.00000000000E+00 0.  1.
<mgrwt>
<rscale>  0 0.12832083E+04</rscale>
<asrwt>0</asrwt>
<pdfrwt beam="1">  1        1 0.31474231E+00 0.12832083E+04</pdfrwt>
<pdfrwt beam="2">  1       -2 0.30956547E-01 0.12832083E+04</pdfrwt>
<totfact> 0.23200454E+01</totfact>
</mgrwt>
</event>
<event>
12    5  0.5029243E-008  0.1315383E+04  0.7818608E-02  0.9017454E-01
          1   -1    0    0  501    0  0.00000000000E+00  0.00000000000E+00  0.19826533294E+04  0.19826533294E+04  0.00000000000E+00 0. -1.
         -2   -1    0    0    0  501 -0.00000000000E+00 -0.00000000000E+00 -0.21817140338E+03  0.21817140338E+03  0.00000000000E+00 0.  1.
        -24    2    1    2    0    0  0.83442412526E+02  0.11457210106E+03  0.99998923859E+03  0.10129946478E+04  0.78040224417E+02 0.  0.
        254    2    1    2    0    0 -0.83442412526E+02 -0.11457210106E+03  0.76449268741E+03  0.11878300849E+04  0.89799879680E+03 0.  0.
         23    2    4    4    0    0 -0.26233544768E+03 -0.44072582981E+02  0.89507946355E+03  0.93818426182E+03  0.90885550966E+02 0.  0.
         23    2    4    4    0    0  0.17889303516E+03 -0.70499518080E+02 -0.13058677615E+03  0.24964582312E+03  0.91089136681E+02 0.  0.
          1    1    3    3  502    0  0.97318750094E+02  0.90842632365E+02  0.87036964203E+03  0.88049226956E+03  0.00000000000E+00 0. -1.
         -2    1    3    3    0  502 -0.13876337568E+02  0.23729468697E+02  0.12961959655E+03  0.13250237824E+03  0.00000000000E+00 0.  1.
         13    1    5    5    0    0 -0.12150719588E+03  0.11418085024E+02  0.51058114769E+03  0.52496426516E+03  0.00000000000E+00 0.  1.
        -13    1    5    5    0    0 -0.14082825180E+03 -0.55490668005E+02  0.38449831586E+03  0.41321999666E+03  0.00000000000E+00 0. -1.
          3    1    6    6  503    0  0.88596011057E+02  0.13125906776E+02 -0.59366666392E+02  0.10745205295E+03  0.00000000000E+00 0. -1.
         -3    1    6    6    0  503  0.90297024101E+02 -0.83625424856E+02 -0.71220109756E+02  0.14219377018E+03  0.00000000000E+00 0.  1.
<mgrwt>
<rscale>  0 0.13153832E+04</rscale>
<asrwt>0</asrwt>
<pdfrwt beam="1">  1        1 0.30502358E+00 0.13153832E+04</pdfrwt>
<pdfrwt beam="2">  1       -2 0.33564833E-01 0.13153832E+04</pdfrwt>
<totfact> 0.21915128E+01</totfact>
</mgrwt>
</event>
<event>
12    5  0.5029243E-008  0.1870073E+04  0.7818608E-02  0.8669898E-01
         -2   -1    0    0    0  501 -0.00000000000E+00  0.00000000000E+00  0.54585643524E+03  0.54585643524E+03  0.00000000000E+00 0.  1.
          1   -1    0    0  501    0  0.00000000000E+00 -0.00000000000E+00 -0.16016902097E+04  0.16016902097E+04  0.00000000000E+00 0. -1.
        -24    2    1    2    0    0  0.49460709686E+03  0.38327996474E+03 -0.80679163126E+03  0.10241554686E+04  0.80261920503E+02 0.  0.
        254    2    1    2    0    0 -0.49460709686E+03 -0.38327996474E+03 -0.24904214316E+03  0.11233911763E+04  0.89913627130E+03 0.  0.
         23    2    4    4    0    0 -0.13931440987E+03 -0.45139760104E+03  0.21573277802E+03  0.52746477292E+03  0.92250507481E+02 0.  0.
         23    2    4    4    0    0 -0.35529268698E+03  0.68117636297E+02 -0.46477492119E+03  0.59592640342E+03  0.90772491067E+02 0.  0.
          1    1    3    3  502    0  0.22063876483E+03  0.13436019855E+03 -0.37576693722E+03  0.45599881426E+03  0.00000000000E+00 0. -1.
         -2    1    3    3    0  502  0.27396833202E+03  0.24891976620E+03 -0.43102469404E+03  0.56815665430E+03  0.00000000000E+00 0.  1.
         13    1    5    5    0    0 -0.20739781566E+02 -0.21880298495E+03  0.86999688224E+02  0.23637645930E+03  0.00000000000E+00 0. -1.
        -13    1    5    5    0    0 -0.11857462830E+03 -0.23259461610E+03  0.12873308980E+03  0.29108831362E+03  0.00000000000E+00 0.  1.
          4    1    6    6  503    0 -0.17128060830E+03  0.73461600031E+02 -0.19923039787E+03  0.27281203217E+03  0.00000000000E+00 0. -1.
         -4    1    6    6    0  503 -0.18401207868E+03 -0.53439637344E+01 -0.26554452332E+03  0.32311437126E+03  0.00000000000E+00 0.  1.
<mgrwt>
<rscale>  0 0.18700726E+04</rscale>
<asrwt>0</asrwt>
<pdfrwt beam="1">  1        1 0.24641387E+00 0.18700726E+04</pdfrwt>
<pdfrwt beam="2">  1       -2 0.83977915E-01 0.18700726E+04</pdfrwt>
<totfact> 0.56748976E+00</totfact>
</mgrwt>
</event>
<event>
12    5  0.5029243E-008  0.1765329E+04  0.7818608E-02  0.8724957E-01
         -2   -1    0    0    0  501 -0.00000000000E+00  0.00000000000E+00  0.49177719326E+03  0.49177719326E+03  0.00000000000E+00 0.  1.
          1   -1    0    0  501    0  0.00000000000E+00 -0.00000000000E+00 -0.15842479856E+04  0.15842479856E+04  0.00000000000E+00 0. -1.
        -24    2    1    2    0    0 -0.10554173213E+03  0.10208924068E+03  0.33835198649E+03  0.37913384846E+03  0.87744732058E+02 0.  0.
        254    2    1    2    0    0  0.10554173213E+03 -0.10208924068E+03 -0.14308227788E+04  0.16968913304E+04  0.90034720661E+03 0.  0.
         23    2    4    4    0    0  0.36284918358E+03 -0.37067802222E+03 -0.76315082593E+03  0.92730079516E+03  0.91792458278E+02 0.  0.
         23    2    4    4    0    0 -0.25730745144E+03  0.26858878154E+03 -0.66767195290E+03  0.76959053524E+03  0.90203642368E+02 0.  0.
          1    1    3    3  502    0 -0.16488501008E+00 -0.31860839695E+01  0.86297077449E+02  0.86356029867E+02  0.00000000000E+00 0. -1.
         -4    1    3    3    0  502 -0.10537684712E+03  0.10527532465E+03  0.25205490904E+03  0.29277781860E+03  0.00000000000E+00 0.  1.
         13    1    5    5    0    0  0.35744649706E+03 -0.37322034440E+03 -0.73479734447E+03  0.89832542054E+03  0.00000000000E+00 0. -1.
        -13    1    5    5    0    0  0.54026865190E+01  0.25423221780E+01 -0.28353481459E+02  0.28975374623E+02  0.00000000000E+00 0.  1.
          4    1    6    6  503    0 -0.16126572463E+03  0.21757010181E+03 -0.42932582710E+03  0.50760619476E+03  0.00000000000E+00 0. -1.
         -4    1    6    6    0  503 -0.96041726818E+02  0.51018679728E+02 -0.23834612580E+03  0.26198434048E+03  0.00000000000E+00 0.  1.
<mgrwt>
<rscale>  0 0.17653295E+04</rscale>
<asrwt>0</asrwt>
<pdfrwt beam="1">  1        1 0.24373045E+00 0.17653295E+04</pdfrwt>
<pdfrwt beam="2">  1       -2 0.75658032E-01 0.17653295E+04</pdfrwt>
<totfact> 0.74419783E+00</totfact>
</mgrwt>
</event>
<event>
12    5  0.5029243E-008  0.2347346E+04  0.7818608E-02  0.8459484E-01
         -2   -1    0    0    0  501 -0.00000000000E+00  0.00000000000E+00  0.91731323609E+03  0.91731323609E+03  0.00000000000E+00 0.  1.
          1   -1    0    0  501    0  0.00000000000E+00 -0.00000000000E+00 -0.15016771659E+04  0.15016771659E+04  0.00000000000E+00 0. -1.
        -24    2    1    2    0    0  0.70040504025E+03  0.71277240831E+03 -0.25513073945E+03  0.10344274210E+04  0.79603194566E+02 0.  0.
        254    2    1    2    0    0 -0.70040504025E+03 -0.71277240831E+03 -0.32923319032E+03  0.13845629810E+04  0.90000468234E+03 0.  0.
         23    2    4    4    0    0 -0.36591430242E+03  0.14822626631E+03 -0.17820445234E+02  0.40556174026E+03  0.91095851480E+02 0.  0.
         23    2    4    4    0    0 -0.33449073783E+03 -0.86099867462E+03 -0.31141274508E+03  0.97900124072E+03  0.90899725688E+02 0.  0.
          1    1    3    3  502    0  0.23203039169E+03  0.20533377106E+03 -0.10999161001E+03  0.32878292912E+03  0.00000000000E+00 0. -1.
         -2    1    3    3    0  502  0.46837464856E+03  0.50743863725E+03 -0.14513912944E+03  0.70564449185E+03  0.00000000000E+00 0.  1.
         13    1    5    5    0    0 -0.33447684056E+02  0.23860775869E+02 -0.29212811983E+02  0.50413019922E+02  0.00000000000E+00 0.  1.
        -13    1    5    5    0    0 -0.33246661836E+03  0.12436549044E+03  0.11392366749E+02  0.35514872034E+03  0.00000000000E+00 0. -1.
          1    1    6    6  503    0 -0.28331359055E+03 -0.75248395247E+03 -0.23880793772E+03  0.83876571248E+03  0.00000000000E+00 0. -1.
         -1    1    6    6    0  503 -0.51177147282E+02 -0.10851472215E+03 -0.72604807364E+02  0.14023552824E+03  0.00000000000E+00 0.  1.
<mgrwt>
<rscale>  0 0.23473460E+04</rscale>
<asrwt>0</asrwt>
<pdfrwt beam="1">  1        1 0.23102725E+00 0.23473460E+04</pdfrwt>
<pdfrwt beam="2">  1       -2 0.14112511E+00 0.23473460E+04</pdfrwt>
<totfact> 0.18138744E+00</totfact>
</mgrwt>
</event>
<event>
12    5  0.5029243E-008  0.2409373E+04  0.7818608E-02  0.8436003E-01
          1   -1    0    0  501    0  0.00000000000E+00  0.00000000000E+00  0.23849963575E+04  0.23849963575E+04  0.00000000000E+00 0. -1.
         -2   -1    0    0    0  501 -0.00000000000E+00 -0.00000000000E+00 -0.60849951319E+03  0.60849951319E+03  0.00000000000E+00 0.  1.
        -24    2    1    2    0    0  0.19830071110E+03  0.36936922100E+02 -0.50083762734E+03  0.54590376011E+03  0.80529982685E+02 0.  0.
        254    2    1    2    0    0 -0.19830071110E+03 -0.36936922100E+02  0.22773344716E+04  0.24475921106E+04  0.87393783292E+03 0.  0.
         23    2    4    4    0    0 -0.33609270121E+03  0.10422313766E+03  0.21807963093E+04  0.22109016358E+04  0.91611867885E+02 0.  0.
         23    2    4    4    0    0  0.13779199011E+03 -0.14116005976E+03  0.96538162387E+02  0.23669047481E+03  0.88260801382E+02 0.  0.
          3    1    3    3  502    0  0.76751714960E+01 -0.10163503271E+02 -0.71637755917E+01  0.14612485653E+02  0.00000000000E+00 0. -1.
         -4    1    3    3    0  502  0.19062553960E+03  0.47100425371E+02 -0.49367385175E+03  0.53129127446E+03  0.00000000000E+00 0.  1.
         13    1    5    5    0    0 -0.29036808977E+03  0.53639908704E+02  0.17468254297E+04  0.17716066011E+04  0.00000000000E+00 0.  1.
        -13    1    5    5    0    0 -0.45724611441E+02  0.50583228953E+02  0.43397087959E+03  0.43929503465E+03  0.00000000000E+00 0. -1.
          4    1    6    6  503    0  0.13926722630E+03 -0.92245254335E+02  0.71268911635E+02  0.18161444060E+03  0.00000000000E+00 0.  1.
         -4    1    6    6    0  503 -0.14752361856E+01 -0.48914805422E+02  0.25269250752E+02  0.55076034215E+02  0.00000000000E+00 0. -1.
<mgrwt>
<rscale>  0 0.24093726E+04</rscale>
<asrwt>0</asrwt>
<pdfrwt beam="1">  1        1 0.36692251E+00 0.24093726E+04</pdfrwt>
<pdfrwt beam="2">  1       -2 0.93615311E-01 0.24093726E+04</pdfrwt>
<totfact> 0.12348144E+00</totfact>
</mgrwt>
</event>
<event>
12    5  0.5029243E-008  0.1457859E+04  0.7818608E-02  0.8912970E-01
          1   -1    0    0  501    0  0.00000000000E+00  0.00000000000E+00  0.11873627570E+04  0.11873627570E+04  0.00000000000E+00 0. -1.
         -2   -1    0    0    0  501 -0.00000000000E+00 -0.00000000000E+00 -0.44749448378E+03  0.44749448378E+03  0.00000000000E+00 0.  1.
        -24    2    1    2    0    0  0.26724102467E+03  0.12509638340E+03 -0.14741510002E+03  0.33949013208E+03  0.80345924942E+02 0.  0.
        254    2    1    2    0    0 -0.26724102467E+03 -0.12509638340E+03  0.88728337325E+03  0.12953671087E+04  0.89645819284E+03 0.  0.
         23    2    4    4    0    0  0.18372220250E+03 -0.17470461074E+03 -0.26189243346E+02  0.27128378054E+03  0.92916437794E+02 0.  0.
         23    2    4    4    0    0 -0.45096322717E+03  0.49608227343E+02  0.91347261660E+03  0.10240833282E+04  0.92117497283E+02 0.  0.
          3    1    3    3  502    0  0.89462076507E+02  0.18787782770E+02 -0.80512289414E+02  0.12181409057E+03  0.00000000000E+00 0. -1.
         -4    1    3    3    0  502  0.17777894817E+03  0.10630860063E+03 -0.66902810606E+02  0.21767604151E+03  0.00000000000E+00 0.  1.
         13    1    5    5    0    0  0.14958523977E+03 -0.16017541012E+03 -0.53037310645E+02  0.22548805353E+03  0.00000000000E+00 0.  1.
        -13    1    5    5    0    0  0.34136962728E+02 -0.14529200628E+02  0.26848067299E+02  0.45795727016E+02  0.00000000000E+00 0. -1.
          4    1    6    6  503    0 -0.44510379998E+03  0.45424925126E+02  0.91315821967E+03  0.10168769595E+04  0.00000000000E+00 0. -1.
         -4    1    6    6    0  503 -0.58594271861E+01  0.41833022169E+01  0.31439693109E+00  0.72063686984E+01  0.00000000000E+00 0.  1.
<mgrwt>
<rscale>  0 0.14578591E+04</rscale>
<asrwt>0</asrwt>
<pdfrwt beam="1">  1        1 0.18267119E+00 0.14578591E+04</pdfrwt>
<pdfrwt beam="2">  1       -2 0.68845306E-01 0.14578591E+04</pdfrwt>
<totfact> 0.17913082E+01</totfact>
</mgrwt>
</event>
<event>
12    5  0.5029243E-008  0.1675110E+04  0.7818608E-02  0.8775689E-01
          1   -1    0    0  501    0  0.00000000000E+00  0.00000000000E+00  0.18215820484E+04  0.18215820484E+04  0.00000000000E+00 0. -1.
         -4   -1    0    0    0  501 -0.00000000000E+00 -0.00000000000E+00 -0.38510402367E+03  0.38510402367E+03  0.00000000000E+00 0.  1.
        -24    2    1    2    0    0  0.52809158327E+03  0.31559386293E+02  0.16638756326E+03  0.56030968870E+03  0.79908765861E+02 0.  0.
        254    2    1    2    0    0 -0.52809158327E+03 -0.31559386293E+02  0.12700904614E+04  0.16463763833E+04  0.90418399686E+03 0.  0.
         23    2    4    4    0    0 -0.27815691903E+03 -0.66621867357E+02  0.13359166502E+04  0.13692569743E+04  0.91551192098E+02 0.  0.
         23    2    4    4    0    0 -0.24993466424E+03  0.35062481064E+02 -0.65826188714E+02  0.27711940901E+03  0.93623532078E+02 0.  0.
          3    1    3    3  502    0  0.55699068704E+02  0.28056093859E+02  0.25110266980E+02  0.67231362956E+02  0.00000000000E+00 0. -1.
         -4    1    3    3    0  502  0.47239251457E+03  0.35032924340E+01  0.14127729628E+03  0.49307832575E+03  0.00000000000E+00 0.  1.
         13    1    5    5    0    0 -0.27291971907E+03 -0.72824097463E+02  0.11880635422E+04  0.12211811916E+04  0.00000000000E+00 0.  1.
        -13    1    5    5    0    0 -0.52371999594E+01  0.62022301058E+01  0.14785310791E+03  0.14807578276E+03  0.00000000000E+00 0. -1.
          4    1    6    6  503    0 -0.19836590235E+02  0.24874894081E+02 -0.30553165858E+02  0.44110617902E+02  0.00000000000E+00 0. -1.
         -4    1    6    6    0  503 -0.23009807401E+03  0.10187586983E+02 -0.35273022856E+02  0.23300879110E+03  0.00000000000E+00 0.  1.
<mgrwt>
<rscale>  0 0.16751102E+04</rscale>
<asrwt>0</asrwt>
<pdfrwt beam="1">  1        1 0.28024339E+00 0.16751102E+04</pdfrwt>
<pdfrwt beam="2">  1       -4 0.59246774E-01 0.16751102E+04</pdfrwt>
<totfact> 0.49863900E+00</totfact>
</mgrwt>
</event>
<event>
12    5  0.5029243E-008  0.1373946E+04  0.7818608E-02  0.8972896E-01
          1   -1    0    0  501    0  0.00000000000E+00  0.00000000000E+00  0.35397558600E+03  0.35397558600E+03  0.00000000000E+00 0. -1.
         -2   -1    0    0    0  501 -0.00000000000E+00 -0.00000000000E+00 -0.13332335767E+04  0.13332335767E+04  0.00000000000E+00 0.  1.
        -24    2    1    2    0    0 -0.38105901374E+02  0.38600596578E+03 -0.27766571636E+03  0.48384140205E+03  0.80941873933E+02 0.  0.
        254    2    1    2    0    0  0.38105901374E+02 -0.38600596578E+03 -0.70159227438E+03  0.12033677607E+04  0.89744614471E+03 0.  0.
         23    2    4    4    0    0  0.42314171387E+02  0.28424569859E+03 -0.22578106354E+03  0.37636897814E+03  0.89946721938E+02 0.  0.
         23    2    4    4    0    0 -0.42082700130E+01 -0.67025166437E+03 -0.47581121084E+03  0.82699878255E+03  0.90970736232E+02 0.  0.
          1    1    3    3  502    0 -0.86862019849E+01  0.34754066583E+03 -0.24816840964E+03  0.42713876440E+03  0.00000000000E+00 0. -1.
         -2    1    3    3    0  502 -0.29419699389E+02  0.38465299957E+02 -0.29497306716E+02  0.56702637649E+02  0.00000000000E+00 0.  1.
         13    1    5    5    0    0  0.23706674045E+02  0.24841293385E+03 -0.22497750600E+03  0.33598492571E+03  0.00000000000E+00 0. -1.
        -13    1    5    5    0    0  0.18607497342E+02  0.35832764738E+02 -0.80355754244E+00  0.40384052432E+02  0.00000000000E+00 0.  1.
          4    1    6    6  503    0  0.12953963007E+02 -0.64174885100E+03 -0.44055844968E+03  0.77852497744E+03  0.00000000000E+00 0. -1.
         -4    1    6    6    0  503 -0.17162233020E+02 -0.28502813371E+02 -0.35252761158E+02  0.48473805107E+02  0.00000000000E+00 0.  1.
<mgrwt>
<rscale>  0 0.13739463E+04</rscale>
<asrwt>0</asrwt>
<pdfrwt beam="1">  1        1 0.54457783E-01 0.13739463E+04</pdfrwt>
<pdfrwt beam="2">  1       -2 0.20511285E+00 0.13739463E+04</pdfrwt>
<totfact> 0.74103063E+00</totfact>
</mgrwt>
</event>
<event>
12    5  0.5029243E-008  0.2790294E+04  0.7818608E-02  0.8306288E-01
         -2   -1    0    0    0  501 -0.00000000000E+00  0.00000000000E+00  0.11094021505E+04  0.11094021505E+04  0.00000000000E+00 0.  1.
          1   -1    0    0  501    0  0.00000000000E+00 -0.00000000000E+00 -0.17544905140E+04  0.17544905140E+04  0.00000000000E+00 0. -1.
        -24    2    1    2    0    0 -0.10941234179E+04  0.25447494619E+03 -0.83919199194E+03  0.14043776533E+04  0.78548342570E+02 0.  0.
        254    2    1    2    0    0  0.10941234179E+04 -0.25447494619E+03  0.19410362840E+03  0.14595150112E+04  0.91139689350E+03 0.  0.
         23    2    4    4    0    0  0.56384816647E+02 -0.34912622472E+03  0.19242277624E+03  0.41356358017E+03  0.94551264893E+02 0.  0.
         23    2    4    4    0    0  0.10377386012E+04  0.94651278524E+02  0.16808521618E+01  0.10459514310E+04  0.90284559853E+02 0.  0.
          3    1    3    3  502    0 -0.10548023496E+04  0.25342277630E+03 -0.79328903495E+03  0.13439265580E+04  0.00000000000E+00 0. -1.
         -4    1    3    3    0  502 -0.39321068279E+02  0.10521698946E+01 -0.45902956985E+02  0.60451095375E+02  0.00000000000E+00 0.  1.
         13    1    5    5    0    0 -0.29139152655E+01 -0.17695309186E+03  0.13511942713E+03  0.22266150814E+03  0.00000000000E+00 0. -1.
        -13    1    5    5    0    0  0.59298731912E+02 -0.17217313286E+03  0.57303349109E+02  0.19090207203E+03  0.00000000000E+00 0.  1.
          3    1    6    6  503    0  0.34531337023E+03  0.67834248993E+02  0.23159318509E+02  0.35267430163E+03  0.00000000000E+00 0. -1.
         -3    1    6    6    0  503  0.69242523098E+03  0.26817029531E+02 -0.21478466347E+02  0.69327712935E+03  0.00000000000E+00 0.  1.
<mgrwt>
<rscale>  0 0.27902943E+04</rscale>
<asrwt>0</asrwt>
<pdfrwt beam="1">  1        1 0.26992162E+00 0.27902943E+04</pdfrwt>
<pdfrwt beam="2">  1       -2 0.17067725E+00 0.27902943E+04</pdfrwt>
<totfact> 0.70212436E-01</totfact>
</mgrwt>
</event>
<event>
12    5  0.5029243E-008  0.3626893E+04  0.7818608E-02  0.8084359E-01
          1   -1    0    0  501    0  0.00000000000E+00  0.00000000000E+00  0.16128784781E+04  0.16128784781E+04  0.00000000000E+00 0. -1.
         -2   -1    0    0    0  501 -0.00000000000E+00 -0.00000000000E+00 -0.20389559061E+04  0.20389559061E+04  0.00000000000E+00 0.  1.
        -24    2    1    2    0    0  0.26192193210E+03  0.45145559400E+03  0.14298178888E+04  0.15241842486E+04  0.79644061772E+02 0.  0.
        254    2    1    2    0    0 -0.26192193210E+03 -0.45145559400E+03 -0.18558953168E+04  0.21276501356E+04  0.90007356422E+03 0.  0.
         23    2    4    4    0    0  0.14042625616E+02  0.25632147557E+03 -0.45888909764E+03  0.53494032646E+03  0.98407595115E+02 0.  0.
         23    2    4    4    0    0 -0.27596455772E+03 -0.70777706957E+03 -0.13970062191E+04  0.15927098092E+04  0.89405495478E+02 0.  0.
          3    1    3    3  502    0  0.21745209660E+03  0.38445879809E+03  0.12812993669E+04  0.13552940823E+04  0.00000000000E+00 0. -1.
         -4    1    3    3    0  502  0.44469835498E+02  0.66996795918E+02  0.14851852183E+03  0.16889016626E+03  0.00000000000E+00 0.  1.
         13    1    5    5    0    0 -0.12488068496E+02  0.13850638378E+03 -0.15668536922E+03  0.20950005998E+03  0.00000000000E+00 0.  1.
        -13    1    5    5    0    0  0.26530694112E+02  0.11781509179E+03 -0.30220372841E+03  0.32544026648E+03  0.00000000000E+00 0. -1.
          3    1    6    6  503    0  0.53532710964E+01 -0.12868459037E+02 -0.40394929067E+02  0.42731780255E+02  0.00000000000E+00 0. -1.
         -3    1    6    6    0  503 -0.28131782881E+03 -0.69490861054E+03 -0.13566112901E+04  0.15499780289E+04  0.00000000000E+00 0.  1.
<mgrwt>
<rscale>  0 0.36268929E+04</rscale>
<asrwt>0</asrwt>
<pdfrwt beam="1">  1        1 0.24813515E+00 0.36268929E+04</pdfrwt>
<pdfrwt beam="2">  1       -2 0.31368552E+00 0.36268929E+04</pdfrwt>
<totfact> 0.10153191E-01</totfact>
</mgrwt>
</event>
<event>
12    5  0.5029243E-008  0.1103749E+04  0.7818608E-02  0.9201545E-01
         -2   -1    0    0    0  501 -0.00000000000E+00  0.00000000000E+00  0.24235091403E+03  0.24235091403E+03  0.00000000000E+00 0.  1.
          1   -1    0    0  501    0  0.00000000000E+00 -0.00000000000E+00 -0.12567136250E+04  0.12567136250E+04  0.00000000000E+00 0. -1.
        -24    2    1    2    0    0 -0.70825111705E+02 -0.89029264602E+02 -0.36730432456E+03  0.38984363179E+03  0.64212023819E+02 0.  0.
        254    2    1    2    0    0  0.70825111705E+02  0.89029264602E+02 -0.64705838642E+03  0.11092209073E+04  0.89372482301E+03 0.  0.
         23    2    4    4    0    0 -0.13160201374E+02 -0.33311406190E+03 -0.22940997999E+02  0.34534024277E+03  0.87151734077E+02 0.  0.
         23    2    4    4    0    0  0.83985313080E+02  0.42214332650E+03 -0.62411738842E+03  0.76388066449E+03  0.93448564098E+02 0.  0.
          3    1    3    3  502    0 -0.75393379947E+02 -0.72433527759E+02 -0.35060398296E+03  0.36586053429E+03  0.00000000000E+00 0. -1.
         -4    1    3    3    0  502  0.45682682418E+01 -0.16595736843E+02 -0.16700341596E+02  0.23983097496E+02  0.00000000000E+00 0.  1.
         13    1    5    5    0    0  0.14153644711E+02 -0.12304267748E+03 -0.46281244705E+02  0.13221868155E+03  0.00000000000E+00 0.  1.
        -13    1    5    5    0    0 -0.27313846085E+02 -0.21007138442E+03  0.23340246706E+02  0.21312156122E+03  0.00000000000E+00 0. -1.
          3    1    6    6  503    0  0.97111854624E+02  0.26825899024E+03 -0.42525330676E+03  0.51208785678E+03  0.00000000000E+00 0. -1.
         -3    1    6    6    0  503 -0.13126541544E+02  0.15388433626E+03 -0.19886408166E+03  0.25179280771E+03  0.00000000000E+00 0.  1.
<mgrwt>
<rscale>  0 0.11037494E+04</rscale>
<asrwt>0</asrwt>
<pdfrwt beam="1">  1        1 0.19334055E+00 0.11037494E+04</pdfrwt>
<pdfrwt beam="2">  1       -2 0.37284757E-01 0.11037494E+04</pdfrwt>
<totfact> 0.57568450E+01</totfact>
</mgrwt>
</event>
<event>
12    5  0.5029243E-008  0.1584079E+04  0.7818608E-02  0.8830389E-01
         -2   -1    0    0    0  501 -0.00000000000E+00  0.00000000000E+00  0.38759353843E+03  0.38759353843E+03  0.00000000000E+00 0.  1.
          1   -1    0    0  501    0  0.00000000000E+00 -0.00000000000E+00 -0.16185172572E+04  0.16185172572E+04  0.00000000000E+00 0. -1.
        -24    2    1    2    0    0 -0.32968369141E+03 -0.17796150734E+03 -0.90022596058E+03  0.97893219133E+03  0.86832140628E+02 0.  0.
        254    2    1    2    0    0  0.32968369141E+03  0.17796150734E+03 -0.33069775816E+03  0.10271786043E+04  0.89742589853E+03 0.  0.
         23    2    4    4    0    0  0.35832419144E+03  0.16816701577E+03 -0.60940330385E+03  0.73238784045E+03  0.91341068129E+02 0.  0.
         23    2    4    4    0    0 -0.28640500026E+02  0.97944915666E+01  0.27870554569E+03  0.29479076382E+03  0.91151538276E+02 0.  0.
          3    1    3    3  502    0 -0.30830589195E+03 -0.14328841729E+03 -0.84032684310E+03  0.90649506164E+03  0.00000000000E+00 0. -1.
         -4    1    3    3    0  502 -0.21377799458E+02 -0.34673090046E+02 -0.59899117477E+02  0.72437129689E+02  0.00000000000E+00 0.  1.
         13    1    5    5    0    0  0.48421092076E+02 -0.76622077626E+01 -0.90600217090E+02  0.10301315898E+03  0.00000000000E+00 0. -1.
        -13    1    5    5    0    0  0.30990309936E+03  0.17582922354E+03 -0.51880308676E+03  0.62937468147E+03  0.00000000000E+00 0.  1.
          1    1    6    6  503    0  0.32617490724E+02  0.30368632428E+01  0.72181038246E+02  0.79266799619E+02  0.00000000000E+00 0. -1.
         -1    1    6    6    0  503 -0.61257990750E+02  0.67576283238E+01  0.20652450745E+03  0.21552396421E+03  0.00000000000E+00 0.  1.
<mgrwt>
<rscale>  0 0.15840793E+04</rscale>
<asrwt>0</asrwt>
<pdfrwt beam="1">  1        1 0.24900266E+00 0.15840793E+04</pdfrwt>
<pdfrwt beam="2">  1       -2 0.59629775E-01 0.15840793E+04</pdfrwt>
<totfact> 0.11990466E+01</totfact>
</mgrwt>
</event>
<event>
12    5  0.5029243E-008  0.2224747E+04  0.7818608E-02  0.8508198E-01
         -2   -1    0    0    0  501 -0.00000000000E+00  0.00000000000E+00  0.23627730540E+04  0.23627730540E+04  0.00000000000E+00 0.  1.
          1   -1    0    0  501    0  0.00000000000E+00 -0.00000000000E+00 -0.52369580678E+03  0.52369580678E+03  0.00000000000E+00 0. -1.
        -24    2    1    2    0    0 -0.41623328544E+03  0.48839645493E+01  0.18415472105E+04  0.18896976054E+04  0.79918148655E+02 0.  0.
        254    2    1    2    0    0  0.41623328544E+03 -0.48839645493E+01 -0.24699632627E+01  0.99677125537E+03  0.90568914854E+03 0.  0.
         23    2    4    4    0    0 -0.84006563510E+02 -0.26437760559E+03 -0.24157563769E+03  0.37771589769E+03  0.85778141680E+02 0.  0.
         23    2    4    4    0    0  0.50023984895E+03  0.25949364104E+03  0.23910567443E+03  0.61905535768E+03  0.92093192518E+02 0.  0.
          3    1    3    3  502    0 -0.11158675446E+03  0.27142715266E+02  0.61939666059E+03  0.62995281880E+03  0.00000000000E+00 0. -1.
         -4    1    3    3    0  502 -0.30464653098E+03 -0.22258750717E+02  0.12221505499E+04  0.12597447866E+04  0.00000000000E+00 0.  1.
         13    1    5    5    0    0 -0.29270273681E+02 -0.92412518913E+02 -0.34158064369E+02  0.10277935559E+03  0.00000000000E+00 0.  1.
        -13    1    5    5    0    0 -0.54736289830E+02 -0.17196508667E+03 -0.20741757332E+03  0.27493654210E+03  0.00000000000E+00 0. -1.
          1    1    6    6  503    0  0.24365035731E+02 -0.46368398081E+01  0.21778188162E+02  0.33006737633E+02  0.00000000000E+00 0. -1.
         -1    1    6    6    0  503  0.47587481322E+03  0.26413048085E+03  0.21732748627E+03  0.58604862005E+03  0.00000000000E+00 0.  1.
<mgrwt>
<rscale>  0 0.22247466E+04</rscale>
<asrwt>0</asrwt>
<pdfrwt beam="1">  1        1 0.80568587E-01 0.22247466E+04</pdfrwt>
<pdfrwt beam="2">  1       -2 0.36350354E+00 0.22247466E+04</pdfrwt>
<totfact> 0.42360941E-01</totfact>
</mgrwt>
</event>
<event>
12    5  0.5029243E-008  0.1843845E+04  0.7818608E-02  0.8683324E-01
          1   -1    0    0  501    0  0.00000000000E+00  0.00000000000E+00  0.49167767999E+03  0.49167767999E+03  0.00000000000E+00 0. -1.
         -2   -1    0    0    0  501 -0.00000000000E+00 -0.00000000000E+00 -0.17286555363E+04  0.17286555363E+04  0.00000000000E+00 0.  1.
        -24    2    1    2    0    0  0.51850648571E+03 -0.40469213681E+02  0.89120904308E+02  0.53353995106E+03  0.78965883833E+02 0.  0.
        254    2    1    2    0    0 -0.51850648571E+03  0.40469213681E+02 -0.13260987606E+04  0.16867932653E+04  0.90346381429E+03 0.  0.
         23    2    4    4    0    0  0.22676934263E+03 -0.20504510441E+02 -0.56550173350E+03  0.61635948845E+03  0.90895757380E+02 0.  0.
         23    2    4    4    0    0 -0.74527582834E+03  0.60973724122E+02 -0.76059702715E+03  0.10704337768E+04  0.90370224467E+02 0.  0.
          3    1    3    3  502    0  0.31909038434E+03 -0.62422707367E+02  0.63623106298E+02  0.33130524812E+03  0.00000000000E+00 0. -1.
         -4    1    3    3    0  502  0.19941610137E+03  0.21953493686E+02  0.25497798010E+02  0.20223470294E+03  0.00000000000E+00 0.  1.
         13    1    5    5    0    0  0.79428018147E+02 -0.17119547824E+02 -0.10449287218E+03  0.13236558964E+03  0.00000000000E+00 0.  1.
        -13    1    5    5    0    0  0.14734132448E+03 -0.33849626173E+01 -0.46100886132E+03  0.48399389881E+03  0.00000000000E+00 0. -1.
          2    1    6    6  503    0 -0.22848484327E+01 -0.39089842770E+01  0.81861009206E+00  0.46011751674E+01  0.00000000000E+00 0.  1.
         -2    1    6    6    0  503 -0.74299097991E+03  0.64882708399E+02 -0.76141563724E+03  0.10658326016E+04  0.00000000000E+00 0. -1.
<mgrwt>
<rscale>  0 0.18438453E+04</rscale>
<asrwt>0</asrwt>
<pdfrwt beam="1">  1        1 0.75642720E-01 0.18438453E+04</pdfrwt>
<pdfrwt beam="2">  1       -2 0.26594700E+00 0.18438453E+04</pdfrwt>
<totfact> 0.19154698E+00</totfact>
</mgrwt>
</event>
<event>
12    5  0.5029243E-008  0.1407536E+04  0.7818608E-02  0.8948381E-01
          1   -1    0    0  501    0  0.00000000000E+00  0.00000000000E+00  0.19793316434E+04  0.19793316434E+04  0.00000000000E+00 0. -1.
         -2   -1    0    0    0  501 -0.00000000000E+00 -0.00000000000E+00 -0.25023077627E+03  0.25023077627E+03  0.00000000000E+00 0.  1.
        -24    2    1    2    0    0  0.26675223715E+03 -0.17121509998E+03  0.99757345420E+02  0.34185624163E+03  0.80267026168E+02 0.  0.
        254    2    1    2    0    0 -0.26675223715E+03  0.17121509998E+03  0.16293435217E+04  0.18877061780E+04  0.89900107696E+03 0.  0.
         23    2    4    4    0    0 -0.18044203144E+03  0.44114499019E+03  0.14739556462E+04  0.15515666581E+04  0.87439226919E+02 0.  0.
         23    2    4    4    0    0 -0.86310205711E+02 -0.26992989021E+03  0.15538787549E+03  0.33613951994E+03  0.92373090138E+02 0.  0.
          3    1    3    3  502    0 -0.51868961829E+01 -0.61912250261E+01  0.65177712820E+01  0.10378656070E+02  0.00000000000E+00 0. -1.
         -4    1    3    3    0  502  0.27193913333E+03 -0.16502387495E+03  0.93239574138E+02  0.33147758556E+03  0.00000000000E+00 0.  1.
         13    1    5    5    0    0 -0.47398786015E+02  0.73125089965E+02  0.37571514962E+03  0.38568873117E+03  0.00000000000E+00 0. -1.
        -13    1    5    5    0    0 -0.13304324542E+03  0.36801990022E+03  0.10982404966E+04  0.11658779269E+04  0.00000000000E+00 0.  1.
          1    1    6    6  503    0 -0.50123270790E+02 -0.39215262788E+02  0.44214261966E+02  0.77492451706E+02  0.00000000000E+00 0. -1.
         -1    1    6    6    0  503 -0.36186934922E+02 -0.23071462742E+03  0.11117361353E+03  0.25864706824E+03  0.00000000000E+00 0.  1.
<mgrwt>
<rscale>  0 0.14075364E+04</rscale>
<asrwt>0</asrwt>
<pdfrwt beam="1">  1        1 0.30451255E+00 0.14075364E+04</pdfrwt>
<pdfrwt beam="2">  1       -2 0.38497044E-01 0.14075364E+04</pdfrwt>
<totfact> 0.16795955E+01</totfact>
</mgrwt>
</event>
<event>
12    5  0.5029243E-008  0.1380573E+04  0.7818608E-02  0.8968002E-01
          1   -1    0    0  501    0  0.00000000000E+00  0.00000000000E+00  0.97984528734E+03  0.97984528734E+03  0.00000000000E+00 0. -1.
         -2   -1    0    0    0  501 -0.00000000000E+00 -0.00000000000E+00 -0.48629687900E+03  0.48629687900E+03  0.00000000000E+00 0.  1.
        -24    2    1    2    0    0 -0.32056959279E+03 -0.20947806656E+03  0.10517032962E+03  0.40499304520E+03  0.79452150643E+02 0.  0.
        254    2    1    2    0    0  0.32056959279E+03  0.20947806656E+03  0.38837807872E+03  0.10611491211E+04  0.91024941696E+03 0.  0.
         23    2    4    4    0    0 -0.14662350124E+03  0.20590348978E+03  0.50407032457E+03  0.57145675443E+03  0.92634938595E+02 0.  0.
         23    2    4    4    0    0  0.46719309403E+03  0.35745767721E+01 -0.11569224585E+03  0.48969236670E+03  0.90176236068E+02 0.  0.
          3    1    3    3  502    0 -0.15548808162E+03 -0.10193406397E+03  0.92243679707E+02  0.20754756893E+03  0.00000000000E+00 0. -1.
         -4    1    3    3    0  502 -0.16508151117E+03 -0.10754400259E+03  0.12926649908E+02  0.19744547627E+03  0.00000000000E+00 0.  1.
         13    1    5    5    0    0 -0.57157735995E+02  0.51872685395E+02  0.24642347658E+03  0.25822918519E+03  0.00000000000E+00 0.  1.
        -13    1    5    5    0    0 -0.89465765244E+02  0.15403080439E+03  0.25764684799E+03  0.31322756924E+03  0.00000000000E+00 0. -1.
          4    1    6    6  503    0  0.24301313351E+03 -0.38182242431E+02 -0.38761989448E+02  0.24902963382E+03  0.00000000000E+00 0. -1.
         -4    1    6    6    0  503  0.22417996052E+03  0.41756819203E+02 -0.76930256407E+02  0.24066273288E+03  0.00000000000E+00 0.  1.
<mgrwt>
<rscale>  0 0.13805734E+04</rscale>
<asrwt>0</asrwt>
<pdfrwt beam="1">  1        1 0.15074543E+00 0.13805734E+04</pdfrwt>
<pdfrwt beam="2">  1       -2 0.74814905E-01 0.13805734E+04</pdfrwt>
<totfact> 0.21571549E+01</totfact>
</mgrwt>
</event>
<event>
12    5  0.5029243E-008  0.1367996E+04  0.7818608E-02  0.8977316E-01
          1   -1    0    0  501    0  0.00000000000E+00  0.00000000000E+00  0.48350539376E+03  0.48350539376E+03  0.00000000000E+00 0. -1.
         -2   -1    0    0    0  501 -0.00000000000E+00 -0.00000000000E+00 -0.96762740157E+03  0.96762740157E+03  0.00000000000E+00 0.  1.
        -24    2    1    2    0    0 -0.10700578190E+03 -0.38734069006E+02  0.24785216098E+03  0.28863565525E+03  0.94494879827E+02 0.  0.
        254    2    1    2    0    0  0.10700578190E+03  0.38734069006E+02 -0.73197416879E+03  0.11624971401E+04  0.89591453357E+03 0.  0.
         23    2    4    4    0    0 -0.96827098305E+02  0.30355927178E+03  0.24099685554E+02  0.33082238374E+03  0.85667591833E+02 0.  0.
         23    2    4    4    0    0  0.20383288021E+03 -0.26482520278E+03 -0.75607385434E+03  0.83167475634E+03  0.91405667370E+02 0.  0.
          1    1    3    3  502    0 -0.43336174637E+02 -0.91351381930E+01  0.19706320691E+03  0.20197866793E+03  0.00000000000E+00 0. -1.
         -2    1    3    3    0  502 -0.63669607267E+02 -0.29598930813E+02  0.50788954073E+02  0.86656987316E+02  0.00000000000E+00 0.  1.
         13    1    5    5    0    0  0.12014789355E+02  0.46718410607E+02 -0.11550829601E+02  0.49602285405E+02  0.00000000000E+00 0.  1.
        -13    1    5    5    0    0 -0.10884188766E+03  0.25684086118E+03  0.35650515155E+02  0.28122009834E+03  0.00000000000E+00 0. -1.
          3    1    6    6  503    0  0.11299921529E+03 -0.13533863066E+03 -0.28888410180E+03  0.33843668814E+03  0.00000000000E+00 0. -1.
         -3    1    6    6    0  503  0.90833664921E+02 -0.12948657212E+03 -0.46718975254E+03  0.49323806820E+03  0.00000000000E+00 0.  1.
<mgrwt>
<rscale>  0 0.13679957E+04</rscale>
<asrwt>0</asrwt>
<pdfrwt beam="1">  1        1 0.74385447E-01 0.13679957E+04</pdfrwt>
<pdfrwt beam="2">  1       -2 0.14886575E+00 0.13679957E+04</pdfrwt>
<totfact> 0.12118897E+01</totfact>
</mgrwt>
</event>
<event>
12    5  0.5029243E-008  0.1488249E+04  0.7818608E-02  0.8892305E-01
         -4   -1    0    0    0  501 -0.00000000000E+00  0.00000000000E+00  0.22566882441E+03  0.22566882441E+03  0.00000000000E+00 0.  1.
          1   -1    0    0  501    0  0.00000000000E+00 -0.00000000000E+00 -0.24536902413E+04  0.24536902413E+04  0.00000000000E+00 0. -1.
        -24    2    1    2    0    0  0.19306729357E+03  0.42660452514E+03 -0.80786205591E+03  0.93720374426E+03  0.80270518656E+02 0.  0.
        254    2    1    2    0    0 -0.19306729357E+03 -0.42660452514E+03 -0.14201593610E+04  0.17421553215E+04  0.89386025349E+03 0.  0.
         23    2    4    4    0    0 -0.27187160421E+03  0.15645824811E+03 -0.87865975735E+03  0.93729498230E+03  0.89919753608E+02 0.  0.
         23    2    4    4    0    0  0.78804310639E+02 -0.58306277325E+03 -0.54149960365E+03  0.80486033916E+03  0.91684392799E+02 0.  0.
          3    1    3    3  502    0  0.93986839280E+02  0.25110993518E+03 -0.52987568815E+03  0.59385012452E+03  0.00000000000E+00 0. -1.
         -4    1    3    3    0  502  0.99080454295E+02  0.17549458996E+03 -0.27798636775E+03  0.34335361973E+03  0.00000000000E+00 0.  1.
         13    1    5    5    0    0 -0.20871122686E+03  0.15591381677E+03 -0.65560265655E+03  0.70546746045E+03  0.00000000000E+00 0.  1.
        -13    1    5    5    0    0 -0.63160377351E+02  0.54443134328E+00 -0.22305710080E+03  0.23182752185E+03  0.00000000000E+00 0. -1.
          3    1    6    6  503    0  0.34488903600E+02 -0.55836787312E+02 -0.72967590426E+02  0.98140208587E+02  0.00000000000E+00 0. -1.
         -3    1    6    6    0  503  0.44315407039E+02 -0.52722598593E+03 -0.46853201322E+03  0.70672013057E+03  0.00000000000E+00 0.  1.
<mgrwt>
<rscale>  0 0.14882492E+04</rscale>
<asrwt>0</asrwt>
<pdfrwt beam="1">  1        1 0.37749081E+00 0.14882492E+04</pdfrwt>
<pdfrwt beam="2">  1       -4 0.34718280E-01 0.14882492E+04</pdfrwt>
<totfact> 0.56973789E+00</totfact>
</mgrwt>
</event>
<event>
12    5  0.5029243E-008  0.1461363E+04  0.7818608E-02  0.8910560E-01
         -2   -1    0    0    0  501 -0.00000000000E+00  0.00000000000E+00  0.25634240005E+03  0.25634240005E+03  0.00000000000E+00 0.  1.
          1   -1    0    0  501    0  0.00000000000E+00 -0.00000000000E+00 -0.20827445864E+04  0.20827445864E+04  0.00000000000E+00 0. -1.
        -24    2    1    2    0    0  0.27928528562E+03 -0.20601740271E+02 -0.75196202112E+01  0.29087167494E+03  0.78262916686E+02 0.  0.
        254    2    1    2    0    0 -0.27928528562E+03  0.20601740271E+02 -0.18188825661E+04  0.20482153115E+04  0.89912594803E+03 0.  0.
         23    2    4    4    0    0 -0.75807860964E+02 -0.39423341981E+03 -0.49596017281E+03  0.64406388464E+03  0.87606925584E+02 0.  0.
         23    2    4    4    0    0 -0.20347742465E+03  0.41483516008E+03 -0.13229223933E+04  0.14041514268E+04  0.89589611052E+02 0.  0.
          1    1    3    3  502    0  0.80465745283E+02 -0.40002988714E+02 -0.14306098134E+02  0.90992525593E+02  0.00000000000E+00 0. -1.
         -2    1    3    3    0  502  0.19881954034E+03  0.19401248443E+02  0.67864779231E+01  0.19987914934E+03  0.00000000000E+00 0.  1.
         13    1    5    5    0    0 -0.74625334757E+02 -0.18732836193E+03 -0.27920977354E+03  0.34441102394E+03  0.00000000000E+00 0. -1.
        -13    1    5    5    0    0 -0.11825262070E+01 -0.20690505788E+03 -0.21675039927E+03  0.29965286070E+03  0.00000000000E+00 0.  1.
          1    1    6    6  503    0  0.51615074860E+01  0.11261133320E+02 -0.14351846692E+02  0.18958633565E+02  0.00000000000E+00 0. -1.
         -1    1    6    6    0  503 -0.20863893214E+03  0.40357402676E+03 -0.13085705466E+04  0.13851927933E+04  0.00000000000E+00 0.  1.
<mgrwt>
<rscale>  0 0.14613634E+04</rscale>
<asrwt>0</asrwt>
<pdfrwt beam="1">  1        1 0.32042225E+00 0.14613634E+04</pdfrwt>
<pdfrwt beam="2">  1       -2 0.39437292E-01 0.14613634E+04</pdfrwt>
<totfact> 0.13576231E+01</totfact>
</mgrwt>
</event>
<event>
12    5  0.5029243E-008  0.1322328E+04  0.7818608E-02  0.9012044E-01
          1   -1    0    0  501    0  0.00000000000E+00  0.00000000000E+00  0.92777738097E+03  0.92777738097E+03  0.00000000000E+00 0. -1.
         -2   -1    0    0    0  501 -0.00000000000E+00 -0.00000000000E+00 -0.47116676156E+03  0.47116676156E+03  0.00000000000E+00 0.  1.
        -24    2    1    2    0    0  0.26894321483E+03 -0.10368809505E+03 -0.85178530600E+02  0.30894553191E+03  0.71486262691E+02 0.  0.
        254    2    1    2    0    0 -0.26894321483E+03  0.10368809505E+03  0.54178915001E+03  0.10899986106E+04  0.90082174387E+03 0.  0.
         23    2    4    4    0    0  0.76624017355E+02 -0.33950864594E+03  0.11148040033E+03  0.37658102787E+03  0.90818666520E+02 0.  0.
         23    2    4    4    0    0 -0.34556723218E+03  0.44319674098E+03  0.43030874968E+03  0.71341758275E+03  0.89213026817E+02 0.  0.
          1    1    3    3  502    0  0.11082813214E+03 -0.68742053570E+02 -0.11138980868E+02  0.13089087706E+03  0.00000000000E+00 0. -1.
         -2    1    3    3    0  502  0.15811508268E+03 -0.34946041478E+02 -0.74039549732E+02  0.17805465484E+03  0.00000000000E+00 0.  1.
         13    1    5    5    0    0  0.73453381922E+02 -0.12446529048E+03  0.40211116890E+02  0.15001313866E+03  0.00000000000E+00 0.  1.
        -13    1    5    5    0    0  0.31706354335E+01 -0.21504335546E+03  0.71269283442E+02  0.22656788920E+03  0.00000000000E+00 0. -1.
          1    1    6    6  503    0 -0.33882144009E+03  0.44398808183E+03  0.41239256806E+03  0.69425716796E+03  0.00000000000E+00 0. -1.
         -1    1    6    6    0  503 -0.67457920939E+01 -0.79134084590E+00  0.17916181618E+02  0.19160414794E+02  0.00000000000E+00 0.  1.
<mgrwt>
<rscale>  0 0.13223280E+04</rscale>
<asrwt>0</asrwt>
<pdfrwt beam="1">  1        1 0.14273498E+00 0.13223280E+04</pdfrwt>
<pdfrwt beam="2">  1       -2 0.72487194E-01 0.13223280E+04</pdfrwt>
<totfact> 0.25570329E+01</totfact>
</mgrwt>
</event>
<event>
12    5  0.5029243E-008  0.1560074E+04  0.7818608E-02  0.8845459E-01
          1   -1    0    0  501    0  0.00000000000E+00  0.00000000000E+00  0.54046878134E+03  0.54046878134E+03  0.00000000000E+00 0. -1.
         -2   -1    0    0    0  501 -0.00000000000E+00 -0.00000000000E+00 -0.11257958241E+04  0.11257958241E+04  0.00000000000E+00 0.  1.
        -24    2    1    2    0    0  0.10472193323E+03  0.23705083324E+03  0.24706626451E+03  0.36695975550E+03  0.80361323137E+02 0.  0.
        254    2    1    2    0    0 -0.10472193323E+03 -0.23705083324E+03 -0.83239330722E+03  0.12993048499E+04  0.96340785455E+03 0.  0.
         23    2    4    4    0    0  0.38647930813E+03 -0.48349028476E+02 -0.59041093013E+03  0.71324844330E+03  0.91838942130E+02 0.  0.
         23    2    4    4    0    0 -0.49120124136E+03 -0.18870180477E+03 -0.24198237709E+03  0.58605640659E+03  0.89552276623E+02 0.  0.
          3    1    3    3  502    0  0.11749985819E+03  0.19802065609E+03  0.20971810795E+03  0.31144836124E+03  0.00000000000E+00 0. -1.
         -4    1    3    3    0  502 -0.12777924960E+02  0.39030177150E+02  0.37348156558E+02  0.55511394262E+02  0.00000000000E+00 0.  1.
         13    1    5    5    0    0  0.27267971027E+03 -0.60756878231E+02 -0.47249846587E+03  0.54890839208E+03  0.00000000000E+00 0.  1.
        -13    1    5    5    0    0  0.11379959786E+03  0.12407849754E+02 -0.11791246426E+03  0.16434005123E+03  0.00000000000E+00 0. -1.
          3    1    6    6  503    0 -0.40839981658E+03 -0.16758902347E+03 -0.23555951044E+03  0.50036464097E+03  0.00000000000E+00 0. -1.
         -3    1    6    6    0  503 -0.82801424782E+02 -0.21112781294E+02 -0.64228666482E+01  0.85691765625E+02  0.00000000000E+00 0.  1.
<mgrwt>
<rscale>  0 0.15600737E+04</rscale>
<asrwt>0</asrwt>
<pdfrwt beam="1">  1        1 0.83149044E-01 0.15600737E+04</pdfrwt>
<pdfrwt beam="2">  1       -2 0.17319936E+00 0.15600737E+04</pdfrwt>
<totfact> 0.67679591E+00</totfact>
</mgrwt>
</event>
<event>
12    5  0.5029243E-008  0.1448857E+04  0.7818608E-02  0.8919194E-01
         -4   -1    0    0    0  501 -0.00000000000E+00  0.00000000000E+00  0.33624445565E+03  0.33624445565E+03  0.00000000000E+00 0.  1.
          3   -1    0    0  501    0  0.00000000000E+00 -0.00000000000E+00 -0.15607582358E+04  0.15607582358E+04  0.00000000000E+00 0. -1.
        -24    2    1    2    0    0 -0.16553264000E+03 -0.39306919227E+03 -0.52469105096E+03  0.68082630091E+03  0.79494076730E+02 0.  0.
        254    2    1    2    0    0  0.16553264000E+03  0.39306919227E+03 -0.69982272920E+03  0.12161763906E+04  0.89857037333E+03 0.  0.
         23    2    4    4    0    0  0.50014590599E+03  0.79365354543E+02 -0.45741509868E+03  0.68860798817E+03  0.92236663430E+02 0.  0.
         23    2    4    4    0    0 -0.33461326599E+03  0.31370383773E+03 -0.24240763052E+03  0.52756840239E+03  0.95868786822E+02 0.  0.
          1    1    3    3  502    0 -0.16055817141E+03 -0.30910936297E+03 -0.44341577675E+03  0.56386618603E+03  0.00000000000E+00 0. -1.
         -2    1    3    3    0  502 -0.49744685929E+01 -0.83959829298E+02 -0.81275274211E+02  0.11696011488E+03  0.00000000000E+00 0.  1.
         13    1    5    5    0    0  0.59111939119E+02 -0.44748152317E+01 -0.22071072220E+02  0.63256442729E+02  0.00000000000E+00 0. -1.
        -13    1    5    5    0    0  0.44103396687E+03  0.83840169775E+02 -0.43534402647E+03  0.62535154544E+03  0.00000000000E+00 0.  1.
          3    1    6    6  503    0 -0.40036484465E+02  0.31712174606E+02 -0.65492326621E+02  0.83053157392E+02  0.00000000000E+00 0. -1.
         -3    1    6    6    0  503 -0.29457678153E+03  0.28199166312E+03 -0.17691530390E+03  0.44451524500E+03  0.00000000000E+00 0.  1.
<mgrwt>
<rscale>  0 0.14488565E+04</rscale>
<asrwt>0</asrwt>
<pdfrwt beam="1">  1        3 0.24011666E+00 0.14488565E+04</pdfrwt>
<pdfrwt beam="2">  1       -4 0.51729915E-01 0.14488565E+04</pdfrwt>
<totfact> 0.67475955E-01</totfact>
</mgrwt>
</event>
<event>
12    5  0.5029243E-008  0.2376859E+04  0.7818608E-02  0.8448218E-01
          1   -1    0    0  501    0  0.00000000000E+00  0.00000000000E+00  0.17125673498E+04  0.17125673498E+04  0.00000000000E+00 0. -1.
         -2   -1    0    0    0  501 -0.00000000000E+00 -0.00000000000E+00 -0.82470618912E+03  0.82470618912E+03  0.00000000000E+00 0.  1.
        -24    2    1    2    0    0  0.21873535247E+03  0.95777552520E+03  0.67354206308E+03  0.11940309156E+04  0.82896354281E+02 0.  0.
        254    2    1    2    0    0 -0.21873535247E+03 -0.95777552520E+03  0.21431909765E+03  0.13432426234E+04  0.89061156435E+03 0.  0.
         23    2    4    4    0    0 -0.28921900591E+03 -0.65462826311E+03 -0.26166349028E+03  0.76739073688E+03  0.90746706056E+02 0.  0.
         23    2    4    4    0    0  0.70483653446E+02 -0.30314726209E+03  0.47598258793E+03  0.57585188650E+03  0.90442043640E+02 0.  0.
          3    1    3    3  502    0  0.27751051826E+02  0.60888826759E+02  0.27665065801E+02  0.72408051812E+02  0.00000000000E+00 0. -1.
         -4    1    3    3    0  502  0.19098430064E+03  0.89688669844E+03  0.64587699728E+03  0.11216228638E+04  0.00000000000E+00 0.  1.
         13    1    5    5    0    0 -0.20734797119E+03 -0.37424376464E+03 -0.17939435623E+03  0.46393308955E+03  0.00000000000E+00 0.  1.
        -13    1    5    5    0    0 -0.81871034726E+02 -0.28038449846E+03 -0.82269134050E+02  0.30345764733E+03  0.00000000000E+00 0. -1.
          1    1    6    6  503    0 -0.18896129881E+02 -0.26871864754E+02  0.36507107429E+02  0.49111401249E+02  0.00000000000E+00 0. -1.
         -1    1    6    6    0  503  0.89379783327E+02 -0.27627539734E+03  0.43947548050E+03  0.52674048525E+03  0.00000000000E+00 0.  1.
<mgrwt>
<rscale>  0 0.23768592E+04</rscale>
<asrwt>0</asrwt>
<pdfrwt beam="1">  1        1 0.26347190E+00 0.23768592E+04</pdfrwt>
<pdfrwt beam="2">  1       -2 0.12687788E+00 0.23768592E+04</pdfrwt>
<totfact> 0.17019550E+00</totfact>
</mgrwt>
</event>
<event>
12    5  0.5029243E-008  0.2421706E+04  0.7818608E-02  0.8431422E-01
          1   -1    0    0  501    0  0.00000000000E+00  0.00000000000E+00  0.16116673483E+04  0.16116673483E+04  0.00000000000E+00 0. -1.
         -2   -1    0    0    0  501 -0.00000000000E+00 -0.00000000000E+00 -0.90971947276E+03  0.90971947276E+03  0.00000000000E+00 0.  1.
        -24    2    1    2    0    0  0.66874659821E+03 -0.57936759294E+03 -0.26691874474E+03  0.92752439344E+03  0.78530654947E+02 0.  0.
        254    2    1    2    0    0 -0.66874659821E+03  0.57936759294E+03  0.96886662028E+03  0.15938624276E+04  0.90487904710E+03 0.  0.
         23    2    4    4    0    0 -0.30747145414E+02  0.59831757209E+03  0.59264848017E+03  0.84743848360E+03  0.89389364163E+02 0.  0.
         23    2    4    4    0    0 -0.63799945280E+03 -0.18949979146E+02  0.37621814011E+03  0.74642394401E+03  0.90588143600E+02 0.  0.
          1    1    3    3  502    0  0.38448143722E+03 -0.29334317805E+03 -0.11937838351E+03  0.49812387427E+03  0.00000000000E+00 0. -1.
         -2    1    3    3    0  502  0.28426516100E+03 -0.28602441489E+03 -0.14754036123E+03  0.42940051917E+03  0.00000000000E+00 0.  1.
         13    1    5    5    0    0 -0.32257098008E+02  0.33754515904E+03  0.39265717651E+03  0.51880334717E+03  0.00000000000E+00 0. -1.
        -13    1    5    5    0    0  0.15099525942E+01  0.26077241305E+03  0.19999130366E+03  0.32863513644E+03  0.00000000000E+00 0.  1.
          1    1    6    6  503    0 -0.50220039579E+03 -0.50283814209E+02  0.28136605169E+03  0.57784128838E+03  0.00000000000E+00 0. -1.
         -1    1    6    6    0  503 -0.13579905700E+03  0.31333835064E+02  0.94852088413E+02  0.16858265563E+03  0.00000000000E+00 0.  1.
<mgrwt>
<rscale>  0 0.24217062E+04</rscale>
<asrwt>0</asrwt>
<pdfrwt beam="1">  1        1 0.24794882E+00 0.24217062E+04</pdfrwt>
<pdfrwt beam="2">  1       -2 0.13995684E+00 0.24217062E+04</pdfrwt>
<totfact> 0.15468011E+00</totfact>
</mgrwt>
</event>
<event>
12    5  0.5029243E-008  0.2141539E+04  0.7818608E-02  0.8543163E-01
         -2   -1    0    0    0  501 -0.00000000000E+00  0.00000000000E+00  0.47749280287E+03  0.47749280287E+03  0.00000000000E+00 0.  1.
          1   -1    0    0  501    0  0.00000000000E+00 -0.00000000000E+00 -0.24011827358E+04  0.24011827358E+04  0.00000000000E+00 0. -1.
        -24    2    1    2    0    0 -0.10773148990E+03 -0.29801934634E+03  0.31005851994E+03  0.45067011240E+03  0.80905251452E+02 0.  0.
        254    2    1    2    0    0  0.10773148990E+03  0.29801934634E+03 -0.22337484528E+04  0.24280054262E+04  0.89730518474E+03 0.  0.
         23    2    4    4    0    0 -0.22538861453E+03  0.35289816596E+03 -0.18888715497E+04  0.19367963696E+04  0.89483534509E+02 0.  0.
         23    2    4    4    0    0  0.33312010443E+03 -0.54878819617E+02 -0.34487690318E+03  0.49120905668E+03  0.91463491049E+02 0.  0.
          1    1    3    3  502    0  0.57130271988E+01 -0.87945002679E+02  0.90300504432E+02  0.12617901282E+03  0.00000000000E+00 0. -1.
         -2    1    3    3    0  502 -0.11344451710E+03 -0.21007434366E+03  0.21975801551E+03  0.32449109958E+03  0.00000000000E+00 0.  1.
         13    1    5    5    0    0 -0.32975202212E+02  0.13971157846E+02 -0.22902297547E+03  0.23180612698E+03  0.00000000000E+00 0.  1.
        -13    1    5    5    0    0 -0.19241341232E+03  0.33892700811E+03 -0.16598485742E+04  0.17049902426E+04  0.00000000000E+00 0. -1.
          3    1    6    6  503    0  0.32971452129E+03 -0.52983750233E+02 -0.35066161662E+03  0.48423394420E+03  0.00000000000E+00 0. -1.
         -3    1    6    6    0  503  0.34055831363E+01 -0.18950693837E+01  0.57847134425E+01  0.69751124779E+01  0.00000000000E+00 0.  1.
<mgrwt>
<rscale>  0 0.21415391E+04</rscale>
<asrwt>0</asrwt>
<pdfrwt beam="1">  1        1 0.36941273E+00 0.21415391E+04</pdfrwt>
<pdfrwt beam="2">  1       -2 0.73460430E-01 0.21415391E+04</pdfrwt>
<totfact> 0.21346545E+00</totfact>
</mgrwt>
</event>
<event>
12    5  0.5029243E-008  0.2783232E+04  0.7818608E-02  0.8308493E-01
          1   -1    0    0  501    0  0.00000000000E+00  0.00000000000E+00  0.47631101615E+04  0.47631101615E+04  0.00000000000E+00 0. -1.
         -2   -1    0    0    0  501 -0.00000000000E+00 -0.00000000000E+00 -0.40658208223E+03  0.40658208223E+03  0.00000000000E+00 0.  1.
        -24    2    1    2    0    0  0.11299527304E+04 -0.42099980610E+03  0.24887965690E+04  0.27666325942E+04  0.78189126326E+02 0.  0.
        254    2    1    2    0    0 -0.11299527304E+04  0.42099980610E+03  0.18677315102E+04  0.24030596495E+04  0.91227225944E+03 0.  0.
         23    2    4    4    0    0  0.21688678012E+02 -0.97885404566E+02 -0.57915656507E+01  0.14165745871E+03  0.99906667414E+02 0.  0.
         23    2    4    4    0    0 -0.11516414084E+04  0.51888521067E+03  0.18735230758E+04  0.22614021908E+04  0.91276270239E+02 0.  0.
          1    1    3    3  502    0  0.51004415883E+02 -0.37019756773E+02  0.13810213884E+03  0.15180287739E+03  0.00000000000E+00 0. -1.
         -2    1    3    3    0  502  0.10789483145E+04 -0.38398004933E+03  0.23506944302E+04  0.26148297168E+04  0.00000000000E+00 0.  1.
         13    1    5    5    0    0  0.19765755290E+02 -0.79245556744E+02 -0.48521416475E+02  0.94999322116E+02  0.00000000000E+00 0.  1.
        -13    1    5    5    0    0  0.19229227226E+01 -0.18639847822E+02  0.42729850824E+02  0.46658136591E+02  0.00000000000E+00 0. -1.
          4    1    6    6  503    0 -0.52014564480E+02  0.29953273976E+02  0.59642783209E+02  0.84616636242E+02  0.00000000000E+00 0. -1.
         -4    1    6    6    0  503 -0.10996268439E+04  0.48893193669E+03  0.18138802926E+04  0.21767855546E+04  0.00000000000E+00 0.  1.
<mgrwt>
<rscale>  0 0.27832321E+04</rscale>
<asrwt>0</asrwt>
<pdfrwt beam="1">  1        1 0.73278614E+00 0.27832321E+04</pdfrwt>
<pdfrwt beam="2">  1       -2 0.62551093E-01 0.27832321E+04</pdfrwt>
<totfact> 0.30297265E-02</totfact>
</mgrwt>
</event>
<event>
12    5  0.5029243E-008  0.2209759E+04  0.7818608E-02  0.8514377E-01
         -4   -1    0    0    0  501 -0.00000000000E+00  0.00000000000E+00  0.89449676077E+03  0.89449676077E+03  0.00000000000E+00 0.  1.
          1   -1    0    0  501    0  0.00000000000E+00 -0.00000000000E+00 -0.13647441185E+04  0.13647441185E+04  0.00000000000E+00 0. -1.
        -24    2    1    2    0    0 -0.48441205404E+03 -0.71099816835E+03 -0.52312124371E+03  0.10100898607E+04  0.80325945457E+02 0.  0.
        254    2    1    2    0    0  0.48441205404E+03  0.71099816835E+03  0.52873885964E+02  0.12491510186E+04  0.90410684434E+03 0.  0.
         23    2    4    4    0    0  0.42423835829E+03  0.60142385445E+03 -0.34801952419E+03  0.81943591884E+03  0.93106382846E+02 0.  0.
         23    2    4    4    0    0  0.60173695754E+02  0.10957431391E+03  0.40089341015E+03  0.42971509977E+03  0.91170920474E+02 0.  0.
          3    1    3    3  502    0 -0.24469211973E+03 -0.35239909443E+03 -0.30759919931E+03  0.52789830709E+03  0.00000000000E+00 0. -1.
         -4    1    3    3    0  502 -0.23971993431E+03 -0.35859907393E+03 -0.21552204440E+03  0.48219155359E+03  0.00000000000E+00 0.  1.
         13    1    5    5    0    0  0.40855763847E+03  0.56996931884E+03 -0.35091200950E+03  0.78417064901E+03  0.00000000000E+00 0.  1.
        -13    1    5    5    0    0  0.15680719823E+02  0.31454535608E+02  0.28924853112E+01  0.35265269824E+02  0.00000000000E+00 0. -1.
          3    1    6    6  503    0 -0.19716774678E+02  0.12379024582E+01  0.61825509579E+02  0.64905140327E+02  0.00000000000E+00 0. -1.
         -3    1    6    6    0  503  0.79890470432E+02  0.10833641145E+03  0.33906790057E+03  0.36480995945E+03  0.00000000000E+00 0.  1.
<mgrwt>
<rscale>  0 0.22097594E+04</rscale>
<asrwt>0</asrwt>
<pdfrwt beam="1">  1        1 0.20996063E+00 0.22097594E+04</pdfrwt>
<pdfrwt beam="2">  1       -4 0.13761489E+00 0.22097594E+04</pdfrwt>
<totfact> 0.13501947E+00</totfact>
</mgrwt>
</event>
<event>
12    5  0.5029243E-008  0.1248354E+04  0.7818608E-02  0.9071554E-01
          1   -1    0    0  501    0  0.00000000000E+00  0.00000000000E+00  0.20635950914E+04  0.20635950914E+04  0.00000000000E+00 0. -1.
         -2   -1    0    0    0  501 -0.00000000000E+00 -0.00000000000E+00 -0.18879526637E+03  0.18879526637E+03  0.00000000000E+00 0.  1.
        -24    2    1    2    0    0  0.15985129162E+03 -0.11174909173E+03  0.80098551744E+03  0.82830963996E+03  0.80490779430E+02 0.  0.
        254    2    1    2    0    0 -0.15985129162E+03  0.11174909173E+03  0.10738143076E+04  0.14240807178E+04  0.91481606277E+03 0.  0.
         23    2    4    4    0    0  0.35537096529E+03 -0.76390350893E+02  0.50418025559E+03  0.62811784791E+03  0.90610661901E+02 0.  0.
         23    2    4    4    0    0 -0.51522225691E+03  0.18813944262E+03  0.56963405200E+03  0.79596286990E+03  0.90683588272E+02 0.  0.
          3    1    3    3  502    0  0.16851040851E+03 -0.10777626033E+03  0.78038306370E+03  0.80561107625E+03  0.00000000000E+00 0. -1.
         -2    1    3    3    0  502 -0.86591168862E+01 -0.39728313958E+01  0.20602453733E+02  0.22698563707E+02  0.00000000000E+00 0.  1.
         13    1    5    5    0    0  0.11867409607E+03 -0.48119163706E+02  0.24182770443E+03  0.27364143258E+03  0.00000000000E+00 0. -1.
        -13    1    5    5    0    0  0.23669686921E+03 -0.28271187187E+02  0.26235255116E+03  0.35447641532E+03  0.00000000000E+00 0.  1.
          3    1    6    6  503    0 -0.20111783552E+03  0.36476202530E+02  0.24932979985E+03  0.32240385576E+03  0.00000000000E+00 0. -1.
         -3    1    6    6    0  503 -0.31410442139E+03  0.15166324009E+03  0.32030425215E+03  0.47355901415E+03  0.00000000000E+00 0.  1.
<mgrwt>
<rscale>  0 0.12483541E+04</rscale>
<asrwt>0</asrwt>
<pdfrwt beam="1">  1        1 0.31747615E+00 0.12483541E+04</pdfrwt>
<pdfrwt beam="2">  1       -2 0.29045427E-01 0.12483541E+04</pdfrwt>
<totfact> 0.25490477E+01</totfact>
</mgrwt>
</event>
<event>
12    5  0.5029243E-008  0.1502943E+04  0.7818608E-02  0.8882498E-01
         -2   -1    0    0    0  501 -0.00000000000E+00  0.00000000000E+00  0.49987509965E+03  0.49987509965E+03  0.00000000000E+00 0.  1.
          1   -1    0    0  501    0  0.00000000000E+00 -0.00000000000E+00 -0.11297015251E+04  0.11297015251E+04  0.00000000000E+00 0. -1.
        -24    2    1    2    0    0 -0.17900340203E+03 -0.41231765835E+03 -0.36182759666E+02  0.45805256625E+03  0.80342342694E+02 0.  0.
        254    2    1    2    0    0  0.17900340203E+03  0.41231765835E+03 -0.59364366578E+03  0.11715240585E+04  0.90443780791E+03 0.  0.
         23    2    4    4    0    0 -0.16107527387E+03 -0.11874355428E+03  0.90379398848E+02  0.23680083120E+03  0.88661842890E+02 0.  0.
         23    2    4    4    0    0  0.34007867590E+03  0.53106121263E+03 -0.68402306463E+03  0.93472322729E+03  0.90224394326E+02 0.  0.
          3    1    3    3  502    0  0.37179361774E+01  0.86015413487E+00 -0.33594558701E+01  0.50841772489E+01  0.00000000000E+00 0. -1.
         -4    1    3    3    0  502 -0.18272133820E+03 -0.41317781249E+03 -0.32823303796E+02  0.45296838901E+03  0.00000000000E+00 0.  1.
         13    1    5    5    0    0 -0.11019645135E+03 -0.47845950313E+02  0.89024845180E+02  0.14952563630E+03  0.00000000000E+00 0. -1.
        -13    1    5    5    0    0 -0.50878822526E+02 -0.70897603963E+02  0.13545536687E+01  0.87275194901E+02  0.00000000000E+00 0.  1.
          1    1    6    6  503    0  0.79859144213E+02  0.64379036946E+02 -0.10320377005E+03  0.14551000469E+03  0.00000000000E+00 0.  1.
         -1    1    6    6    0  503  0.26021953169E+03  0.46668217568E+03 -0.58081929458E+03  0.78921322260E+03  0.00000000000E+00 0. -1.
<mgrwt>
<rscale>  0 0.15029433E+04</rscale>
<asrwt>0</asrwt>
<pdfrwt beam="1">  1        1 0.17380023E+00 0.15029433E+04</pdfrwt>
<pdfrwt beam="2">  1       -2 0.76903862E-01 0.15029433E+04</pdfrwt>
<totfact> 0.15426508E+01</totfact>
</mgrwt>
</event>
<event>
12    5  0.5029243E-008  0.2166924E+04  0.7818608E-02  0.8532323E-01
          1   -1    0    0  501    0  0.00000000000E+00  0.00000000000E+00  0.13845706335E+04  0.13845706335E+04  0.00000000000E+00 0. -1.
         -2   -1    0    0    0  501 -0.00000000000E+00 -0.00000000000E+00 -0.84783662845E+03  0.84783662845E+03  0.00000000000E+00 0.  1.
        -24    2    1    2    0    0 -0.47646908181E+03 -0.34310240460E+03  0.92604100160E+03  0.10993214444E+04  0.78826742930E+02 0.  0.
        254    2    1    2    0    0  0.47646908181E+03  0.34310240460E+03 -0.38930699653E+03  0.11330858176E+04  0.88745787875E+03 0.  0.
         23    2    4    4    0    0 -0.24389053091E+03  0.15982103492E+03 -0.45281628721E+02  0.30880070382E+03  0.91006013579E+02 0.  0.
         23    2    4    4    0    0  0.72035961272E+03  0.18328136967E+03 -0.34402536781E+03  0.82428511379E+03  0.92641583656E+02 0.  0.
          3    1    3    3  502    0 -0.44244939124E+03 -0.31202646327E+03  0.80811735077E+03  0.97271559575E+03  0.00000000000E+00 0. -1.
         -4    1    3    3    0  502 -0.34019690569E+02 -0.31075941330E+02  0.11792365083E+03  0.12660584860E+03  0.00000000000E+00 0.  1.
         13    1    5    5    0    0 -0.12570671491E+03  0.61206536572E+02 -0.63956189701E+02  0.15374918697E+03  0.00000000000E+00 0. -1.
        -13    1    5    5    0    0 -0.11818381600E+03  0.98614498353E+02  0.18674560980E+02  0.15505151685E+03  0.00000000000E+00 0.  1.
          3    1    6    6  503    0  0.18982669449E+03  0.20937590581E+02 -0.55214531339E+02  0.19879939917E+03  0.00000000000E+00 0. -1.
         -3    1    6    6    0  503  0.53053291823E+03  0.16234377909E+03 -0.28881083647E+03  0.62548571462E+03  0.00000000000E+00 0.  1.
<mgrwt>
<rscale>  0 0.21669238E+04</rscale>
<asrwt>0</asrwt>
<pdfrwt beam="1">  1        1 0.21301087E+00 0.21669238E+04</pdfrwt>
<pdfrwt beam="2">  1       -2 0.13043640E+00 0.21669238E+04</pdfrwt>
<totfact> 0.27223502E+00</totfact>
</mgrwt>
</event>
<event>
12    5  0.5029243E-008  0.1726666E+04  0.7818608E-02  0.8746300E-01
          3   -1    0    0  501    0  0.00000000000E+00  0.00000000000E+00  0.18447738723E+04  0.18447738723E+04  0.00000000000E+00 0. -1.
         -4   -1    0    0    0  501 -0.00000000000E+00 -0.00000000000E+00 -0.40403011100E+03  0.40403011100E+03  0.00000000000E+00 0.  1.
        -24    2    1    2    0    0 -0.24470945105E+03  0.16307426151E+03 -0.19113186978E+03  0.35961670637E+03  0.79478636466E+02 0.  0.
        254    2    1    2    0    0  0.24470945105E+03 -0.16307426151E+03  0.16318756311E+04  0.18891872769E+04  0.90528148206E+03 0.  0.
         23    2    4    4    0    0  0.52640076390E+03  0.16094856239E+02  0.13221802654E+04  0.14262025322E+04  0.92391557784E+02 0.  0.
         23    2    4    4    0    0 -0.28169131284E+03 -0.17916911775E+03  0.30969536561E+03  0.46298474468E+03  0.83618693124E+02 0.  0.
          3    1    3    3  502    0 -0.21891700264E+02  0.48031880023E+02 -0.45116267087E+02  0.69439078297E+02  0.00000000000E+00 0. -1.
         -4    1    3    3    0  502 -0.22281775079E+03  0.11504238149E+03 -0.14601560269E+03  0.29017762807E+03  0.00000000000E+00 0.  1.
         13    1    5    5    0    0  0.18941364507E+02 -0.17939583741E+02  0.63714954954E+02  0.68849106305E+02  0.00000000000E+00 0. -1.
        -13    1    5    5    0    0  0.50745939939E+03  0.34034439980E+02  0.12584653105E+04  0.13573534259E+04  0.00000000000E+00 0.  1.
          1    1    6    6  503    0 -0.10203134197E+02 -0.31976710912E+02  0.17566760112E+02  0.37884100214E+02  0.00000000000E+00 0. -1.
         -1    1    6    6    0  503 -0.27148817865E+03 -0.14719240684E+03  0.29212860550E+03  0.42510064447E+03  0.00000000000E+00 0.  1.
<mgrwt>
<rscale>  0 0.17266664E+04</rscale>
<asrwt>0</asrwt>
<pdfrwt beam="1">  1        3 0.28381136E+00 0.17266664E+04</pdfrwt>
<pdfrwt beam="2">  1       -4 0.62158480E-01 0.17266664E+04</pdfrwt>
<totfact> 0.25209710E-01</totfact>
</mgrwt>
</event>
<event>
12    5  0.5029243E-008  0.1866921E+04  0.7818608E-02  0.8671499E-01
          1   -1    0    0  501    0  0.00000000000E+00  0.00000000000E+00  0.29872552946E+04  0.29872552946E+04  0.00000000000E+00 0. -1.
         -2   -1    0    0    0  501 -0.00000000000E+00 -0.00000000000E+00 -0.29168874997E+03  0.29168874997E+03  0.00000000000E+00 0.  1.
        -24    2    1    2    0    0 -0.36741559842E+03 -0.61475605540E+03  0.11649496558E+04  0.13698098048E+04  0.79699254409E+02 0.  0.
        254    2    1    2    0    0  0.36741559842E+03  0.61475605540E+03  0.15306168889E+04  0.19091342398E+04  0.88830527156E+03 0.  0.
         23    2    4    4    0    0  0.47182296581E+03  0.74149173459E+03  0.94166511283E+03  0.12913319647E+04  0.91532261202E+02 0.  0.
         23    2    4    4    0    0 -0.10440736739E+03 -0.12673567919E+03  0.58895177606E+03  0.61780227511E+03  0.88615043031E+02 0.  0.
          1    1    3    3  502    0 -0.16005962930E+03 -0.22266195957E+03  0.50514856986E+03  0.57478040224E+03  0.00000000000E+00 0. -1.
         -2    1    3    3    0  502 -0.20735596912E+03 -0.39209409584E+03  0.65980108591E+03  0.79502940253E+03  0.00000000000E+00 0.  1.
         13    1    5    5    0    0  0.94436955347E+02  0.19590670762E+03  0.27803076149E+03  0.35298566679E+03  0.00000000000E+00 0.  1.
        -13    1    5    5    0    0  0.37738601046E+03  0.54558502697E+03  0.66363435134E+03  0.93834629792E+03  0.00000000000E+00 0. -1.
          1    1    6    6  503    0 -0.92555500721E+02 -0.43621167561E+02  0.30558384923E+03  0.32225892677E+03  0.00000000000E+00 0. -1.
         -1    1    6    6    0  503 -0.11851866670E+02 -0.83114511629E+02  0.28336792683E+03  0.29554334834E+03  0.00000000000E+00 0.  1.
<mgrwt>
<rscale>  0 0.18669213E+04</rscale>
<asrwt>0</asrwt>
<pdfrwt beam="1">  1        1 0.45957772E+00 0.18669213E+04</pdfrwt>
<pdfrwt beam="2">  1       -2 0.44875194E-01 0.18669213E+04</pdfrwt>
<totfact> 0.23764186E+00</totfact>
</mgrwt>
</event>
<event>
12    5  0.5029243E-008  0.1498160E+04  0.7818608E-02  0.8885677E-01
          1   -1    0    0  501    0  0.00000000000E+00  0.00000000000E+00  0.30272193360E+04  0.30272193360E+04  0.00000000000E+00 0. -1.
         -2   -1    0    0    0  501 -0.00000000000E+00 -0.00000000000E+00 -0.18535857683E+03  0.18535857683E+03  0.00000000000E+00 0.  1.
        -24    2    1    2    0    0  0.48082346215E+02 -0.55331979880E+02  0.19357716259E+04  0.19388687086E+04  0.81403572727E+02 0.  0.
        254    2    1    2    0    0 -0.48082346215E+02  0.55331979880E+02  0.90608913330E+03  0.12737092042E+04  0.89216819009E+03 0.  0.
         23    2    4    4    0    0 -0.15684290616E+03 -0.38853505966E+03  0.45986528508E+03  0.62846090017E+03  0.89038378379E+02 0.  0.
         23    2    4    4    0    0  0.10876055994E+03  0.44386703954E+03  0.44622384822E+03  0.64524830405E+03  0.91557866785E+02 0.  0.
          1    1    3    3  502    0 -0.10320002699E+02 -0.49807483016E+02  0.88224934060E+03  0.88371442605E+03  0.00000000000E+00 0. -1.
         -2    1    3    3    0  502  0.58402348913E+02 -0.55244968642E+01  0.10535222853E+04  0.10551542826E+04  0.00000000000E+00 0.  1.
         13    1    5    5    0    0 -0.61259746652E+02 -0.71518561214E+02  0.72357544187E+02  0.11875721182E+03  0.00000000000E+00 0. -1.
        -13    1    5    5    0    0 -0.95583159504E+02 -0.31701649845E+03  0.38750774090E+03  0.50970368835E+03  0.00000000000E+00 0.  1.
          4    1    6    6  503    0  0.77197783817E+01  0.48001548840E+02  0.14229667536E+02  0.50657942195E+02  0.00000000000E+00 0.  1.
         -4    1    6    6    0  503  0.10104078156E+03  0.39586549070E+03  0.43199418068E+03  0.59459036185E+03  0.00000000000E+00 0. -1.
<mgrwt>
<rscale>  0 0.14981603E+04</rscale>
<asrwt>0</asrwt>
<pdfrwt beam="1">  1        1 0.46572601E+00 0.14981603E+04</pdfrwt>
<pdfrwt beam="2">  1       -2 0.28516707E-01 0.14981603E+04</pdfrwt>
<totfact> 0.55022213E+00</totfact>
</mgrwt>
</event>
<event>
12    5  0.5029243E-008  0.1553172E+04  0.7818608E-02  0.8849844E-01
         -2   -1    0    0    0  501 -0.00000000000E+00  0.00000000000E+00  0.30589148531E+03  0.30589148531E+03  0.00000000000E+00 0.  1.
          1   -1    0    0  501    0  0.00000000000E+00 -0.00000000000E+00 -0.19715683251E+04  0.19715683251E+04  0.00000000000E+00 0. -1.
        -24    2    1    2    0    0  0.12876727835E+03  0.28183803785E+03 -0.11582480137E+04  0.12034101752E+04  0.10316926302E+03 0.  0.
        254    2    1    2    0    0 -0.12876727835E+03 -0.28183803785E+03 -0.50742882602E+03  0.10740496352E+04  0.89447465802E+03 0.  0.
         23    2    4    4    0    0 -0.17534823199E+03 -0.35384276895E+03  0.12881334176E+03  0.42542547279E+03  0.91881708091E+02 0.  0.
         23    2    4    4    0    0  0.46580953635E+02  0.72004731104E+02 -0.63624216777E+03  0.64862416241E+03  0.92491845395E+02 0.  0.
          3    1    3    3  502    0  0.58601768415E+02  0.17203119292E+03 -0.84156216776E+03  0.86096212507E+03  0.00000000000E+00 0. -1.
         -4    1    3    3    0  502  0.70165509938E+02  0.10980684493E+03 -0.31668584598E+03  0.34244805010E+03  0.00000000000E+00 0.  1.
         13    1    5    5    0    0 -0.17502322634E+02 -0.68593071121E+02 -0.92365904489E+01  0.71390862906E+02  0.00000000000E+00 0. -1.
        -13    1    5    5    0    0 -0.15784590935E+03 -0.28524969783E+03  0.13804993221E+03  0.35403460988E+03  0.00000000000E+00 0.  1.
          3    1    6    6  503    0  0.31692830719E+02  0.83594299474E+02 -0.33288440687E+03  0.34468024423E+03  0.00000000000E+00 0. -1.
         -3    1    6    6    0  503  0.14888122916E+02 -0.11589568370E+02 -0.30335776090E+03  0.30394391818E+03  0.00000000000E+00 0.  1.
<mgrwt>
<rscale>  0 0.15531722E+04</rscale>
<asrwt>0</asrwt>
<pdfrwt beam="1">  1        1 0.30331822E+00 0.15531722E+04</pdfrwt>
<pdfrwt beam="2">  1       -2 0.47060227E-01 0.15531722E+04</pdfrwt>
<totfact> 0.11280015E+01</totfact>
</mgrwt>
</event>
<event>
12    5  0.5029243E-008  0.2863020E+04  0.7818608E-02  0.8283966E-01
         -2   -1    0    0    0  501 -0.00000000000E+00  0.00000000000E+00  0.87672842372E+03  0.87672842372E+03  0.00000000000E+00 0.  1.
          1   -1    0    0  501    0  0.00000000000E+00 -0.00000000000E+00 -0.23373488670E+04  0.23373488670E+04  0.00000000000E+00 0. -1.
        -24    2    1    2    0    0  0.11415552601E+04 -0.16157353041E+03 -0.13080889731E+04  0.17453265588E+04  0.76247084641E+02 0.  0.
        254    2    1    2    0    0 -0.11415552601E+04  0.16157353041E+03 -0.15253147026E+03  0.14687507320E+04  0.89705543070E+03 0.  0.
         23    2    4    4    0    0 -0.70318855254E+03  0.19361548493E+03  0.33354659257E+03  0.80698520851E+03  0.89502519018E+02 0.  0.
         23    2    4    4    0    0 -0.43836670751E+03 -0.32041954523E+02 -0.48607806283E+03  0.66176552345E+03  0.92030797916E+02 0.  0.
          1    1    3    3  502    0  0.71978493129E+03 -0.92718382128E+02 -0.76867626477E+03  0.10571424907E+04  0.00000000000E+00 0. -1.
         -2    1    3    3    0  502  0.42177032877E+03 -0.68855148279E+02 -0.53941270829E+03  0.68818406807E+03  0.00000000000E+00 0.  1.
         13    1    5    5    0    0 -0.83134035479E+02  0.53993610435E+02  0.40086518987E+02  0.10692757749E+03  0.00000000000E+00 0. -1.
        -13    1    5    5    0    0 -0.62005451706E+03  0.13962187449E+03  0.29346007358E+03  0.70005763102E+03  0.00000000000E+00 0.  1.
          1    1    6    6  503    0 -0.16671657315E+03  0.26575923882E+02 -0.15156272257E+03  0.22687431402E+03  0.00000000000E+00 0. -1.
         -1    1    6    6    0  503 -0.27165013437E+03 -0.58617878405E+02 -0.33451534026E+03  0.43489120943E+03  0.00000000000E+00 0.  1.
<mgrwt>
<rscale>  0 0.28630195E+04</rscale>
<asrwt>0</asrwt>
<pdfrwt beam="1">  1        1 0.35959213E+00 0.28630195E+04</pdfrwt>
<pdfrwt beam="2">  1       -2 0.13488130E+00 0.28630195E+04</pdfrwt>
<totfact> 0.52524583E-01</totfact>
</mgrwt>
</event>
<event>
12    5  0.5029243E-008  0.1435554E+04  0.7818608E-02  0.8928477E-01
          1   -1    0    0  501    0  0.00000000000E+00  0.00000000000E+00  0.28487549890E+04  0.28487549890E+04  0.00000000000E+00 0. -1.
         -2   -1    0    0    0  501 -0.00000000000E+00 -0.00000000000E+00 -0.18085226027E+03  0.18085226027E+03  0.00000000000E+00 0.  1.
        -24    2    1    2    0    0 -0.29349073415E+03 -0.77378107528E+02  0.14502922522E+04  0.14841615736E+04  0.85227795966E+02 0.  0.
        254    2    1    2    0    0  0.29349073415E+03  0.77378107528E+02  0.12176104766E+04  0.15454456758E+04  0.90205481063E+03 0.  0.
         23    2    4    4    0    0 -0.14772742389E+03 -0.20875440011E+03  0.86278282858E+03  0.90456020325E+03  0.91832242055E+02 0.  0.
         23    2    4    4    0    0  0.44121815804E+03  0.28613250764E+03  0.35482764804E+03  0.64088547250E+03  0.91028864305E+02 0.  0.
          3    1    3    3  502    0 -0.17754183972E+03 -0.32052628979E+01  0.80464603810E+03  0.82400644730E+03  0.00000000000E+00 0. -1.
         -4    1    3    3    0  502 -0.11594889443E+03 -0.74172844630E+02  0.64564621405E+03  0.66015512626E+03  0.00000000000E+00 0.  1.
         13    1    5    5    0    0 -0.10884282044E+03 -0.20251330721E+03  0.68809692891E+03  0.72549002938E+03  0.00000000000E+00 0. -1.
        -13    1    5    5    0    0 -0.38884603449E+02 -0.62410928990E+01  0.17468589967E+03  0.17907017387E+03  0.00000000000E+00 0.  1.
          1    1    6    6  503    0  0.39196809241E+03  0.25194252058E+03  0.34580868807E+03  0.58025655350E+03  0.00000000000E+00 0. -1.
         -1    1    6    6    0  503  0.49250065634E+02  0.34189987060E+02  0.90189599777E+01  0.60628919000E+02  0.00000000000E+00 0.  1.
<mgrwt>
<rscale>  0 0.14355539E+04</rscale>
<asrwt>0</asrwt>
<pdfrwt beam="1">  1        1 0.43826997E+00 0.14355539E+04</pdfrwt>
<pdfrwt beam="2">  1       -2 0.27823427E-01 0.14355539E+04</pdfrwt>
<totfact> 0.77899488E+00</totfact>
</mgrwt>
</event>
<event>
12    5  0.5029243E-008  0.9997290E+03  0.7818608E-02  0.9308842E-01
          1   -1    0    0  501    0  0.00000000000E+00  0.00000000000E+00  0.40828115246E+03  0.40828115246E+03  0.00000000000E+00 0. -1.
         -2   -1    0    0    0  501 -0.00000000000E+00 -0.00000000000E+00 -0.61199129482E+03  0.61199129482E+03  0.00000000000E+00 0.  1.
        -24    2    1    2    0    0 -0.57012181306E+02  0.61234829613E+02 -0.62640963127E+02  0.13129817566E+03  0.79468405646E+02 0.  0.
        254    2    1    2    0    0  0.57012181306E+02 -0.61234829613E+02 -0.14106917923E+03  0.88897427161E+03  0.87371313890E+03 0.  0.
         23    2    4    4    0    0  0.43148222011E+03 -0.16538523673E+03 -0.12281879063E+03  0.48642378631E+03  0.89411753998E+02 0.  0.
         23    2    4    4    0    0 -0.37447003881E+03  0.10415040712E+03 -0.18250388606E+02  0.40255048531E+03  0.10314407044E+03 0.  0.
          3    1    3    3  502    0 -0.16163129928E+01  0.38088668832E+02 -0.60144822262E+02  0.71209260676E+02  0.00000000000E+00 0. -1.
         -2    1    3    3    0  502 -0.55395868313E+02  0.23146160781E+02 -0.24961408645E+01  0.60088914987E+02  0.00000000000E+00 0.  1.
         13    1    5    5    0    0  0.31470573696E+00 -0.40090525836E+01 -0.12335540351E+02  0.12974478721E+02  0.00000000000E+00 0. -1.
        -13    1    5    5    0    0  0.43116751438E+03 -0.16137618415E+03 -0.11048325028E+03  0.47344930759E+03  0.00000000000E+00 0.  1.
          4    1    6    6  503    0 -0.21695812906E+03  0.10957955231E+03 -0.27860975740E+02  0.24465228799E+03  0.00000000000E+00 0.  1.
         -4    1    6    6    0  503 -0.15751190975E+03 -0.54291451934E+01  0.96105871337E+01  0.15789819731E+03  0.00000000000E+00 0. -1.
<mgrwt>
<rscale>  0 0.99972899E+03</rscale>
<asrwt>0</asrwt>
<pdfrwt beam="1">  1        1 0.62812485E-01 0.99972899E+03</pdfrwt>
<pdfrwt beam="2">  1       -2 0.94152506E-01 0.99972899E+03</pdfrwt>
<totfact> 0.48690886E+01</totfact>
</mgrwt>
</event>
<event>
12    5  0.5029243E-008  0.1486789E+04  0.7818608E-02  0.8893286E-01
          1   -1    0    0  501    0  0.00000000000E+00  0.00000000000E+00  0.14786275052E+04  0.14786275052E+04  0.00000000000E+00 0. -1.
         -2   -1    0    0    0  501 -0.00000000000E+00 -0.00000000000E+00 -0.37374886728E+03  0.37374886728E+03  0.00000000000E+00 0.  1.
        -24    2    1    2    0    0  0.10492574312E+03 -0.32291167416E+03  0.74777795623E+03  0.82501923388E+03  0.78762323343E+02 0.  0.
        254    2    1    2    0    0 -0.10492574312E+03  0.32291167416E+03  0.35710068168E+03  0.10273571386E+04  0.90147680638E+03 0.  0.
         23    2    4    4    0    0  0.12108736247E+03 -0.23525365277E+03  0.30728793521E+03  0.41554707781E+03  0.90813370498E+02 0.  0.
         23    2    4    4    0    0 -0.22601310559E+03  0.55816532693E+03  0.49812746464E+02  0.61181006076E+03  0.95915507860E+02 0.  0.
          3    1    3    3  502    0  0.11722578926E+03 -0.30417593649E+03  0.69341735467E+03  0.76621962502E+03  0.00000000000E+00 0. -1.
         -2    1    3    3    0  502 -0.12300046133E+02 -0.18735737672E+02  0.54360601558E+02  0.58799608865E+02  0.00000000000E+00 0.  1.
         13    1    5    5    0    0 -0.93989941221E+01 -0.25228220943E+00  0.20101567990E+02  0.22191840223E+02  0.00000000000E+00 0.  1.
        -13    1    5    5    0    0  0.13048635659E+03 -0.23500137056E+03  0.28718636722E+03  0.39335523759E+03  0.00000000000E+00 0. -1.
          4    1    6    6  503    0 -0.42244758967E+02  0.22714210499E+03  0.24997686733E+02  0.23238554142E+03  0.00000000000E+00 0.  1.
         -4    1    6    6    0  503 -0.18376834663E+03  0.33102322195E+03  0.24815059732E+02  0.37942451935E+03  0.00000000000E+00 0. -1.
<mgrwt>
<rscale>  0 0.14867890E+04</rscale>
<asrwt>0</asrwt>
<pdfrwt beam="1">  1        1 0.22748115E+00 0.14867890E+04</pdfrwt>
<pdfrwt beam="2">  1       -2 0.57499827E-01 0.14867890E+04</pdfrwt>
<totfact> 0.16294762E+01</totfact>
</mgrwt>
</event>
<event>
12    5  0.5029243E-008  0.1913259E+04  0.7818608E-02  0.8648284E-01
          1   -1    0    0  501    0  0.00000000000E+00  0.00000000000E+00  0.18341851529E+04  0.18341851529E+04  0.00000000000E+00 0. -1.
         -2   -1    0    0    0  501 -0.00000000000E+00 -0.00000000000E+00 -0.49893552118E+03  0.49893552118E+03  0.00000000000E+00 0.  1.
        -24    2    1    2    0    0  0.25922983184E+03 -0.21821786376E+03 -0.29337995624E+03  0.45569841210E+03  0.82280631348E+02 0.  0.
        254    2    1    2    0    0 -0.25922983184E+03  0.21821786376E+03  0.16286295879E+04  0.18774222619E+04  0.87032228122E+03 0.  0.
         23    2    4    4    0    0  0.24756074635E+02  0.45488168983E+03  0.12766711623E+04  0.13584268911E+04  0.88905269548E+02 0.  0.
         23    2    4    4    0    0 -0.28398590647E+03 -0.23666382607E+03  0.35195842563E+03  0.51899537080E+03  0.93934551146E+02 0.  0.
          1    1    3    3  502    0  0.13102320535E+03 -0.14100365334E+03 -0.20799417867E+03  0.28339140594E+03  0.00000000000E+00 0. -1.
         -2    1    3    3    0  502  0.12820662648E+03 -0.77214210414E+02 -0.85385777567E+02  0.17230700617E+03  0.00000000000E+00 0.  1.
         13    1    5    5    0    0  0.58339589268E+02  0.28975536273E+03  0.80153893262E+03  0.85429874073E+03  0.00000000000E+00 0.  1.
        -13    1    5    5    0    0 -0.33583514634E+02  0.16512632710E+03  0.47513222968E+03  0.50412815041E+03  0.00000000000E+00 0. -1.
          4    1    6    6  503    0 -0.11057080134E+03 -0.59448846806E+02  0.70810374019E+02  0.14413249656E+03  0.00000000000E+00 0. -1.
         -4    1    6    6    0  503 -0.17341510513E+03 -0.17721497926E+03  0.28114805161E+03  0.37486287425E+03  0.00000000000E+00 0.  1.
<mgrwt>
<rscale>  0 0.19132591E+04</rscale>
<asrwt>0</asrwt>
<pdfrwt beam="1">  1        1 0.28218233E+00 0.19132591E+04</pdfrwt>
<pdfrwt beam="2">  1       -2 0.76759312E-01 0.19132591E+04</pdfrwt>
<totfact> 0.48053915E+00</totfact>
</mgrwt>
</event>
<event>
12    5  0.5029243E-008  0.3579004E+04  0.7818608E-02  0.8095318E-01
         -2   -1    0    0    0  501 -0.00000000000E+00  0.00000000000E+00  0.10513210474E+04  0.10513210474E+04  0.00000000000E+00 0.  1.
          1   -1    0    0  501    0  0.00000000000E+00 -0.00000000000E+00 -0.30459932481E+04  0.30459932481E+04  0.00000000000E+00 0. -1.
        -24    2    1    2    0    0 -0.79849583404E+01 -0.28972480438E+03 -0.28215162483E+04  0.28375262842E+04  0.81223470939E+02 0.  0.
        254    2    1    2    0    0  0.79849583404E+01  0.28972480438E+03  0.82684404767E+03  0.12597880112E+04  0.90520192898E+03 0.  0.
         23    2    4    4    0    0 -0.17881529387E+03  0.46958191198E+03  0.15496886027E+03  0.53389116941E+03  0.92424843702E+02 0.  0.
         23    2    4    4    0    0  0.18680025221E+03 -0.17985710761E+03  0.67187518740E+03  0.72589684182E+03  0.90923287086E+02 0.  0.
          3    1    3    3  502    0  0.72470445900E+01 -0.28251452246E+03 -0.27172700691E+04  0.27319267200E+04  0.00000000000E+00 0. -1.
         -4    1    3    3    0  502 -0.15232002930E+02 -0.72102819183E+01 -0.10424617921E+03  0.10559956419E+03  0.00000000000E+00 0.  1.
         13    1    5    5    0    0 -0.12674016015E+03  0.37280533020E+03  0.15717723200E+03  0.42397118379E+03  0.00000000000E+00 0.  1.
        -13    1    5    5    0    0 -0.52075133721E+02  0.96776581780E+02 -0.22083717279E+01  0.10991998562E+03  0.00000000000E+00 0. -1.
          2    1    6    6  503    0  0.35056167129E+02 -0.25653503511E+02  0.22804594941E+03  0.23214648853E+03  0.00000000000E+00 0. -1.
         -2    1    6    6    0  503  0.15174408509E+03 -0.15420360410E+03  0.44382923799E+03  0.49375035329E+03  0.00000000000E+00 0.  1.
<mgrwt>
<rscale>  0 0.35790037E+04</rscale>
<asrwt>0</asrwt>
<pdfrwt beam="1">  1        1 0.46861434E+00 0.35790037E+04</pdfrwt>
<pdfrwt beam="2">  1       -2 0.16174170E+00 0.35790037E+04</pdfrwt>
<totfact> 0.96468706E-02</totfact>
</mgrwt>
</event>
<event>
12    5  0.6923689E-008  0.2390442E+04  0.7818608E-02  0.8443091E-01
          1   -1    0    0  501    0  0.00000000000E+00  0.00000000000E+00  0.15420537567E+04  0.15420537567E+04  0.00000000000E+00 0. -1.
         -2   -1    0    0    0  501 -0.00000000000E+00 -0.00000000000E+00 -0.92639626647E+03  0.92639626647E+03  0.00000000000E+00 0.  1.
        -24    2    1    2    0    0  0.61833795650E+02  0.86470227807E+03 -0.30494897528E+03  0.92242764289E+03  0.79658212762E+02 0.  0.
        254    2    1    2    0    0 -0.61833795650E+02 -0.86470227807E+03  0.92060646551E+03  0.15460223803E+04  0.88945797427E+03 0.  0.
         23    2    4    4    0    0  0.10377377022E+03 -0.60973609768E+03  0.59352098430E+02  0.62812343238E+03  0.92028639647E+02 0.  0.
         23    2    4    4    0    0 -0.16560756587E+03 -0.25496618039E+03  0.86125436708E+03  0.91789894790E+03  0.91355211799E+02 0.  0.
          3    1    3    3  502    0 -0.85934274279E+01  0.37083812174E+02 -0.26521402405E+02  0.46394405976E+02  0.00000000000E+00 0. -1.
         -4    1    3    3    0  502  0.70427223078E+02  0.82761846590E+03 -0.27842757288E+03  0.87603323692E+03  0.00000000000E+00 0.  1.
         13    1    5    5    0    0  0.57624301179E+00 -0.73279897031E+00  0.82781624342E+01  0.83304875983E+01  0.00000000000E+00 0. -1.
        -13    1    5    5    0    0  0.10319752721E+03 -0.60900329871E+03  0.51073935996E+02  0.61979294478E+03  0.00000000000E+00 0.  1.
          1    1    6    6  503    0 -0.14251834684E+03 -0.13923809891E+03  0.52487303855E+03  0.56141823445E+03  0.00000000000E+00 0. -1.
         -1    1    6    6    0  503 -0.23089219030E+02 -0.11572808148E+03  0.33638132853E+03  0.35648071345E+03  0.00000000000E+00 0.  1.
<mgrwt>
<rscale>  0 0.23904417E+04</rscale>
<asrwt>0</asrwt>
<pdfrwt beam="1">  1        1 0.23723904E+00 0.23904417E+04</pdfrwt>
<pdfrwt beam="2">  1       -2 0.14252250E+00 0.23904417E+04</pdfrwt>
<totfact> 0.16516310E+00</totfact>
</mgrwt>
</event>
<event>
12    5  0.5029243E-008  0.1243476E+04  0.7818608E-02  0.9075630E-01
          3   -1    0    0  501    0  0.00000000000E+00  0.00000000000E+00  0.13545132687E+04  0.13545132687E+04  0.00000000000E+00 0. -1.
         -4   -1    0    0    0  501 -0.00000000000E+00 -0.00000000000E+00 -0.28538547487E+03  0.28538547487E+03  0.00000000000E+00 0.  1.
        -24    2    1    2    0    0  0.67885486959E+02  0.24477269834E+03  0.42325834961E+03  0.50102785604E+03  0.85785597964E+02 0.  0.
        254    2    1    2    0    0 -0.67885486959E+02 -0.24477269834E+03  0.64586944427E+03  0.11388708876E+04  0.90297145377E+03 0.  0.
         23    2    4    4    0    0 -0.40118730432E+03  0.11458502264E+03  0.38937467597E+03  0.57824970340E+03  0.93161690828E+02 0.  0.
         23    2    4    4    0    0  0.33330181736E+03 -0.35935772098E+03  0.25649476830E+03  0.56062118417E+03  0.90986113720E+02 0.  0.
          3    1    3    3  502    0  0.58694858013E+02  0.20424042255E+03  0.27786935270E+03  0.34981511364E+03  0.00000000000E+00 0. -1.
         -4    1    3    3    0  502  0.91906289462E+01  0.40532275794E+02  0.14538899691E+03  0.15121274240E+03  0.00000000000E+00 0.  1.
         13    1    5    5    0    0 -0.66475687616E+02  0.31800460080E+02  0.11949968710E+03  0.14039395116E+03  0.00000000000E+00 0. -1.
        -13    1    5    5    0    0 -0.33471161671E+03  0.82784562556E+02  0.26987498887E+03  0.43785575224E+03  0.00000000000E+00 0.  1.
          2    1    6    6  503    0  0.16013646646E+03 -0.18142048934E+03  0.75935694200E+02  0.25362040828E+03  0.00000000000E+00 0. -1.
         -2    1    6    6    0  503  0.17316535090E+03 -0.17793723164E+03  0.18055907410E+03  0.30700077589E+03  0.00000000000E+00 0.  1.
<mgrwt>
<rscale>  0 0.12434764E+04</rscale>
<asrwt>0</asrwt>
<pdfrwt beam="1">  1        3 0.20838665E+00 0.12434764E+04</pdfrwt>
<pdfrwt beam="2">  1       -4 0.43905458E-01 0.12434764E+04</pdfrwt>
<totfact> 0.14879493E+00</totfact>
</mgrwt>
</event>
<event>
12    5  0.5029243E-008  0.1559501E+04  0.7818608E-02  0.8845822E-01
          1   -1    0    0  501    0  0.00000000000E+00  0.00000000000E+00  0.34166856574E+03  0.34166856574E+03  0.00000000000E+00 0. -1.
         -2   -1    0    0    0  501 -0.00000000000E+00 -0.00000000000E+00 -0.17795346033E+04  0.17795346033E+04  0.00000000000E+00 0.  1.
        -24    2    1    2    0    0  0.29328463271E+03  0.41572467889E+03 -0.35313480817E+03  0.62342296266E+03  0.71478061017E+02 0.  0.
        254    2    1    2    0    0 -0.29328463271E+03 -0.41572467889E+03 -0.10847312294E+04  0.14977802064E+04  0.89881078220E+03 0.  0.
         23    2    4    4    0    0 -0.37950068195E+03 -0.21480520962E+02 -0.10025478615E+04  0.10762587678E+04  0.93533631886E+02 0.  0.
         23    2    4    4    0    0  0.86216049243E+02 -0.39424415793E+03 -0.82183367935E+02  0.42152143862E+03  0.89802862111E+02 0.  0.
          3    1    3    3  502    0  0.14805781708E+03  0.24308317715E+03 -0.16043603719E+03  0.32672659861E+03  0.00000000000E+00 0. -1.
         -4    1    3    3    0  502  0.14522681563E+03  0.17264150174E+03 -0.19269877097E+03  0.29669636404E+03  0.00000000000E+00 0.  1.
         13    1    5    5    0    0 -0.97237485276E+02  0.34986324086E+02 -0.28213310761E+03  0.30046341179E+03  0.00000000000E+00 0. -1.
        -13    1    5    5    0    0 -0.28226319668E+03 -0.56466845049E+02 -0.72041475384E+03  0.77579535597E+03  0.00000000000E+00 0.  1.
          3    1    6    6  503    0  0.16377989987E+02 -0.60067427964E+02  0.19604878757E+02  0.65273928404E+02  0.00000000000E+00 0. -1.
         -3    1    6    6    0  503  0.69838059256E+02 -0.33417672996E+03 -0.10178824669E+03  0.35624751022E+03  0.00000000000E+00 0.  1.
<mgrwt>
<rscale>  0 0.15595012E+04</rscale>
<asrwt>0</asrwt>
<pdfrwt beam="1">  1        1 0.52564394E-01 0.15595012E+04</pdfrwt>
<pdfrwt beam="2">  1       -2 0.27377456E+00 0.15595012E+04</pdfrwt>
<totfact> 0.28629014E+00</totfact>
</mgrwt>
</event>
<event>
12    5  0.5029243E-008  0.1665208E+04  0.7818608E-02  0.8781460E-01
          1   -1    0    0  501    0  0.00000000000E+00  0.00000000000E+00  0.18007344297E+04  0.18007344297E+04  0.00000000000E+00 0. -1.
         -2   -1    0    0    0  501 -0.00000000000E+00 -0.00000000000E+00 -0.38497039433E+03  0.38497039433E+03  0.00000000000E+00 0.  1.
        -24    2    1    2    0    0  0.19439943836E+03 -0.34067685447E+03  0.96485300769E+03  0.10444602893E+04  0.78128795006E+02 0.  0.
        254    2    1    2    0    0 -0.19439943836E+03  0.34067685447E+03  0.45091102767E+03  0.11412445348E+04  0.97224815373E+03 0.  0.
         23    2    4    4    0    0  0.35989145410E+03  0.30506354079E+03  0.15714024316E+03  0.50579625976E+03  0.92472578145E+02 0.  0.
         23    2    4    4    0    0 -0.55429089246E+03  0.35613313676E+02  0.29377078451E+03  0.63544827500E+03  0.94797335336E+02 0.  0.
          3    1    3    3  502    0  0.19297463883E+03 -0.28692092486E+03  0.85009317447E+03  0.91772612125E+03  0.00000000000E+00 0. -1.
         -4    1    3    3    0  502  0.14247995311E+01 -0.53755929609E+02  0.11475983322E+03  0.12673416801E+03  0.00000000000E+00 0.  1.
         13    1    5    5    0    0  0.50680668835E+00  0.34712059859E+00  0.13068984551E+02  0.13083413275E+02  0.00000000000E+00 0. -1.
        -13    1    5    5    0    0  0.35938464741E+03  0.30471642019E+03  0.14407125861E+03  0.49271284648E+03  0.00000000000E+00 0.  1.
          2    1    6    6  503    0 -0.28596728989E+02  0.77457981421E+01 -0.51456514408E+01  0.30070717093E+02  0.00000000000E+00 0. -1.
         -2    1    6    6    0  503 -0.52569416347E+03  0.27867515534E+02  0.29891643595E+03  0.60537755790E+03  0.00000000000E+00 0.  1.
<mgrwt>
<rscale>  0 0.16652080E+04</rscale>
<asrwt>0</asrwt>
<pdfrwt beam="1">  1        1 0.27703606E+00 0.16652080E+04</pdfrwt>
<pdfrwt beam="2">  1       -2 0.59226216E-01 0.16652080E+04</pdfrwt>
<totfact> 0.90760682E+00</totfact>
</mgrwt>
</event>
<event>
12    5  0.5029243E-008  0.1267608E+04  0.7818608E-02  0.9055654E-01
          1   -1    0    0  501    0  0.00000000000E+00  0.00000000000E+00  0.24775382488E+04  0.24775382488E+04  0.00000000000E+00 0. -1.
         -2   -1    0    0    0  501 -0.00000000000E+00 -0.00000000000E+00 -0.16213990746E+03  0.16213990746E+03  0.00000000000E+00 0.  1.
        -24    2    1    2    0    0  0.30080667520E+03 -0.19484114897E+02  0.78662856567E+03  0.84931964902E+03  0.10814378998E+03 0.  0.
        254    2    1    2    0    0 -0.30080667520E+03  0.19484114897E+02  0.15287697757E+04  0.17903585073E+04  0.88169284382E+03 0.  0.
         23    2    4    4    0    0 -0.58459609558E+03  0.13481353319E+02  0.12490841581E+04  0.13818653916E+04  0.86060355362E+02 0.  0.
         23    2    4    4    0    0  0.28378942038E+03  0.60027615782E+01  0.27968561763E+03  0.40849311564E+03  0.89833805164E+02 0.  0.
          1    1    3    3  502    0  0.29293234689E+03 -0.58786786308E+00  0.76667959019E+03  0.82073582806E+03  0.00000000000E+00 0. -1.
         -2    1    3    3    0  502  0.78743283128E+01 -0.18896247034E+02  0.19948975478E+02  0.28583820965E+02  0.00000000000E+00 0.  1.
         13    1    5    5    0    0 -0.57240631192E+03  0.21214424945E+01  0.12290419475E+04  0.13558014586E+04  0.00000000000E+00 0. -1.
        -13    1    5    5    0    0 -0.12189783655E+02  0.11359910825E+02  0.20042210559E+02  0.26063933003E+02  0.00000000000E+00 0.  1.
          1    1    6    6  503    0  0.20541649600E+03 -0.29396973085E+02  0.22740085096E+03  0.30784942077E+03  0.00000000000E+00 0. -1.
         -1    1    6    6    0  503  0.78372924380E+02  0.35399734663E+02  0.52284766673E+02  0.10064369487E+03  0.00000000000E+00 0.  1.
<mgrwt>
<rscale>  0 0.12676085E+04</rscale>
<asrwt>0</asrwt>
<pdfrwt beam="1">  1        1 0.38115970E+00 0.12676085E+04</pdfrwt>
<pdfrwt beam="2">  1       -2 0.24944603E-01 0.12676085E+04</pdfrwt>
<totfact> 0.17575764E+01</totfact>
</mgrwt>
</event>
<event>
12    5  0.5029243E-008  0.2400228E+04  0.7818608E-02  0.8439418E-01
         -2   -1    0    0    0  501 -0.00000000000E+00  0.00000000000E+00  0.46212867026E+03  0.46212867026E+03  0.00000000000E+00 0.  1.
          1   -1    0    0  501    0  0.00000000000E+00 -0.00000000000E+00 -0.31166068550E+04  0.31166068550E+04  0.00000000000E+00 0. -1.
        -24    2    1    2    0    0 -0.39357501765E+03 -0.26316830464E+03 -0.25149843800E+04  0.25603821898E+04  0.79067536570E+02 0.  0.
        254    2    1    2    0    0  0.39357501765E+03  0.26316830464E+03 -0.13949380480E+03  0.10183533355E+04  0.89074471270E+03 0.  0.
         23    2    4    4    0    0  0.71330232240E+02  0.10639118323E+03 -0.48580213553E+03  0.51056782966E+03  0.90932435851E+02 0.  0.
         23    2    4    4    0    0  0.32224478541E+03  0.15677712141E+03  0.34630833073E+03  0.50778550581E+03  0.97446869931E+02 0.  0.
          1    1    3    3  502    0 -0.37147295974E+03 -0.26609066422E+03 -0.24251502147E+04  0.24678229201E+04  0.00000000000E+00 0. -1.
         -2    1    3    3    0  502 -0.22102057909E+02  0.29223595812E+01 -0.89834165300E+02  0.92559269684E+02  0.00000000000E+00 0.  1.
         13    1    5    5    0    0 -0.39501244804E+01  0.62838653534E+02 -0.28272299447E+03  0.28964908332E+03  0.00000000000E+00 0. -1.
        -13    1    5    5    0    0  0.75280356721E+02  0.43552529697E+02 -0.20307914106E+03  0.22091874634E+03  0.00000000000E+00 0.  1.
          1    1    6    6  503    0  0.16319143232E+03  0.26832966851E+02  0.16890470344E+03  0.23639003900E+03  0.00000000000E+00 0. -1.
         -1    1    6    6    0  503  0.15905335308E+03  0.12994415455E+03  0.17740362730E+03  0.27139546682E+03  0.00000000000E+00 0.  1.
<mgrwt>
<rscale>  0 0.24002278E+04</rscale>
<asrwt>0</asrwt>
<pdfrwt beam="1">  1        1 0.47947798E+00 0.24002278E+04</pdfrwt>
<pdfrwt beam="2">  1       -2 0.71096718E-01 0.24002278E+04</pdfrwt>
<totfact> 0.69469443E-01</totfact>
</mgrwt>
</event>
<event>
12    5  0.5029243E-008  0.1479985E+04  0.7818608E-02  0.8897873E-01
         -2   -1    0    0    0  501 -0.00000000000E+00  0.00000000000E+00  0.30252989748E+03  0.30252989748E+03  0.00000000000E+00 0.  1.
          1   -1    0    0  501    0  0.00000000000E+00 -0.00000000000E+00 -0.18100332656E+04  0.18100332656E+04  0.00000000000E+00 0. -1.
        -24    2    1    2    0    0 -0.45116417035E+03 -0.58407935298E+02 -0.44056555001E+03  0.63837221810E+03  0.80377170064E+02 0.  0.
        254    2    1    2    0    0  0.45116417035E+03  0.58407935298E+02 -0.10669378181E+04  0.14741909450E+04  0.90990221399E+03 0.  0.
         23    2    4    4    0    0  0.28305572987E+03  0.32140810447E+03 -0.92652761783E+02  0.44693208946E+03  0.87977511278E+02 0.  0.
         23    2    4    4    0    0  0.16810844048E+03 -0.26300016917E+03 -0.97428505632E+03  0.10272588555E+04  0.92735368223E+02 0.  0.
          3    1    3    3  502    0  0.14865662859E+01 -0.60551748575E+01 -0.47094390544E+01  0.78136955459E+01  0.00000000000E+00 0. -1.
         -4    1    3    3    0  502 -0.45265073664E+03 -0.52352760440E+02 -0.43585611096E+03  0.63055852256E+03  0.00000000000E+00 0.  1.
         13    1    5    5    0    0  0.18243964269E+03  0.16890508381E+03 -0.89374305178E+02  0.26419863169E+03  0.00000000000E+00 0.  1.
        -13    1    5    5    0    0  0.10061608719E+03  0.15250302066E+03 -0.32784566060E+01  0.18273345777E+03  0.00000000000E+00 0. -1.
          3    1    6    6  503    0  0.41780354044E+02 -0.11429290450E+03 -0.26464886039E+03  0.29128591677E+03  0.00000000000E+00 0.  1.
         -3    1    6    6    0  503  0.12632808644E+03 -0.14870726467E+03 -0.70963619593E+03  0.73597293874E+03  0.00000000000E+00 0. -1.
<mgrwt>
<rscale>  0 0.14799854E+04</rscale>
<asrwt>0</asrwt>
<pdfrwt beam="1">  1        1 0.27846665E+00 0.14799854E+04</pdfrwt>
<pdfrwt beam="2">  1       -2 0.46543062E-01 0.14799854E+04</pdfrwt>
<totfact> 0.14931318E+01</totfact>
</mgrwt>
</event>
<event>
12    5  0.5029243E-008  0.1521201E+04  0.7818608E-02  0.8870476E-01
          1   -1    0    0  501    0  0.00000000000E+00  0.00000000000E+00  0.15985546743E+04  0.15985546743E+04  0.00000000000E+00 0. -1.
         -2   -1    0    0    0  501 -0.00000000000E+00 -0.00000000000E+00 -0.36189753382E+03  0.36189753382E+03  0.00000000000E+00 0.  1.
        -24    2    1    2    0    0  0.20077411068E+03  0.85262162186E+02  0.96766942764E+03  0.99497721169E+03  0.77560626382E+02 0.  0.
        254    2    1    2    0    0 -0.20077411068E+03 -0.85262162186E+02  0.26898771285E+03  0.96547499645E+03  0.90122566502E+03 0.  0.
         23    2    4    4    0    0 -0.30719239119E+03 -0.14389778913E+03  0.54654817153E+03  0.64894969658E+03  0.85715027726E+02 0.  0.
         23    2    4    4    0    0  0.10641828051E+03  0.58635626940E+02 -0.27756045868E+03  0.31652529987E+03  0.91572212283E+02 0.  0.
          3    1    3    3  502    0  0.15304688295E+03  0.27216015216E+02  0.69234936300E+03  0.70958558350E+03  0.00000000000E+00 0. -1.
         -4    1    3    3    0  502  0.47727227727E+02  0.58046146970E+02  0.27532006465E+03  0.28539162819E+03  0.00000000000E+00 0.  1.
         13    1    5    5    0    0 -0.23685396604E+03 -0.68640599884E+02  0.39710365996E+03  0.46744267021E+03  0.00000000000E+00 0. -1.
        -13    1    5    5    0    0 -0.70338425147E+02 -0.75257189242E+02  0.14944451156E+03  0.18150702637E+03  0.00000000000E+00 0.  1.
          3    1    6    6  503    0  0.79194207403E+02 -0.85321366519E+01 -0.14286440500E+03  0.16356881750E+03  0.00000000000E+00 0. -1.
         -3    1    6    6    0  503  0.27224073103E+02  0.67167763592E+02 -0.13469605367E+03  0.15295648236E+03  0.00000000000E+00 0.  1.
<mgrwt>
<rscale>  0 0.15212008E+04</rscale>
<asrwt>0</asrwt>
<pdfrwt beam="1">  1        1 0.24593148E+00 0.15212008E+04</pdfrwt>
<pdfrwt beam="2">  1       -2 0.55676545E-01 0.15212008E+04</pdfrwt>
<totfact> 0.14365364E+01</totfact>
</mgrwt>
</event>
<event>
12    5  0.5029243E-008  0.1607528E+04  0.7818608E-02  0.8815937E-01
          1   -1    0    0  501    0  0.00000000000E+00  0.00000000000E+00  0.12255987214E+04  0.12255987214E+04  0.00000000000E+00 0. -1.
         -2   -1    0    0    0  501 -0.00000000000E+00 -0.00000000000E+00 -0.52711885189E+03  0.52711885189E+03  0.00000000000E+00 0.  1.
        -24    2    1    2    0    0  0.10189075385E+03 -0.83948170705E+02 -0.33730429816E+03  0.36959244827E+03  0.73453163113E+02 0.  0.
        254    2    1    2    0    0 -0.10189075385E+03  0.83948170705E+02  0.10357841677E+04  0.13831251250E+04  0.90705967191E+03 0.  0.
         23    2    4    4    0    0  0.14000544720E+03  0.14199178124E+03  0.10919622660E+04  0.11137092258E+04  0.90572943670E+02 0.  0.
         23    2    4    4    0    0 -0.24189620105E+03 -0.58043610534E+02 -0.56178098282E+02  0.26941589926E+03  0.86868378829E+02 0.  0.
          1    1    3    3  502    0  0.41707601362E+02 -0.34732965232E+02 -0.57005127882E+02  0.78711419057E+02  0.00000000000E+00 0. -1.
         -2    1    3    3    0  502  0.60183152485E+02 -0.49215205472E+02 -0.28029917028E+03  0.29088102921E+03  0.00000000000E+00 0.  1.
         13    1    5    5    0    0  0.23647180052E+02  0.34884364782E+02  0.47257326624E+03  0.47444873274E+03  0.00000000000E+00 0. -1.
        -13    1    5    5    0    0  0.11635826715E+03  0.10710741646E+03  0.61938899972E+03  0.63926049305E+03  0.00000000000E+00 0.  1.
          1    1    6    6  503    0 -0.24277530457E+03 -0.65228260912E+02 -0.63330606187E+02  0.25923992788E+03  0.00000000000E+00 0.  1.
         -1    1    6    6    0  503  0.87910351855E+00  0.71846503780E+01  0.71525079054E+01  0.10175971373E+02  0.00000000000E+00 0. -1.
<mgrwt>
<rscale>  0 0.16075275E+04</rscale>
<asrwt>0</asrwt>
<pdfrwt beam="1">  1        1 0.18855365E+00 0.16075275E+04</pdfrwt>
<pdfrwt beam="2">  1       -2 0.81095208E-01 0.16075275E+04</pdfrwt>
<totfact> 0.11541373E+01</totfact>
</mgrwt>
</event>
<event>
12    5  0.5029243E-008  0.1536980E+04  0.7818608E-02  0.8860227E-01
          1   -1    0    0  501    0  0.00000000000E+00  0.00000000000E+00  0.11937958849E+04  0.11937958849E+04  0.00000000000E+00 0. -1.
         -4   -1    0    0    0  501 -0.00000000000E+00 -0.00000000000E+00 -0.49470498924E+03  0.49470498924E+03  0.00000000000E+00 0.  1.
        -24    2    1    2    0    0  0.48130825446E+03  0.88006662294E+02  0.20026287046E+03  0.53558400807E+03  0.85686661758E+02 0.  0.
        254    2    1    2    0    0 -0.48130825446E+03 -0.88006662294E+02  0.49882802519E+03  0.11529168660E+04  0.91705239375E+03 0.  0.
         23    2    4    4    0    0 -0.50297807946E+03  0.26790769770E+03  0.59731747552E+02  0.58003217892E+03  0.90044233698E+02 0.  0.
         23    2    4    4    0    0  0.21669824998E+02 -0.35591435999E+03  0.43909627764E+03  0.57288468713E+03  0.90811402052E+02 0.  0.
          3    1    3    3  502    0  0.45680263441E+03  0.89910251215E+02  0.20785462618E+03  0.50985884880E+03  0.00000000000E+00 0. -1.
         -4    1    3    3    0  502  0.24505620048E+02 -0.19035889208E+01 -0.75917557197E+01  0.25725159273E+02  0.00000000000E+00 0.  1.
         13    1    5    5    0    0 -0.45750276112E+03  0.25854396790E+03  0.33186740344E+02  0.52655020606E+03  0.00000000000E+00 0. -1.
        -13    1    5    5    0    0 -0.45475318340E+02  0.93637297996E+01  0.26545007208E+02  0.53481972865E+02  0.00000000000E+00 0.  1.
          2    1    6    6  503    0  0.19982282605E+02 -0.34566197335E+03  0.38495977122E+03  0.51776009589E+03  0.00000000000E+00 0. -1.
         -2    1    6    6    0  503  0.16875423927E+01 -0.10252386637E+02  0.54136506425E+02  0.55124591237E+02  0.00000000000E+00 0.  1.
<mgrwt>
<rscale>  0 0.15369799E+04</rscale>
<asrwt>0</asrwt>
<pdfrwt beam="1">  1        1 0.18366090E+00 0.15369799E+04</pdfrwt>
<pdfrwt beam="2">  1       -4 0.76108460E-01 0.15369799E+04</pdfrwt>
<totfact> 0.79001880E+00</totfact>
</mgrwt>
</event>
<event>
12    5  0.5029243E-008  0.2245450E+04  0.7818608E-02  0.8499746E-01
         -2   -1    0    0    0  501 -0.00000000000E+00  0.00000000000E+00  0.12113172613E+04  0.12113172613E+04  0.00000000000E+00 0.  1.
          1   -1    0    0  501    0  0.00000000000E+00 -0.00000000000E+00 -0.10406119175E+04  0.10406119175E+04  0.00000000000E+00 0. -1.
        -24    2    1    2    0    0  0.65256947121E+03 -0.10056593316E+03 -0.59873599872E+03  0.89510216666E+03  0.82235460257E+02 0.  0.
        254    2    1    2    0    0 -0.65256947121E+03  0.10056593316E+03  0.76944134251E+03  0.13568270121E+04  0.90165355855E+03 0.  0.
         23    2    4    4    0    0  0.39260874868E+01  0.21610894981E+03 -0.10193284878E+03  0.25577311483E+03  0.91165170216E+02 0.  0.
         23    2    4    4    0    0 -0.65649555870E+03 -0.11554301665E+03  0.87137419129E+03  0.11010538973E+04  0.93220685782E+02 0.  0.
          3    1    3    3  502    0  0.54508557214E+03 -0.90989170913E+02 -0.45793486572E+03  0.71770582512E+03  0.00000000000E+00 0. -1.
         -4    1    3    3    0  502  0.10748389907E+03 -0.95767622443E+01 -0.14080113300E+03  0.17739634153E+03  0.00000000000E+00 0.  1.
         13    1    5    5    0    0  0.43911064880E+02  0.15399029245E+03 -0.78018419026E+02  0.17812373648E+03  0.00000000000E+00 0.  1.
        -13    1    5    5    0    0 -0.39984977393E+02  0.62118657353E+02 -0.23914429752E+02  0.77649378355E+02  0.00000000000E+00 0. -1.
          1    1    6    6  503    0 -0.21231315128E+03 -0.79413791961E+02  0.31857424027E+03  0.39098973276E+03  0.00000000000E+00 0. -1.
         -1    1    6    6    0  503 -0.44418240742E+03 -0.36129224687E+02  0.55279995103E+03  0.71006416456E+03  0.00000000000E+00 0.  1.
<mgrwt>
<rscale>  0 0.22454498E+04</rscale>
<asrwt>0</asrwt>
<pdfrwt beam="1">  1        1 0.16009414E+00 0.22454498E+04</pdfrwt>
<pdfrwt beam="2">  1       -2 0.18635650E+00 0.22454498E+04</pdfrwt>
<totfact> 0.18379045E+00</totfact>
</mgrwt>
</event>
<event>
12    5  0.5029243E-008  0.1570199E+04  0.7818608E-02  0.8839068E-01
         -2   -1    0    0    0  501 -0.00000000000E+00  0.00000000000E+00  0.41680631999E+03  0.41680631999E+03  0.00000000000E+00 0.  1.
          1   -1    0    0  501    0  0.00000000000E+00 -0.00000000000E+00 -0.14788188867E+04  0.14788188867E+04  0.00000000000E+00 0. -1.
        -24    2    1    2    0    0  0.15062951453E+03 -0.38469419875E+02 -0.99006787756E+03  0.10053596634E+04  0.79652393279E+02 0.  0.
        254    2    1    2    0    0 -0.15062951453E+03  0.38469419875E+02 -0.71944689102E+02  0.89026554322E+03  0.87362895570E+03 0.  0.
         23    2    4    4    0    0 -0.27442588107E+02  0.36255756681E+03 -0.28700355917E+03  0.47202057961E+03  0.90726510508E+02 0.  0.
         23    2    4    4    0    0 -0.12318692643E+03 -0.32408814693E+03  0.21505887007E+03  0.41824496361E+03  0.92034700881E+02 0.  0.
          3    1    3    3  502    0  0.98522575222E+02 -0.52993534452E+02 -0.50260613430E+03  0.51490575716E+03  0.00000000000E+00 0. -1.
         -4    1    3    3    0  502  0.52106939313E+02  0.14524114577E+02 -0.48746174326E+03  0.49045390627E+03  0.00000000000E+00 0.  1.
         13    1    5    5    0    0 -0.40558930094E+02  0.13213981053E+03 -0.68763608406E+02  0.15438390518E+03  0.00000000000E+00 0.  1.
        -13    1    5    5    0    0  0.13116341987E+02  0.23041775628E+03 -0.21823995076E+03  0.31763667443E+03  0.00000000000E+00 0. -1.
          1    1    6    6  503    0 -0.13276366973E+03 -0.28394192192E+03  0.16792653633E+03  0.35559601886E+03  0.00000000000E+00 0. -1.
         -1    1    6    6    0  503  0.95767433034E+01 -0.40146225007E+02  0.47132333734E+02  0.62648944746E+02  0.00000000000E+00 0.  1.
<mgrwt>
<rscale>  0 0.15701988E+04</rscale>
<asrwt>0</asrwt>
<pdfrwt beam="1">  1        1 0.22751059E+00 0.15701988E+04</pdfrwt>
<pdfrwt beam="2">  1       -2 0.64124051E-01 0.15701988E+04</pdfrwt>
<totfact> 0.12837649E+01</totfact>
</mgrwt>
</event>
<event>
12    5  0.5029243E-008  0.3794372E+04  0.7818608E-02  0.8047364E-01
          1   -1    0    0  501    0  0.00000000000E+00  0.00000000000E+00  0.20536546804E+04  0.20536546804E+04  0.00000000000E+00 0. -1.
         -2   -1    0    0    0  501 -0.00000000000E+00 -0.00000000000E+00 -0.17526384146E+04  0.17526384146E+04  0.00000000000E+00 0.  1.
        -24    2    1    2    0    0  0.39956649171E+03 -0.12333776442E+04  0.13764238462E+04  0.18925541938E+04  0.79655368138E+02 0.  0.
        254    2    1    2    0    0 -0.39956649171E+03  0.12333776442E+04 -0.10754075804E+04  0.19137389012E+04  0.90830684424E+03 0.  0.
         23    2    4    4    0    0 -0.40229795441E+03  0.12864326328E+04 -0.11572746212E+04  0.17785926086E+04  0.85758707222E+02 0.  0.
         23    2    4    4    0    0  0.27314627034E+01 -0.53054988554E+02  0.81867040781E+02  0.13514629253E+03  0.93488049074E+02 0.  0.
          1    1    3    3  502    0  0.27961434171E+03 -0.76914099228E+03  0.90446856047E+03  0.12197644949E+04  0.00000000000E+00 0. -1.
         -2    1    3    3    0  502  0.11995215000E+03 -0.46423665196E+03  0.47195528571E+03  0.67278969896E+03  0.00000000000E+00 0.  1.
         13    1    5    5    0    0 -0.28335771620E+03  0.84559695698E+03 -0.71692120958E+03  0.11442472765E+04  0.00000000000E+00 0. -1.
        -13    1    5    5    0    0 -0.11894023821E+03  0.44083567581E+03 -0.44035341158E+03  0.63434533216E+03  0.00000000000E+00 0.  1.
          3    1    6    6  503    0  0.10156881150E+01 -0.75613056629E+02  0.83266692820E+02  0.11247981191E+03  0.00000000000E+00 0. -1.
         -3    1    6    6    0  503  0.17157745885E+01  0.22558068075E+02 -0.13996520385E+01  0.22666480617E+02  0.00000000000E+00 0.  1.
<mgrwt>
<rscale>  0 0.37943717E+04</rscale>
<asrwt>0</asrwt>
<pdfrwt beam="1">  1        1 0.31594688E+00 0.37943717E+04</pdfrwt>
<pdfrwt beam="2">  1       -2 0.26963668E+00 0.37943717E+04</pdfrwt>
<totfact> 0.93429484E-02</totfact>
</mgrwt>
</event>
<event>
12    5  0.5029243E-008  0.2486981E+04  0.7818608E-02  0.8407638E-01
          1   -1    0    0  501    0  0.00000000000E+00  0.00000000000E+00  0.14947438986E+04  0.14947438986E+04  0.00000000000E+00 0. -1.
         -2   -1    0    0    0  501 -0.00000000000E+00 -0.00000000000E+00 -0.10344703389E+04  0.10344703389E+04  0.00000000000E+00 0.  1.
        -24    2    1    2    0    0 -0.59836597500E+03  0.59451070910E+03 -0.48719768759E+03  0.97715204981E+03  0.77328638856E+02 0.  0.
        254    2    1    2    0    0  0.59836597500E+03 -0.59451070910E+03  0.94747124725E+03  0.15520621876E+04  0.89426531113E+03 0.  0.
         23    2    4    4    0    0  0.59369723671E+02  0.54340141929E+02 -0.13161016108E+03  0.17931645741E+03  0.91408655430E+02 0.  0.
         23    2    4    4    0    0  0.53899625132E+03 -0.64885085103E+03  0.10790814083E+04  0.13727457302E+04  0.92139938372E+02 0.  0.
          1    1    3    3  502    0 -0.26120485709E+03  0.31364657172E+03 -0.22978947373E+03  0.46840724968E+03  0.00000000000E+00 0. -1.
         -2    1    3    3    0  502 -0.33716111790E+03  0.28086413739E+03 -0.25740821386E+03  0.50874480013E+03  0.00000000000E+00 0.  1.
         13    1    5    5    0    0  0.16736351289E+02 -0.10265271203E+02  0.67622316931E+01  0.20765573067E+02  0.00000000000E+00 0. -1.
        -13    1    5    5    0    0  0.42633372381E+02  0.64605413131E+02 -0.13837239277E+03  0.15855088435E+03  0.00000000000E+00 0.  1.
          1    1    6    6  503    0  0.10222900745E+03 -0.87189772846E+02  0.21367160838E+03  0.25240519543E+03  0.00000000000E+00 0. -1.
         -1    1    6    6    0  503  0.43676724388E+03 -0.56166107819E+03  0.86540979996E+03  0.11203405348E+04  0.00000000000E+00 0.  1.
<mgrwt>
<rscale>  0 0.24869807E+04</rscale>
<asrwt>0</asrwt>
<pdfrwt beam="1">  1        1 0.22996060E+00 0.24869807E+04</pdfrwt>
<pdfrwt beam="2">  1       -2 0.15914928E+00 0.24869807E+04</pdfrwt>
<totfact> 0.13167313E+00</totfact>
</mgrwt>
</event>
<event>
12    5  0.5029243E-008  0.1879619E+04  0.7818608E-02  0.8665068E-01
          1   -1    0    0  501    0  0.00000000000E+00  0.00000000000E+00  0.37737511469E+04  0.37737511469E+04  0.00000000000E+00 0. -1.
         -2   -1    0    0    0  501 -0.00000000000E+00 -0.00000000000E+00 -0.23404882612E+03  0.23404882612E+03  0.00000000000E+00 0.  1.
        -24    2    1    2    0    0  0.12335754583E+03  0.56706880063E+03  0.44759205421E+03  0.73721226380E+03  0.79744380018E+02 0.  0.
        254    2    1    2    0    0 -0.12335754583E+03 -0.56706880063E+03  0.30921102665E+04  0.32705877092E+04  0.89376392542E+03 0.  0.
         23    2    4    4    0    0  0.25568758650E+03 -0.19150262823E+03  0.38279777122E+03  0.50773915879E+03  0.95997506252E+02 0.  0.
         23    2    4    4    0    0 -0.37904513233E+03 -0.37556617240E+03  0.27093124953E+04  0.27628485504E+04  0.90734519639E+02 0.  0.
          1    1    3    3  502    0 -0.32480490023E+01  0.21872345934E+02  0.36817067405E+02  0.42947011436E+02  0.00000000000E+00 0. -1.
         -2    1    3    3    0  502  0.12660559483E+03  0.54519645469E+03  0.41077498680E+03  0.69426525236E+03  0.00000000000E+00 0.  1.
         13    1    5    5    0    0  0.65470370561E+02 -0.28099726918E+02  0.14778383086E+03  0.16406103967E+03  0.00000000000E+00 0.  1.
        -13    1    5    5    0    0  0.19021721594E+03 -0.16340290131E+03  0.23501394036E+03  0.34367811912E+03  0.00000000000E+00 0. -1.
          3    1    6    6  503    0 -0.57558393371E+02 -0.70457551215E+02  0.65335655879E+03  0.65966054004E+03  0.00000000000E+00 0. -1.
         -3    1    6    6    0  503 -0.32148673895E+03 -0.30510862118E+03  0.20559559365E+04  0.21031880104E+04  0.00000000000E+00 0.  1.
<mgrwt>
<rscale>  0 0.18796191E+04</rscale>
<asrwt>0</asrwt>
<pdfrwt beam="1">  1        1 0.58057706E+00 0.18796191E+04</pdfrwt>
<pdfrwt beam="2">  1       -2 0.36007514E-01 0.18796191E+04</pdfrwt>
<totfact> 0.90253371E-01</totfact>
</mgrwt>
</event>
<event>
12    5  0.5029243E-008  0.1314507E+04  0.7818608E-02  0.9018139E-01
         -2   -1    0    0    0  501 -0.00000000000E+00  0.00000000000E+00  0.20808692735E+03  0.20808692735E+03  0.00000000000E+00 0.  1.
          1   -1    0    0  501    0  0.00000000000E+00 -0.00000000000E+00 -0.20759698822E+04  0.20759698822E+04  0.00000000000E+00 0. -1.
        -24    2    1    2    0    0 -0.10189119443E+03  0.41492062970E+02 -0.87011803050E+03  0.88045773929E+03  0.77440537811E+02 0.  0.
        254    2    1    2    0    0  0.10189119443E+03 -0.41492062970E+02 -0.99776492432E+03  0.14035990702E+04  0.98104643057E+03 0.  0.
         23    2    4    4    0    0  0.43535186502E+03 -0.31481570793E+03 -0.51954316942E+03  0.75278492885E+03  0.90110309494E+02 0.  0.
         23    2    4    4    0    0 -0.33346067059E+03  0.27332364496E+03 -0.47822175490E+03  0.65081414137E+03  0.94663435556E+02 0.  0.
          1    1    3    3  502    0 -0.66739986873E+02  0.23850595103E+01 -0.67775709312E+03  0.68103934661E+03  0.00000000000E+00 0. -1.
         -2    1    3    3    0  502 -0.35151207562E+02  0.39107003460E+02 -0.19236093738E+03  0.19941839269E+03  0.00000000000E+00 0.  1.
         13    1    5    5    0    0  0.36790194705E+03 -0.29456525673E+03 -0.42299567111E+03  0.63328182580E+03  0.00000000000E+00 0. -1.
        -13    1    5    5    0    0  0.67449917974E+02 -0.20250451202E+02 -0.96547498311E+02  0.11950310305E+03  0.00000000000E+00 0.  1.
          3    1    6    6  503    0 -0.32833216081E+03  0.24603722279E+03 -0.42466475975E+03  0.59048834112E+03  0.00000000000E+00 0. -1.
         -3    1    6    6    0  503 -0.51285097767E+01  0.27286422166E+02 -0.53556995150E+02  0.60325800257E+02  0.00000000000E+00 0.  1.
<mgrwt>
<rscale>  0 0.13145070E+04</rscale>
<asrwt>0</asrwt>
<pdfrwt beam="1">  1        1 0.31937999E+00 0.13145070E+04</pdfrwt>
<pdfrwt beam="2">  1       -2 0.32013373E-01 0.13145070E+04</pdfrwt>
<totfact> 0.20728081E+01</totfact>
</mgrwt>
</event>
<event>
12    5  0.5029243E-008  0.2334131E+04  0.7818608E-02  0.8464584E-01
         -2   -1    0    0    0  501 -0.00000000000E+00  0.00000000000E+00  0.16516275903E+04  0.16516275903E+04  0.00000000000E+00 0.  1.
          1   -1    0    0  501    0  0.00000000000E+00 -0.00000000000E+00 -0.82466639313E+03  0.82466639313E+03  0.00000000000E+00 0. -1.
        -24    2    1    2    0    0  0.39543233795E+03 -0.89541778939E+03  0.29579939357E+03  0.10261242068E+04  0.85404069672E+02 0.  0.
        254    2    1    2    0    0 -0.39543233795E+03  0.89541778939E+03  0.53116180362E+03  0.14501697766E+04  0.92882709262E+03 0.  0.
         23    2    4    4    0    0 -0.30354755404E+03  0.10296223876E+04  0.23871548767E+03  0.11033558040E+04  0.90252797873E+02 0.  0.
         23    2    4    4    0    0 -0.91884783912E+02 -0.13420459818E+03  0.29244631595E+03  0.34681397267E+03  0.91111998332E+02 0.  0.
          3    1    3    3  502    0  0.17743244171E+03 -0.38804401865E+03  0.17292168104E+03  0.46039367888E+03  0.00000000000E+00 0. -1.
         -4    1    3    3    0  502  0.21799989624E+03 -0.50737377074E+03  0.12287771253E+03  0.56573052793E+03  0.00000000000E+00 0.  1.
         13    1    5    5    0    0 -0.10751489171E+02  0.72555951813E+02 -0.41244830501E+01  0.73464086623E+02  0.00000000000E+00 0.  1.
        -13    1    5    5    0    0 -0.29279606487E+03  0.95706643576E+03  0.24283997072E+03  0.10298917173E+04  0.00000000000E+00 0. -1.
          1    1    6    6  503    0 -0.94734465073E+02 -0.95841197238E+02  0.27127693127E+03  0.30290481574E+03  0.00000000000E+00 0. -1.
         -1    1    6    6    0  503  0.28496811610E+01 -0.38363400943E+02  0.21169384684E+02  0.43909156933E+02  0.00000000000E+00 0.  1.
<mgrwt>
<rscale>  0 0.23341309E+04</rscale>
<asrwt>0</asrwt>
<pdfrwt beam="1">  1        1 0.12687175E+00 0.23341309E+04</pdfrwt>
<pdfrwt beam="2">  1       -2 0.25409655E+00 0.23341309E+04</pdfrwt>
<totfact> 0.10082701E+00</totfact>
</mgrwt>
</event>
<event>
12    5  0.5029243E-008  0.1919399E+04  0.7818608E-02  0.8645260E-01
         -2   -1    0    0    0  501 -0.00000000000E+00  0.00000000000E+00  0.10142155095E+04  0.10142155095E+04  0.00000000000E+00 0.  1.
          1   -1    0    0  501    0  0.00000000000E+00 -0.00000000000E+00 -0.90811355158E+03  0.90811355158E+03  0.00000000000E+00 0. -1.
        -24    2    1    2    0    0  0.55182161145E+03 -0.46074138764E+03  0.24762907786E+03  0.76462194099E+03  0.80850697481E+02 0.  0.
        254    2    1    2    0    0 -0.55182161145E+03  0.46074138764E+03 -0.14152711999E+03  0.11577071201E+04  0.89636272400E+03 0.  0.
         23    2    4    4    0    0 -0.60197179283E+03  0.83773665033E+02  0.19147822968E+03  0.64385700274E+03  0.92194691922E+02 0.  0.
         23    2    4    4    0    0  0.50150181373E+02  0.37696772261E+03 -0.33300534967E+03  0.51385011732E+03  0.92356242768E+02 0.  0.
          1    1    3    3  502    0  0.35284406038E+03 -0.30605027019E+03  0.20012657759E+03  0.50814992462E+03  0.00000000000E+00 0. -1.
         -2    1    3    3    0  502  0.19897755107E+03 -0.15469111745E+03  0.47502500270E+02  0.25647201637E+03  0.00000000000E+00 0.  1.
         13    1    5    5    0    0 -0.46252157589E+03  0.25632292286E+02  0.13420282068E+03  0.48227960734E+03  0.00000000000E+00 0. -1.
        -13    1    5    5    0    0 -0.13945021693E+03  0.58141372746E+02  0.57275409006E+02  0.16157739540E+03  0.00000000000E+00 0.  1.
          2    1    6    6  503    0  0.10583511109E+02  0.16377137731E+03 -0.86383859136E+02  0.18545955315E+03  0.00000000000E+00 0. -1.
         -2    1    6    6    0  503  0.39566670264E+02  0.21319634530E+03 -0.24662149054E+03  0.32839056417E+03  0.00000000000E+00 0.  1.
<mgrwt>
<rscale>  0 0.19193987E+04</rscale>
<asrwt>0</asrwt>
<pdfrwt beam="1">  1        1 0.13970978E+00 0.19193987E+04</pdfrwt>
<pdfrwt beam="2">  1       -2 0.15603316E+00 0.19193987E+04</pdfrwt>
<totfact> 0.39547248E+00</totfact>
</mgrwt>
</event>
<event>
12    5  0.5029243E-008  0.2709067E+04  0.7818608E-02  0.8332069E-01
         -2   -1    0    0    0  501 -0.00000000000E+00  0.00000000000E+00  0.10610015712E+04  0.10610015712E+04  0.00000000000E+00 0.  1.
          1   -1    0    0  501    0  0.00000000000E+00 -0.00000000000E+00 -0.17292729541E+04  0.17292729541E+04  0.00000000000E+00 0. -1.
        -24    2    1    2    0    0  0.10144986291E+04  0.59936023859E+03 -0.48731963792E+02  0.11819392903E+04  0.78520809811E+02 0.  0.
        254    2    1    2    0    0 -0.10144986291E+04 -0.59936023859E+03 -0.61953941910E+03  0.16083352350E+04  0.90248156333E+03 0.  0.
         23    2    4    4    0    0 -0.72015518121E+02  0.85673506086E+01 -0.45635059419E+03  0.47132722192E+03  0.92918517818E+02 0.  0.
         23    2    4    4    0    0 -0.94248311099E+03 -0.60792758919E+03 -0.16318882490E+03  0.11370080130E+04  0.91138690806E+02 0.  0.
          3    1    3    3  502    0  0.26229848229E+03  0.12317403804E+03  0.78437415395E+01  0.28988594609E+03  0.00000000000E+00 0. -1.
         -4    1    3    3    0  502  0.75220014682E+03  0.47618620055E+03 -0.56575705332E+02  0.89205334420E+03  0.00000000000E+00 0.  1.
         13    1    5    5    0    0  0.27493664694E+01  0.72268253589E+01 -0.27574684431E+03  0.27585523045E+03  0.00000000000E+00 0. -1.
        -13    1    5    5    0    0 -0.74764884590E+02  0.13405252497E+01 -0.18060374989E+03  0.19547199147E+03  0.00000000000E+00 0.  1.
          4    1    6    6  503    0 -0.16468403958E+03 -0.69163570882E+02 -0.37687513008E+02  0.18255076299E+03  0.00000000000E+00 0. -1.
         -4    1    6    6    0  503 -0.77779907141E+03 -0.53876401831E+03 -0.12550131189E+03  0.95445725006E+03  0.00000000000E+00 0.  1.
<mgrwt>
<rscale>  0 0.27090672E+04</rscale>
<asrwt>0</asrwt>
<pdfrwt beam="1">  1        1 0.26604199E+00 0.27090672E+04</pdfrwt>
<pdfrwt beam="2">  1       -2 0.16323101E+00 0.27090672E+04</pdfrwt>
<totfact> 0.83214796E-01</totfact>
</mgrwt>
</event>
<event>
12    5  0.5029243E-008  0.1905383E+04  0.7818608E-02  0.8652181E-01
          3   -1    0    0  501    0  0.00000000000E+00  0.00000000000E+00  0.15497255446E+04  0.15497255446E+04  0.00000000000E+00 0. -1.
         -2   -1    0    0    0  501 -0.00000000000E+00 -0.00000000000E+00 -0.58566578395E+03  0.58566578395E+03  0.00000000000E+00 0.  1.
        -24    2    1    2    0    0  0.13866087342E+03  0.11184344395E+03 -0.42525154292E+03  0.46787018994E+03  0.79547759922E+02 0.  0.
        254    2    1    2    0    0 -0.13866087342E+03 -0.11184344395E+03  0.13893113036E+04  0.16675211386E+04  0.90482321795E+03 0.  0.
         23    2    4    4    0    0  0.64997501067E+02 -0.46631265812E+03  0.55257556317E+03  0.73180463609E+03  0.92336894755E+02 0.  0.
         23    2    4    4    0    0 -0.20365837449E+03  0.35446921417E+03  0.83673574042E+03  0.93571650254E+03  0.91178487250E+02 0.  0.
          1    1    3    3  502    0 -0.31293832685E+01 -0.84432274308E+01 -0.23883430284E+02  0.25524485719E+02  0.00000000000E+00 0. -1.
         -2    1    3    3    0  502  0.14179025669E+03  0.12028667138E+03 -0.40136811264E+03  0.44234570422E+03  0.00000000000E+00 0.  1.
         13    1    5    5    0    0  0.35710248725E+02 -0.66049127621E+02  0.12148712130E+03  0.14281747010E+03  0.00000000000E+00 0. -1.
        -13    1    5    5    0    0  0.29287252342E+02 -0.40026353050E+03  0.43108844186E+03  0.58898716599E+03  0.00000000000E+00 0.  1.
          4    1    6    6  503    0  0.53697683741E+01  0.38473613339E+02  0.59573784973E+02  0.71120244598E+02  0.00000000000E+00 0. -1.
         -4    1    6    6    0  503 -0.20902814287E+03  0.31599560083E+03  0.77716195545E+03  0.86459625795E+03  0.00000000000E+00 0.  1.
<mgrwt>
<rscale>  0 0.19053831E+04</rscale>
<asrwt>0</asrwt>
<pdfrwt beam="1">  1        3 0.23841931E+00 0.19053831E+04</pdfrwt>
<pdfrwt beam="2">  1       -2 0.90102429E-01 0.19053831E+04</pdfrwt>
<totfact> 0.34933293E-01</totfact>
</mgrwt>
</event>
<event>
12    5  0.5029243E-008  0.3113431E+04  0.7818608E-02  0.8212062E-01
         -2   -1    0    0    0  501 -0.00000000000E+00  0.00000000000E+00  0.17513629813E+04  0.17513629813E+04  0.00000000000E+00 0.  1.
          1   -1    0    0  501    0  0.00000000000E+00 -0.00000000000E+00 -0.13837013620E+04  0.13837013620E+04  0.00000000000E+00 0. -1.
        -24    2    1    2    0    0  0.65338227787E+03  0.59511718073E+03 -0.95798316348E+03  0.13058535873E+04  0.80305604147E+02 0.  0.
        254    2    1    2    0    0 -0.65338227787E+03 -0.59511718073E+03  0.13256447827E+04  0.18292107560E+04  0.89866848175E+03 0.  0.
         23    2    4    4    0    0 -0.32200752897E+03  0.16957103018E+03  0.65801092138E+03  0.75750563943E+03  0.91614617422E+02 0.  0.
         23    2    4    4    0    0 -0.33137474890E+03 -0.76468821090E+03  0.66763386136E+03  0.10717051166E+04  0.90882341455E+02 0.  0.
          3    1    3    3  502    0  0.42121652094E+03  0.42710777031E+03 -0.61929335111E+03  0.86218829713E+03  0.00000000000E+00 0. -1.
         -4    1    3    3    0  502  0.23216575693E+03  0.16800941041E+03 -0.33868981237E+03  0.44366529015E+03  0.00000000000E+00 0.  1.
         13    1    5    5    0    0 -0.15046177415E+03  0.11624853531E+03  0.27348056857E+03  0.33308270569E+03  0.00000000000E+00 0.  1.
        -13    1    5    5    0    0 -0.17154575482E+03  0.53322494864E+02  0.38453035281E+03  0.42442293374E+03  0.00000000000E+00 0. -1.
          2    1    6    6  503    0 -0.56970300995E+02 -0.11108953060E+03  0.62199992169E+02  0.13948239327E+03  0.00000000000E+00 0. -1.
         -2    1    6    6    0  503 -0.27440444791E+03 -0.65359868030E+03  0.60543386920E+03  0.93222272333E+03  0.00000000000E+00 0.  1.
<mgrwt>
<rscale>  0 0.31134311E+04</rscale>
<asrwt>0</asrwt>
<pdfrwt beam="1">  1        1 0.21287713E+00 0.31134311E+04</pdfrwt>
<pdfrwt beam="2">  1       -2 0.26944046E+00 0.31134311E+04</pdfrwt>
<totfact> 0.28520002E-01</totfact>
</mgrwt>
</event>
<event>
12    5  0.5029243E-008  0.1762019E+04  0.7818608E-02  0.8726762E-01
         -4   -1    0    0    0  501 -0.00000000000E+00  0.00000000000E+00  0.59623032650E+03  0.59623032650E+03  0.00000000000E+00 0.  1.
          3   -1    0    0  501    0  0.00000000000E+00 -0.00000000000E+00 -0.13018078226E+04  0.13018078226E+04  0.00000000000E+00 0. -1.
        -24    2    1    2    0    0 -0.25745199560E+03 -0.37395307223E+02  0.39650883402E+03  0.48065340874E+03  0.78284767567E+02 0.  0.
        254    2    1    2    0    0  0.25745199560E+03  0.37395307223E+02 -0.11020863302E+04  0.14173847404E+04  0.85247010748E+03 0.  0.
         23    2    4    4    0    0 -0.10606859658E+02 -0.19048451955E+03 -0.10204990627E+04  0.10422658905E+04  0.92211668275E+02 0.  0.
         23    2    4    4    0    0  0.26805885526E+03  0.22787982678E+03 -0.81587267432E+02  0.37511884992E+03  0.10135533545E+03 0.  0.
          1    1    3    3  502    0 -0.23700902091E+02 -0.29315452436E+02  0.50886869376E+02  0.63329313800E+02  0.00000000000E+00 0. -1.
         -2    1    3    3    0  502 -0.23375109351E+03 -0.80798547868E+01  0.34562196465E+03  0.41732409494E+03  0.00000000000E+00 0.  1.
         13    1    5    5    0    0  0.24904880577E+02 -0.16534859936E+03 -0.85097556125E+03  0.86724841783E+03  0.00000000000E+00 0. -1.
        -13    1    5    5    0    0 -0.35511740235E+02 -0.25135920193E+02 -0.16952350148E+03  0.17501747265E+03  0.00000000000E+00 0.  1.
          4    1    6    6  503    0  0.18099885468E+03  0.20961888391E+03 -0.55953888841E+02  0.28254468596E+03  0.00000000000E+00 0. -1.
         -4    1    6    6    0  503  0.87060000576E+02  0.18260942865E+02 -0.25633378591E+02  0.92574163959E+02  0.00000000000E+00 0.  1.
<mgrwt>
<rscale>  0 0.17620185E+04</rscale>
<asrwt>0</asrwt>
<pdfrwt beam="1">  1        3 0.20027812E+00 0.17620185E+04</pdfrwt>
<pdfrwt beam="2">  1       -4 0.91727745E-01 0.17620185E+04</pdfrwt>
<totfact> 0.32226950E-01</totfact>
</mgrwt>
</event>
<event>
12    5  0.5029243E-008  0.1495303E+04  0.7818608E-02  0.8887582E-01
          1   -1    0    0  501    0  0.00000000000E+00  0.00000000000E+00  0.18739803474E+04  0.18739803474E+04  0.00000000000E+00 0. -1.
         -2   -1    0    0    0  501 -0.00000000000E+00 -0.00000000000E+00 -0.29828641093E+03  0.29828641093E+03  0.00000000000E+00 0.  1.
        -24    2    1    2    0    0 -0.30821742190E+03 -0.92701403255E+01  0.84853575318E-01  0.32026633103E+03  0.86525146222E+02 0.  0.
        254    2    1    2    0    0  0.30821742190E+03  0.92701403255E+01  0.15756090829E+04  0.18520004273E+04  0.92318886797E+03 0.  0.
         23    2    4    4    0    0 -0.31895791287E+03 -0.41502930237E+02  0.63396500114E+03  0.71652071476E+03  0.89630734768E+02 0.  0.
         23    2    4    4    0    0  0.62717533477E+03  0.50773070562E+02  0.94164408172E+03  0.11354797125E+04  0.81815619740E+02 0.  0.
          3    1    3    3  502    0 -0.22913740479E+02  0.20681423890E+02 -0.12056672853E+02  0.33137956442E+02  0.00000000000E+00 0. -1.
         -4    1    3    3    0  502 -0.28530368142E+03 -0.29951564215E+02  0.12141526429E+02  0.28712837459E+03  0.00000000000E+00 0.  1.
         13    1    5    5    0    0 -0.23663081438E+03  0.72057233723E+01  0.48109872402E+03  0.53619217358E+03  0.00000000000E+00 0.  1.
        -13    1    5    5    0    0 -0.82327098492E+02 -0.48708653609E+02  0.15286627712E+03  0.18032854118E+03  0.00000000000E+00 0. -1.
          4    1    6    6  503    0  0.50322279287E+03  0.57303677451E+02  0.70245990087E+03  0.86600623730E+03  0.00000000000E+00 0.  1.
         -4    1    6    6    0  503  0.12395254190E+03 -0.65306068882E+01  0.23918418084E+03  0.26947347520E+03  0.00000000000E+00 0. -1.
<mgrwt>
<rscale>  0 0.14953031E+04</rscale>
<asrwt>0</asrwt>
<pdfrwt beam="1">  1        1 0.28830466E+00 0.14953031E+04</pdfrwt>
<pdfrwt beam="2">  1       -2 0.45890218E-01 0.14953031E+04</pdfrwt>
<totfact> 0.13884541E+01</totfact>
</mgrwt>
</event>
<event>
12    5  0.5029243E-008  0.1460173E+04  0.7818608E-02  0.8911378E-01
         -2   -1    0    0    0  501 -0.00000000000E+00  0.00000000000E+00  0.18822693242E+03  0.18822693242E+03  0.00000000000E+00 0.  1.
          1   -1    0    0  501    0  0.00000000000E+00 -0.00000000000E+00 -0.28318296923E+04  0.28318296923E+04  0.00000000000E+00 0. -1.
        -24    2    1    2    0    0 -0.27851756719E+03 -0.34979628144E+02 -0.16804405662E+04  0.17056310884E+04  0.80630662723E+02 0.  0.
        254    2    1    2    0    0  0.27851756719E+03  0.34979628144E+02 -0.96316219371E+03  0.13144255363E+04  0.84925701023E+03 0.  0.
         23    2    4    4    0    0  0.38709079987E+02 -0.22200068498E+03 -0.91381615191E+03  0.94568597132E+03  0.92083113866E+02 0.  0.
         23    2    4    4    0    0  0.23980848720E+03  0.25698031312E+03 -0.49346041809E+02  0.36873956497E+03  0.99934193674E+02 0.  0.
          3    1    3    3  502    0 -0.16048638468E+03 -0.59210228163E+02 -0.10347280092E+04  0.10487725129E+04  0.00000000000E+00 0. -1.
         -4    1    3    3    0  502 -0.11803118251E+03  0.24230600020E+02 -0.64571255701E+03  0.65685857557E+03  0.00000000000E+00 0.  1.
         13    1    5    5    0    0 -0.24283456239E+02 -0.56725776870E+02 -0.16223711904E+03  0.17357529433E+03  0.00000000000E+00 0.  1.
        -13    1    5    5    0    0  0.62992536226E+02 -0.16527490811E+03 -0.75157903287E+03  0.77211067699E+03  0.00000000000E+00 0. -1.
          3    1    6    6  503    0  0.16616299198E+03  0.20091345955E+03 -0.77493198106E+02  0.27199550342E+03  0.00000000000E+00 0. -1.
         -3    1    6    6    0  503  0.73645495227E+02  0.56066853574E+02  0.28147156297E+02  0.96744061546E+02  0.00000000000E+00 0.  1.
<mgrwt>
<rscale>  0 0.14601734E+04</rscale>
<asrwt>0</asrwt>
<pdfrwt beam="1">  1        1 0.43566611E+00 0.14601734E+04</pdfrwt>
<pdfrwt beam="2">  1       -2 0.28957989E-01 0.14601734E+04</pdfrwt>
<totfact> 0.74209572E+00</totfact>
</mgrwt>
</event>
<event>
12    5  0.5029243E-008  0.1809659E+04  0.7818608E-02  0.8701180E-01
         -4   -1    0    0    0  501 -0.00000000000E+00  0.00000000000E+00  0.58270240199E+03  0.58270240199E+03  0.00000000000E+00 0.  1.
          3   -1    0    0  501    0  0.00000000000E+00 -0.00000000000E+00 -0.14050335921E+04  0.14050335921E+04  0.00000000000E+00 0. -1.
        -24    2    1    2    0    0 -0.38031752266E+03 -0.52548594234E+03 -0.93574104125E+02  0.65991742155E+03  0.77188060412E+02 0.  0.
        254    2    1    2    0    0  0.38031752266E+03  0.52548594234E+03 -0.72875708595E+03  0.13278185725E+04  0.90068772475E+03 0.  0.
         23    2    4    4    0    0  0.24555863457E+03  0.65412803413E+03 -0.83741169032E+03  0.10943918812E+04  0.90844496207E+02 0.  0.
         23    2    4    4    0    0  0.13475888809E+03 -0.12864209179E+03  0.10865460438E+03  0.23342669130E+03  0.89294184934E+02 0.  0.
          1    1    3    3  502    0 -0.90904241247E+01  0.61161666830E+00 -0.35103781553E+01  0.97638435316E+01  0.00000000000E+00 0. -1.
         -2    1    3    3    0  502 -0.37122709853E+03 -0.52609755901E+03 -0.90063725970E+02  0.65015357802E+03  0.00000000000E+00 0.  1.
         13    1    5    5    0    0 -0.47701414579E+01  0.54997694037E+02 -0.62047191680E+02  0.83050313632E+02  0.00000000000E+00 0. -1.
        -13    1    5    5    0    0  0.25032877603E+03  0.59913034009E+03 -0.77536449864E+03  0.10113415676E+04  0.00000000000E+00 0.  1.
          3    1    6    6  503    0 -0.43219034840E+01 -0.22283644453E+02 -0.68051091916E+01  0.23697028737E+02  0.00000000000E+00 0. -1.
         -3    1    6    6    0  503  0.13908079157E+03 -0.10635844733E+03  0.11545971357E+03  0.20972966257E+03  0.00000000000E+00 0.  1.
<mgrwt>
<rscale>  0 0.18096590E+04</rscale>
<asrwt>0</asrwt>
<pdfrwt beam="1">  1        3 0.21615901E+00 0.18096590E+04</pdfrwt>
<pdfrwt beam="2">  1       -4 0.89646524E-01 0.18096590E+04</pdfrwt>
<totfact> 0.27019166E-01</totfact>
</mgrwt>
</event>
<event>
12    5  0.5029243E-008  0.2035497E+04  0.7818608E-02  0.8590202E-01
         -2   -1    0    0    0  501 -0.00000000000E+00  0.00000000000E+00  0.14384425680E+04  0.14384425680E+04  0.00000000000E+00 0.  1.
          1   -1    0    0  501    0  0.00000000000E+00 -0.00000000000E+00 -0.72009298659E+03  0.72009298659E+03  0.00000000000E+00 0. -1.
        -24    2    1    2    0    0 -0.30179595497E+03 -0.64605797267E+03  0.70233330894E+03  0.10039584903E+04  0.78669376893E+02 0.  0.
        254    2    1    2    0    0  0.30179595497E+03  0.64605797267E+03  0.16016272460E+02  0.11545770643E+04  0.90792068704E+03 0.  0.
         23    2    4    4    0    0  0.30593025369E+03  0.26349638055E+02  0.32473058083E+03  0.45615579005E+03  0.91326508314E+02 0.  0.
         23    2    4    4    0    0 -0.41342987187E+01  0.61970833461E+03 -0.30871430837E+03  0.69842127426E+03  0.91827227625E+02 0.  0.
          3    1    3    3  502    0 -0.18679784960E+03 -0.36104474230E+03  0.35004137886E+03  0.53644730354E+03  0.00000000000E+00 0. -1.
         -4    1    3    3    0  502 -0.11499810537E+03 -0.28501323037E+03  0.35229193009E+03  0.46751118674E+03  0.00000000000E+00 0.  1.
         13    1    5    5    0    0  0.22018462795E+03  0.43162587281E+02  0.27739199489E+03  0.35677807970E+03  0.00000000000E+00 0. -1.
        -13    1    5    5    0    0  0.85745625739E+02 -0.16812949225E+02  0.47338585938E+02  0.99377710346E+02  0.00000000000E+00 0.  1.
          1    1    6    6  503    0 -0.20159143238E+02  0.38711454670E+03 -0.14651089083E+03  0.41440258741E+03  0.00000000000E+00 0.  1.
         -1    1    6    6    0  503  0.16024844519E+02  0.23259378791E+03 -0.16220341754E+03  0.28401868685E+03  0.00000000000E+00 0. -1.
<mgrwt>
<rscale>  0 0.20354974E+04</rscale>
<asrwt>0</asrwt>
<pdfrwt beam="1">  1        1 0.11078354E+00 0.20354974E+04</pdfrwt>
<pdfrwt beam="2">  1       -2 0.22129886E+00 0.20354974E+04</pdfrwt>
<totfact> 0.20488639E+00</totfact>
</mgrwt>
</event>
<event>
12    5  0.5029243E-008  0.2078254E+04  0.7818608E-02  0.8570884E-01
          1   -1    0    0  501    0  0.00000000000E+00  0.00000000000E+00  0.26481314407E+04  0.26481314407E+04  0.00000000000E+00 0. -1.
         -2   -1    0    0    0  501 -0.00000000000E+00 -0.00000000000E+00 -0.40775348549E+03  0.40775348549E+03  0.00000000000E+00 0.  1.
        -24    2    1    2    0    0  0.28703329688E+03 -0.23032116213E+03 -0.19916088290E+03  0.42575769697E+03  0.78540486439E+02 0.  0.
        254    2    1    2    0    0 -0.28703329688E+03  0.23032116213E+03  0.24395388381E+04  0.26301272292E+04  0.91147328429E+03 0.  0.
         23    2    4    4    0    0 -0.27941523381E+03  0.55049366516E+03  0.12873127139E+04  0.14307402952E+04  0.93421736040E+02 0.  0.
         23    2    4    4    0    0 -0.76180630697E+01 -0.32017250303E+03  0.11522261242E+04  0.11993869340E+04  0.91299011593E+02 0.  0.
          1    1    3    3  502    0  0.27500617969E+02 -0.38167839405E+02 -0.13481197721E+01  0.47062568783E+02  0.00000000000E+00 0. -1.
         -2    1    3    3    0  502  0.25953267891E+03 -0.19215332272E+03 -0.19781276313E+03  0.37869512819E+03  0.00000000000E+00 0.  1.
         13    1    5    5    0    0 -0.25529633157E+03  0.45596294331E+03  0.11398278937E+04  0.12539083100E+04  0.00000000000E+00 0. -1.
        -13    1    5    5    0    0 -0.24118902242E+02  0.94530721847E+02  0.14748482022E+03  0.17683198527E+03  0.00000000000E+00 0.  1.
          2    1    6    6  503    0 -0.11835122715E+02 -0.32103858882E+03  0.10734014867E+04  0.11204448212E+04  0.00000000000E+00 0. -1.
         -2    1    6    6    0  503  0.42170596453E+01  0.86608578974E+00  0.78824637507E+02  0.78942112809E+02  0.00000000000E+00 0.  1.
<mgrwt>
<rscale>  0 0.20782539E+04</rscale>
<asrwt>0</asrwt>
<pdfrwt beam="1">  1        1 0.40740483E+00 0.20782539E+04</pdfrwt>
<pdfrwt beam="2">  1       -2 0.62731307E-01 0.20782539E+04</pdfrwt>
<totfact> 0.20372859E+00</totfact>
</mgrwt>
</event>
<event>
12    5  0.5029243E-008  0.1246509E+04  0.7818608E-02  0.9073094E-01
          1   -1    0    0  501    0  0.00000000000E+00  0.00000000000E+00  0.15714656280E+04  0.15714656280E+04  0.00000000000E+00 0. -1.
         -2   -1    0    0    0  501 -0.00000000000E+00 -0.00000000000E+00 -0.24718705791E+03  0.24718705791E+03  0.00000000000E+00 0.  1.
        -24    2    1    2    0    0  0.11618961492E+03 -0.26119121849E+03  0.42502357451E+03  0.51829994449E+03  0.79176475851E+02 0.  0.
        254    2    1    2    0    0 -0.11618961492E+03  0.26119121849E+03  0.89925499556E+03  0.13003527414E+04  0.89472723542E+03 0.  0.
         23    2    4    4    0    0  0.17080383423E+03  0.49249529440E+03  0.68196642946E+03  0.86269969707E+03  0.86295953687E+02 0.  0.
         23    2    4    4    0    0 -0.28699344915E+03 -0.23130407590E+03  0.21728856609E+03  0.43765304433E+03  0.91973098625E+02 0.  0.
          3    1    3    3  502    0  0.62531848043E+02 -0.10865858939E+03  0.25212347295E+03  0.28157266679E+03  0.00000000000E+00 0. -1.
         -4    1    3    3    0  502  0.53657766878E+02 -0.15253262910E+03  0.17290010156E+03  0.23672727770E+03  0.00000000000E+00 0.  1.
         13    1    5    5    0    0  0.12877151917E+03  0.40986870095E+03  0.50581496973E+03  0.66364391037E+03  0.00000000000E+00 0. -1.
        -13    1    5    5    0    0  0.42032315058E+02  0.82626593450E+02  0.17615145973E+03  0.19905578670E+03  0.00000000000E+00 0.  1.
          1    1    6    6  503    0 -0.24015879566E+03 -0.22042134170E+03  0.21296010324E+03  0.38937619416E+03  0.00000000000E+00 0. -1.
         -1    1    6    6    0  503 -0.46834653491E+02 -0.10882734207E+02  0.43284628549E+01  0.48276850168E+02  0.00000000000E+00 0.  1.
<mgrwt>
<rscale>  0 0.12465087E+04</rscale>
<asrwt>0</asrwt>
<pdfrwt beam="1">  1        1 0.24176394E+00 0.12465087E+04</pdfrwt>
<pdfrwt beam="2">  1       -2 0.38028779E-01 0.12465087E+04</pdfrwt>
<totfact> 0.32987029E+01</totfact>
</mgrwt>
</event>
<event>
12    5  0.5029243E-008  0.1662163E+04  0.7818608E-02  0.8783243E-01
          1   -1    0    0  501    0  0.00000000000E+00  0.00000000000E+00  0.16360564761E+04  0.16360564761E+04  0.00000000000E+00 0. -1.
         -2   -1    0    0    0  501 -0.00000000000E+00 -0.00000000000E+00 -0.42217148847E+03  0.42217148847E+03  0.00000000000E+00 0.  1.
        -24    2    1    2    0    0  0.48620411908E+03 -0.90604391929E+02  0.80807041781E+03  0.95075627805E+03  0.79725145814E+02 0.  0.
        254    2    1    2    0    0 -0.48620411908E+03  0.90604391929E+02  0.40581456985E+03  0.11074716865E+04  0.90399362283E+03 0.  0.
         23    2    4    4    0    0  0.18909149039E+03 -0.16998255715E+02 -0.11712327698E+03  0.24173895850E+03  0.93141449485E+02 0.  0.
         23    2    4    4    0    0 -0.67529560948E+03  0.10760264764E+03  0.52293784683E+03  0.86573272803E+03  0.91796921433E+02 0.  0.
          1    1    3    3  502    0  0.47140105228E+03 -0.76717352118E+02  0.74919709759E+03  0.88848229878E+03  0.00000000000E+00 0. -1.
         -2    1    3    3    0  502  0.14803066805E+02 -0.13887039812E+02  0.58873320214E+02  0.62273979274E+02  0.00000000000E+00 0.  1.
         13    1    5    5    0    0 -0.64548904724E+01 -0.89472463783E+01 -0.20941315181E+02  0.23669759404E+02  0.00000000000E+00 0.  1.
        -13    1    5    5    0    0  0.19554638086E+03 -0.80510093371E+01 -0.96181961795E+02  0.21806919910E+03  0.00000000000E+00 0. -1.
          2    1    6    6  503    0 -0.37147187911E+03  0.42478247753E+02  0.23174228938E+03  0.43988662993E+03  0.00000000000E+00 0. -1.
         -2    1    6    6    0  503 -0.30382373037E+03  0.65124399892E+02  0.29119555745E+03  0.42584609810E+03  0.00000000000E+00 0.  1.
<mgrwt>
<rscale>  0 0.16621629E+04</rscale>
<asrwt>0</asrwt>
<pdfrwt beam="1">  1        1 0.25170099E+00 0.16621629E+04</pdfrwt>
<pdfrwt beam="2">  1       -2 0.64949461E-01 0.16621629E+04</pdfrwt>
<totfact> 0.96574747E+00</totfact>
</mgrwt>
</event>
<event>
12    5  0.5029243E-008  0.1415114E+04  0.7818608E-02  0.8942951E-01
         -4   -1    0    0    0  501 -0.00000000000E+00  0.00000000000E+00  0.39371803130E+03  0.39371803130E+03  0.00000000000E+00 0.  1.
          3   -1    0    0  501    0  0.00000000000E+00 -0.00000000000E+00 -0.12715614090E+04  0.12715614090E+04  0.00000000000E+00 0. -1.
        -24    2    1    2    0    0 -0.29382127990E+03 -0.18114701942E+03 -0.57697265235E+03  0.67707453003E+03  0.79920526131E+02 0.  0.
        254    2    1    2    0    0  0.29382127990E+03  0.18114701942E+03 -0.30087072533E+03  0.98820491024E+03  0.87571717129E+03 0.  0.
         23    2    4    4    0    0 -0.22525044535E+03 -0.73974209818E+02 -0.31262396627E+03  0.40276512639E+03  0.90972830586E+02 0.  0.
         23    2    4    4    0    0  0.51907172525E+03  0.25512122923E+03  0.11753240933E+02  0.58543978385E+03  0.89884950245E+02 0.  0.
          1    1    3    3  502    0 -0.26046128447E+03 -0.17161976217E+03 -0.55300203142E+03  0.63490524508E+03  0.00000000000E+00 0. -1.
         -2    1    3    3    0  502 -0.33359995432E+02 -0.95272572439E+01 -0.23970620927E+02  0.42169284953E+02  0.00000000000E+00 0.  1.
         13    1    5    5    0    0 -0.22642491425E+03 -0.85149376357E+02 -0.29118233259E+03  0.37855753710E+03  0.00000000000E+00 0.  1.
        -13    1    5    5    0    0  0.11744688981E+01  0.11175166539E+02 -0.21441633681E+02  0.24207589291E+02  0.00000000000E+00 0. -1.
          3    1    6    6  503    0  0.37804018954E+02  0.26585357428E+02 -0.22826000332E+02  0.51545624158E+02  0.00000000000E+00 0. -1.
         -3    1    6    6    0  503  0.48126770630E+03  0.22853587181E+03  0.34579241265E+02  0.53389415969E+03  0.00000000000E+00 0.  1.
<mgrwt>
<rscale>  0 0.14151136E+04</rscale>
<asrwt>0</asrwt>
<pdfrwt beam="1">  1        3 0.19562483E+00 0.14151136E+04</pdfrwt>
<pdfrwt beam="2">  1       -4 0.60572005E-01 0.14151136E+04</pdfrwt>
<totfact> 0.89907542E-01</totfact>
</mgrwt>
</event>
<event>
12    5  0.5029243E-008  0.2084494E+04  0.7818608E-02  0.8568105E-01
         -2   -1    0    0    0  501 -0.00000000000E+00  0.00000000000E+00  0.10568980456E+04  0.10568980456E+04  0.00000000000E+00 0.  1.
          1   -1    0    0  501    0  0.00000000000E+00 -0.00000000000E+00 -0.10277993290E+04  0.10277993290E+04  0.00000000000E+00 0. -1.
        -24    2    1    2    0    0  0.22426524574E+03 -0.73636646958E+03 -0.32562924647E+03  0.83977900738E+03  0.81632696304E+02 0.  0.
        254    2    1    2    0    0 -0.22426524574E+03  0.73636646958E+03  0.35472796300E+03  0.12449183672E+04  0.91184392047E+03 0.  0.
         23    2    4    4    0    0  0.12906344615E+03 -0.13201841430E+03 -0.60161823413E+02  0.21485593511E+03  0.91964085451E+02 0.  0.
         23    2    4    4    0    0 -0.35332869189E+03  0.86838488388E+03  0.41488978641E+03  0.10300624321E+04  0.99807855784E+02 0.  0.
          3    1    3    3  502    0  0.19436897996E+03 -0.53403405066E+03 -0.21822526197E+03  0.60876426686E+03  0.00000000000E+00 0. -1.
         -2    1    3    3    0  502  0.29896265786E+02 -0.20233241892E+03 -0.10740398449E+03  0.23101474053E+03  0.00000000000E+00 0.  1.
         13    1    5    5    0    0  0.12062058092E+03 -0.65386909969E+02 -0.26541841525E+02  0.13974706397E+03  0.00000000000E+00 0. -1.
        -13    1    5    5    0    0  0.84428652249E+01 -0.66631504327E+02 -0.33619981887E+02  0.75108871141E+02  0.00000000000E+00 0.  1.
          2    1    6    6  503    0 -0.33725967122E+03  0.85134832415E+03  0.38833715551E+03  0.99465763015E+03  0.00000000000E+00 0. -1.
         -2    1    6    6    0  503 -0.16069020674E+02  0.17036559728E+02  0.26552630904E+02  0.35404801944E+02  0.00000000000E+00 0.  1.
<mgrwt>
<rscale>  0 0.20844943E+04</rscale>
<asrwt>0</asrwt>
<pdfrwt beam="1">  1        1 0.15812297E+00 0.20844943E+04</pdfrwt>
<pdfrwt beam="2">  1       -2 0.16259970E+00 0.20844943E+04</pdfrwt>
<totfact> 0.28013570E+00</totfact>
</mgrwt>
</event>
<event>
12    5  0.5029243E-008  0.1594641E+04  0.7818608E-02  0.8823847E-01
          1   -1    0    0  501    0  0.00000000000E+00  0.00000000000E+00  0.18467165410E+04  0.18467165410E+04  0.00000000000E+00 0. -1.
         -2   -1    0    0    0  501 -0.00000000000E+00 -0.00000000000E+00 -0.34424334394E+03  0.34424334394E+03  0.00000000000E+00 0.  1.
        -24    2    1    2    0    0  0.28663502981E+02 -0.24257442696E+03  0.11456866518E+04  0.11756289053E+04  0.99204182733E+02 0.  0.
        254    2    1    2    0    0 -0.28663502981E+02  0.24257442696E+03  0.35678654524E+03  0.10153309796E+04  0.91866011685E+03 0.  0.
         23    2    4    4    0    0  0.18019081617E+03  0.34205674299E+03 -0.17088902476E+03  0.43194392294E+03  0.88887277629E+02 0.  0.
         23    2    4    4    0    0 -0.20885431915E+03 -0.99482316032E+02  0.52767557000E+03  0.58338705668E+03  0.91553770504E+02 0.  0.
          3    1    3    3  502    0 -0.16267727271E+02 -0.19405259504E+03  0.77507325178E+03  0.79916180728E+03  0.00000000000E+00 0. -1.
         -4    1    3    3    0  502  0.44931230252E+02 -0.48521831921E+02  0.37061339999E+03  0.37646709800E+03  0.00000000000E+00 0.  1.
         13    1    5    5    0    0  0.13690477869E+03  0.20473861231E+03 -0.14453865625E+03  0.28557352985E+03  0.00000000000E+00 0. -1.
        -13    1    5    5    0    0  0.43286037487E+02  0.13731813068E+03 -0.26350368510E+02  0.14637039309E+03  0.00000000000E+00 0.  1.
          3    1    6    6  503    0 -0.16238651623E+03 -0.48748414570E+02  0.28969987892E+03  0.33566621579E+03  0.00000000000E+00 0. -1.
         -3    1    6    6    0  503 -0.46467802926E+02 -0.50733901462E+02  0.23797569108E+03  0.24772084089E+03  0.00000000000E+00 0.  1.
<mgrwt>
<rscale>  0 0.15946409E+04</rscale>
<asrwt>0</asrwt>
<pdfrwt beam="1">  1        1 0.28411023E+00 0.15946409E+04</pdfrwt>
<pdfrwt beam="2">  1       -2 0.52960516E-01 0.15946409E+04</pdfrwt>
<totfact> 0.10731618E+01</totfact>
</mgrwt>
</event>
<event>
12    5  0.5029243E-008  0.2202177E+04  0.7818608E-02  0.8517523E-01
         -2   -1    0    0    0  501 -0.00000000000E+00  0.00000000000E+00  0.17432513382E+04  0.17432513382E+04  0.00000000000E+00 0.  1.
          1   -1    0    0  501    0  0.00000000000E+00 -0.00000000000E+00 -0.69547967019E+03  0.69547967019E+03  0.00000000000E+00 0. -1.
        -24    2    1    2    0    0 -0.50872059514E+03 -0.66641046109E+03  0.16039658929E+02  0.84223106994E+03  0.78716948185E+02 0.  0.
        254    2    1    2    0    0  0.50872059514E+03  0.66641046109E+03  0.10317320091E+04  0.15964999385E+04  0.88399183729E+03 0.  0.
         23    2    4    4    0    0  0.14091674928E+02  0.24607843896E+03  0.88712884731E+03  0.92521493319E+03  0.90950027216E+02 0.  0.
         23    2    4    4    0    0  0.49462892021E+03  0.42033202213E+03  0.14460316180E+03  0.67128500530E+03  0.91524348627E+02 0.  0.
          1    1    3    3  502    0 -0.35636876228E+03 -0.44920860993E+03  0.45980020382E+02  0.57524015180E+03  0.00000000000E+00 0. -1.
         -2    1    3    3    0  502 -0.15235183286E+03 -0.21720185117E+03 -0.29940361453E+02  0.26699091814E+03  0.00000000000E+00 0.  1.
         13    1    5    5    0    0 -0.36843479466E+02  0.71793015886E+02  0.29867981933E+03  0.30938861256E+03  0.00000000000E+00 0.  1.
        -13    1    5    5    0    0  0.50935154394E+02  0.17428542307E+03  0.58844902798E+03  0.61582632063E+03  0.00000000000E+00 0. -1.
          4    1    6    6  503    0  0.12000192205E+02 -0.30328313737E+00 -0.62671981166E+01  0.13541579149E+02  0.00000000000E+00 0. -1.
         -4    1    6    6    0  503  0.48262872801E+03  0.42063530527E+03  0.15087035992E+03  0.65774342615E+03  0.00000000000E+00 0.  1.
<mgrwt>
<rscale>  0 0.22021770E+04</rscale>
<asrwt>0</asrwt>
<pdfrwt beam="1">  1        1 0.10699687E+00 0.22021770E+04</pdfrwt>
<pdfrwt beam="2">  1       -2 0.26819251E+00 0.22021770E+04</pdfrwt>
<totfact> 0.10925567E+00</totfact>
</mgrwt>
</event>
<event>
12    5  0.5029243E-008  0.5101116E+04  0.7818608E-02  0.7813096E-01
          1   -1    0    0  501    0  0.00000000000E+00  0.00000000000E+00  0.38036984426E+04  0.38036984426E+04  0.00000000000E+00 0. -1.
         -2   -1    0    0    0  501 -0.00000000000E+00 -0.00000000000E+00 -0.17102685407E+04  0.17102685407E+04  0.00000000000E+00 0.  1.
        -24    2    1    2    0    0  0.22256306239E+04  0.44738113930E+03  0.20746063870E+04  0.30763669048E+04  0.80374834973E+02 0.  0.
        254    2    1    2    0    0 -0.22256306239E+04 -0.44738113930E+03  0.18823514887E+02  0.24376000784E+04  0.88767013004E+03 0.  0.
         23    2    4    4    0    0 -0.36664081897E+03  0.24368417340E+03 -0.40626765095E+02  0.45136584830E+03  0.90956739551E+02 0.  0.
         23    2    4    4    0    0 -0.18589898050E+04 -0.69106531270E+03  0.59450279982E+02  0.19862342301E+04  0.90430746262E+02 0.  0.
          1    1    3    3  502    0  0.21914673797E+04  0.44618281674E+03  0.20534887907E+04  0.30361858632E+04  0.00000000000E+00 0. -1.
         -2    1    3    3    0  502  0.34163244260E+02  0.11983225600E+01  0.21117596302E+02  0.40181041660E+02  0.00000000000E+00 0.  1.
         13    1    5    5    0    0 -0.27746206023E+03  0.14026627416E+03 -0.81960445438E+01  0.31100964242E+03  0.00000000000E+00 0. -1.
        -13    1    5    5    0    0 -0.89178758743E+02  0.10341789923E+03 -0.32430720552E+02  0.14035620588E+03  0.00000000000E+00 0.  1.
          4    1    6    6  503    0 -0.11294496229E+04 -0.38325526044E+03  0.77217579067E+01  0.11927282469E+04  0.00000000000E+00 0.  1.
         -4    1    6    6    0  503 -0.72954018201E+03 -0.30781005226E+03  0.51728522075E+02  0.79350598324E+03  0.00000000000E+00 0. -1.
<mgrwt>
<rscale>  0 0.51011159E+04</rscale>
<asrwt>0</asrwt>
<pdfrwt beam="1">  1        1 0.58518437E+00 0.51011159E+04</pdfrwt>
<pdfrwt beam="2">  1       -2 0.26311824E+00 0.51011159E+04</pdfrwt>
<totfact> 0.47555291E-03</totfact>
</mgrwt>
</event>
<event>
12    5  0.5029243E-008  0.2643592E+04  0.7818608E-02  0.8353543E-01
          1   -1    0    0  501    0  0.00000000000E+00  0.00000000000E+00  0.22087558714E+04  0.22087558714E+04  0.00000000000E+00 0. -1.
         -2   -1    0    0    0  501 -0.00000000000E+00 -0.00000000000E+00 -0.79100872176E+03  0.79100872176E+03  0.00000000000E+00 0.  1.
        -24    2    1    2    0    0  0.57496903832E+03 -0.60376206184E+03 -0.29893442857E+03  0.88949020511E+03  0.81932960799E+02 0.  0.
        254    2    1    2    0    0 -0.57496903832E+03  0.60376206184E+03  0.17166815783E+04  0.21102743881E+04  0.90063551427E+03 0.  0.
         23    2    4    4    0    0 -0.40984116444E+02  0.39833071399E+02  0.11264867157E+04  0.11312621237E+04  0.86690832105E+02 0.  0.
         23    2    4    4    0    0 -0.53398492187E+03  0.56392899044E+03  0.59019486251E+03  0.97901226440E+03  0.83541816245E+02 0.  0.
          1    1    3    3  502    0  0.18302810866E+02 -0.14176318408E+02 -0.23860718460E+02  0.33245973811E+02  0.00000000000E+00 0. -1.
         -2    1    3    3    0  502  0.55666622745E+03 -0.58958574343E+03 -0.27507371011E+03  0.85624423130E+03  0.00000000000E+00 0.  1.
         13    1    5    5    0    0 -0.14313938964E+02  0.31374015866E+02  0.13352499935E+03  0.13790628402E+03  0.00000000000E+00 0. -1.
        -13    1    5    5    0    0 -0.26670177480E+02  0.84590555330E+01  0.99296171640E+03  0.99335583967E+03  0.00000000000E+00 0.  1.
          3    1    6    6  503    0 -0.15019876867E+03  0.18264449007E+03  0.13706045602E+03  0.27332077943E+03  0.00000000000E+00 0. -1.
         -3    1    6    6    0  503 -0.38378615320E+03  0.38128450037E+03  0.45313440649E+03  0.70569148497E+03  0.00000000000E+00 0.  1.
<mgrwt>
<rscale>  0 0.26435924E+04</rscale>
<asrwt>0</asrwt>
<pdfrwt beam="1">  1        1 0.33980859E+00 0.26435924E+04</pdfrwt>
<pdfrwt beam="2">  1       -2 0.12169365E+00 0.26435924E+04</pdfrwt>
<totfact> 0.84978048E-01</totfact>
</mgrwt>
</event>
<event>
12    5  0.5029243E-008  0.3233109E+04  0.7818608E-02  0.8180127E-01
         -4   -1    0    0    0  501 -0.00000000000E+00  0.00000000000E+00  0.11186876404E+04  0.11186876404E+04  0.00000000000E+00 0.  1.
          1   -1    0    0  501    0  0.00000000000E+00 -0.00000000000E+00 -0.23359948770E+04  0.23359948770E+04  0.00000000000E+00 0. -1.
        -24    2    1    2    0    0  0.10703981208E+02 -0.10887308937E+04  0.52363271928E+03  0.12104155078E+04  0.73925251600E+02 0.  0.
        254    2    1    2    0    0 -0.10703981208E+02  0.10887308937E+04 -0.17409399558E+04  0.22442670096E+04  0.90576649662E+03 0.  0.
         23    2    4    4    0    0  0.26863243823E+03  0.77608463915E+03 -0.58814168815E+03  0.10143090243E+04  0.91877077650E+02 0.  0.
         23    2    4    4    0    0 -0.27933641944E+03  0.31264625452E+03 -0.11527982677E+04  0.12299579853E+04  0.89868147504E+02 0.  0.
          1    1    3    3  502    0  0.23557781174E+02 -0.49748952171E+03  0.20425077720E+03  0.53830212080E+03  0.00000000000E+00 0. -1.
         -2    1    3    3    0  502 -0.12853799966E+02 -0.59124137196E+03  0.31938194208E+03  0.67211338702E+03  0.00000000000E+00 0.  1.
         13    1    5    5    0    0  0.22055380425E+03  0.71730494058E+03 -0.53417751488E+03  0.92114926898E+03  0.00000000000E+00 0.  1.
        -13    1    5    5    0    0  0.48078633979E+02  0.58779698568E+02 -0.53964173273E+02  0.93159755292E+02  0.00000000000E+00 0. -1.
          1    1    6    6  503    0 -0.23654684946E+03  0.24260818271E+03 -0.82133147315E+03  0.88848102461E+03  0.00000000000E+00 0. -1.
         -1    1    6    6    0  503 -0.42789569973E+02  0.70038071811E+02 -0.33146679453E+03  0.34147696068E+03  0.00000000000E+00 0.  1.
<mgrwt>
<rscale>  0 0.32331091E+04</rscale>
<asrwt>0</asrwt>
<pdfrwt beam="1">  1        1 0.35938382E+00 0.32331091E+04</pdfrwt>
<pdfrwt beam="2">  1       -4 0.17210579E+00 0.32331091E+04</pdfrwt>
<totfact> 0.14675700E-01</totfact>
</mgrwt>
</event>
<event>
12    5  0.5029243E-008  0.1231937E+04  0.7818608E-02  0.9085352E-01
         -2   -1    0    0    0  501 -0.00000000000E+00  0.00000000000E+00  0.22085386002E+03  0.22085386002E+03  0.00000000000E+00 0.  1.
          1   -1    0    0  501    0  0.00000000000E+00 -0.00000000000E+00 -0.17179557858E+04  0.17179557858E+04  0.00000000000E+00 0. -1.
        -24    2    1    2    0    0 -0.19488794183E+03 -0.14524511162E+02 -0.54453850888E+03  0.58426835667E+03  0.81578512227E+02 0.  0.
        254    2    1    2    0    0  0.19488794183E+03  0.14524511162E+02 -0.95256341692E+03  0.13545412892E+04  0.94298078956E+03 0.  0.
         23    2    4    4    0    0 -0.25345041838E+02  0.79547894001E+02  0.16719150812E+03  0.20783348705E+03  0.90947893697E+02 0.  0.
         23    2    4    4    0    0  0.22023298367E+03 -0.65023382839E+02 -0.11197549250E+04  0.11467078021E+04  0.91417087257E+02 0.  0.
          3    1    3    3  502    0 -0.10534170334E+03 -0.47300499469E+02 -0.32541622428E+03  0.34529687333E+03  0.00000000000E+00 0. -1.
         -4    1    3    3    0  502 -0.89546238498E+02  0.32775988306E+02 -0.21912228461E+03  0.23897148334E+03  0.00000000000E+00 0.  1.
         13    1    5    5    0    0 -0.43470177040E+02  0.85289735079E+02  0.16192354146E+03  0.18810430213E+03  0.00000000000E+00 0. -1.
        -13    1    5    5    0    0  0.18125135202E+02 -0.57418410774E+01  0.52679666632E+01  0.19729184925E+02  0.00000000000E+00 0.  1.
          3    1    6    6  503    0  0.58890009053E+02 -0.30413354572E+02 -0.53586733924E+03  0.53995074828E+03  0.00000000000E+00 0. -1.
         -3    1    6    6    0  503  0.16134297462E+03 -0.34610028267E+02 -0.58388758580E+03  0.60675705382E+03  0.00000000000E+00 0.  1.
<mgrwt>
<rscale>  0 0.12319370E+04</rscale>
<asrwt>0</asrwt>
<pdfrwt beam="1">  1        1 0.26430089E+00 0.12319370E+04</pdfrwt>
<pdfrwt beam="2">  1       -2 0.33977516E-01 0.12319370E+04</pdfrwt>
<totfact> 0.32568751E+01</totfact>
</mgrwt>
</event>
<event>
12    5  0.5029243E-008  0.1667362E+04  0.7818608E-02  0.8780201E-01
         -4   -1    0    0    0  501 -0.00000000000E+00  0.00000000000E+00  0.59627873919E+03  0.59627873919E+03  0.00000000000E+00 0.  1.
          3   -1    0    0  501    0  0.00000000000E+00 -0.00000000000E+00 -0.11656028115E+04  0.11656028115E+04  0.00000000000E+00 0. -1.
        -24    2    1    2    0    0 -0.38468935233E+03 -0.43285206691E+03 -0.83295728380E+02  0.59055743967E+03  0.80455587491E+02 0.  0.
        254    2    1    2    0    0  0.38468935233E+03  0.43285206691E+03 -0.48602834394E+03  0.11713241110E+04  0.89466743116E+03 0.  0.
         23    2    4    4    0    0 -0.25097661320E+03  0.18895814263E+03  0.49451777273E+01  0.32707015366E+03  0.90862481771E+02 0.  0.
         23    2    4    4    0    0  0.63566596552E+03  0.24389392428E+03 -0.49097352167E+03  0.84425395738E+03  0.90301049572E+02 0.  0.
          3    1    3    3  502    0 -0.22842838834E+03 -0.28889666491E+03 -0.85474735996E+02  0.37808298308E+03  0.00000000000E+00 0. -1.
         -4    1    3    3    0  502 -0.15626096399E+03 -0.14395540200E+03  0.21790076152E+01  0.21247445659E+03  0.00000000000E+00 0.  1.
         13    1    5    5    0    0 -0.16483804781E+03  0.17087452097E+03  0.17939589717E+02  0.23809979589E+03  0.00000000000E+00 0.  1.
        -13    1    5    5    0    0 -0.86138565387E+02  0.18083621664E+02 -0.12994411990E+02  0.88970357774E+02  0.00000000000E+00 0. -1.
          4    1    6    6  503    0  0.55837853141E+03  0.23690183329E+03 -0.41017554021E+03  0.73222471738E+03  0.00000000000E+00 0. -1.
         -4    1    6    6    0  503  0.77287434115E+02  0.69920909900E+01 -0.80797981457E+02  0.11202924000E+03  0.00000000000E+00 0.  1.
<mgrwt>
<rscale>  0 0.16673622E+04</rscale>
<asrwt>0</asrwt>
<pdfrwt beam="1">  1        3 0.17932351E+00 0.16673622E+04</pdfrwt>
<pdfrwt beam="2">  1       -4 0.91735191E-01 0.16673622E+04</pdfrwt>
<totfact> 0.44395613E-01</totfact>
</mgrwt>
</event>
<event>
12    5  0.5029243E-008  0.2563712E+04  0.7818608E-02  0.8380633E-01
         -2   -1    0    0    0  501 -0.00000000000E+00  0.00000000000E+00  0.13129738669E+04  0.13129738669E+04  0.00000000000E+00 0.  1.
          1   -1    0    0  501    0  0.00000000000E+00 -0.00000000000E+00 -0.12514752662E+04  0.12514752662E+04  0.00000000000E+00 0. -1.
        -24    2    1    2    0    0  0.10491457108E+04 -0.33928691254E+02 -0.36637949490E+03  0.11145670217E+04  0.78535552058E+02 0.  0.
        254    2    1    2    0    0 -0.10491457108E+04  0.33928691254E+02  0.42787809561E+03  0.14498821115E+04  0.90400254082E+03 0.  0.
         23    2    4    4    0    0 -0.55518654284E+03  0.13385665401E+03  0.66780459782E+03  0.88426217710E+03  0.99029873325E+02 0.  0.
         23    2    4    4    0    0 -0.49395916800E+03 -0.99927962752E+02 -0.23992650221E+03  0.56561993437E+03  0.91541937408E+02 0.  0.
          1    1    3    3  502    0  0.18766912982E+03 -0.32302132332E+02 -0.82376184623E+02  0.20748244705E+03  0.00000000000E+00 0. -1.
         -2    1    3    3    0  502  0.86147658101E+03 -0.16265589214E+01 -0.28400331028E+03  0.90708457466E+03  0.00000000000E+00 0.  1.
         13    1    5    5    0    0 -0.45150013088E+03  0.77879562259E+02  0.48880999491E+03  0.66996477932E+03  0.00000000000E+00 0.  1.
        -13    1    5    5    0    0 -0.10368641195E+03  0.55977091746E+02  0.17899460291E+03  0.21429739778E+03  0.00000000000E+00 0. -1.
          3    1    6    6  503    0 -0.37114471203E+03 -0.45396104868E+02 -0.14474787413E+03  0.40095030948E+03  0.00000000000E+00 0. -1.
         -3    1    6    6    0  503 -0.12281445597E+03 -0.54531857884E+02 -0.95178628077E+02  0.16466962489E+03  0.00000000000E+00 0.  1.
<mgrwt>
<rscale>  0 0.25637116E+04</rscale>
<asrwt>0</asrwt>
<pdfrwt beam="1">  1        1 0.19253466E+00 0.25637116E+04</pdfrwt>
<pdfrwt beam="2">  1       -2 0.20199598E+00 0.25637116E+04</pdfrwt>
<totfact> 0.98087619E-01</totfact>
</mgrwt>
</event>
<event>
12    5  0.5029243E-008  0.2931133E+04  0.7818608E-02  0.8263674E-01
          1   -1    0    0  501    0  0.00000000000E+00  0.00000000000E+00  0.33374443622E+04  0.33374443622E+04  0.00000000000E+00 0. -1.
         -2   -1    0    0    0  501 -0.00000000000E+00 -0.00000000000E+00 -0.64357202257E+03  0.64357202257E+03  0.00000000000E+00 0.  1.
        -24    2    1    2    0    0  0.84048323679E+03 -0.10140435247E+04  0.14879038759E+04  0.19886697622E+04  0.79076784477E+02 0.  0.
        254    2    1    2    0    0 -0.84048323679E+03  0.10140435247E+04  0.12059684637E+04  0.19923466226E+04  0.88339616695E+03 0.  0.
         23    2    4    4    0    0 -0.11080308119E+03 -0.40081726431E+02  0.50940996351E+03  0.53042996174E+03  0.89294825159E+02 0.  0.
         23    2    4    4    0    0 -0.72968015560E+03  0.10541252511E+04  0.69655850021E+03  0.14619166608E+04  0.91615525696E+02 0.  0.
          1    1    3    3  502    0  0.76138223971E+03 -0.92416174809E+03  0.13165527286E+04  0.17796316863E+04  0.00000000000E+00 0. -1.
         -2    1    3    3    0  502  0.79100997081E+02 -0.89881776563E+02  0.17135114731E+03  0.20903807591E+03  0.00000000000E+00 0.  1.
         13    1    5    5    0    0 -0.11173796423E+03 -0.44336971761E+01  0.40138206914E+03  0.41666844823E+03  0.00000000000E+00 0. -1.
        -13    1    5    5    0    0  0.93488304260E+00 -0.35648029254E+02  0.10802789436E+03  0.11376151351E+03  0.00000000000E+00 0.  1.
          3    1    6    6  503    0 -0.60273882928E+03  0.86336086781E+03  0.61065116930E+03  0.12172020929E+04  0.00000000000E+00 0. -1.
         -3    1    6    6    0  503 -0.12694132632E+03  0.19076438327E+03  0.85907330903E+02  0.24471456793E+03  0.00000000000E+00 0.  1.
<mgrwt>
<rscale>  0 0.29311334E+04</rscale>
<asrwt>0</asrwt>
<pdfrwt beam="1">  1        1 0.51345297E+00 0.29311334E+04</pdfrwt>
<pdfrwt beam="2">  1       -2 0.99011083E-01 0.29311334E+04</pdfrwt>
<totfact> 0.21287414E-01</totfact>
</mgrwt>
</event>
<event>
12    5  0.5029243E-008  0.1454668E+04  0.7818608E-02  0.8915171E-01
         -2   -1    0    0    0  501 -0.00000000000E+00  0.00000000000E+00  0.11268834485E+04  0.11268834485E+04  0.00000000000E+00 0.  1.
          1   -1    0    0  501    0  0.00000000000E+00 -0.00000000000E+00 -0.46944911261E+03  0.46944911261E+03  0.00000000000E+00 0. -1.
        -24    2    1    2    0    0  0.38567316921E+03 -0.16848784879E+03  0.36157428947E+03  0.56443036654E+03  0.10350711675E+03 0.  0.
        254    2    1    2    0    0 -0.38567316921E+03  0.16848784879E+03  0.29586004645E+03  0.10319021946E+04  0.89451496550E+03 0.  0.
         23    2    4    4    0    0  0.43258353666E+02  0.40323797134E+03 -0.59489870611E+02  0.42014780471E+03  0.92265846371E+02 0.  0.
         23    2    4    4    0    0 -0.42893152288E+03 -0.23475012254E+03  0.35534991706E+03  0.61175438990E+03  0.94233744745E+02 0.  0.
          3    1    3    3  502    0  0.12875796130E+03 -0.93463611459E+02  0.88485718071E+02  0.18205433685E+03  0.00000000000E+00 0. -1.
         -4    1    3    3    0  502  0.25691520792E+03 -0.75024237335E+02  0.27308857140E+03  0.38237602969E+03  0.00000000000E+00 0.  1.
         13    1    5    5    0    0 -0.28509693515E+01  0.28141713265E+03 -0.12612127876E+02  0.28171403292E+03  0.00000000000E+00 0.  1.
        -13    1    5    5    0    0  0.46109323017E+02  0.12182083869E+03 -0.46877742735E+02  0.13843377179E+03  0.00000000000E+00 0. -1.
          1    1    6    6  503    0 -0.11261838688E+03 -0.22990260483E+02  0.58099350394E+02  0.12879047968E+03  0.00000000000E+00 0. -1.
         -1    1    6    6    0  503 -0.31631313600E+03 -0.21175986206E+03  0.29725056667E+03  0.48296391021E+03  0.00000000000E+00 0.  1.
<mgrwt>
<rscale>  0 0.14546676E+04</rscale>
<asrwt>0</asrwt>
<pdfrwt beam="1">  1        1 0.72222940E-01 0.14546676E+04</pdfrwt>
<pdfrwt beam="2">  1       -2 0.17336668E+00 0.14546676E+04</pdfrwt>
<totfact> 0.82699272E+00</totfact>
</mgrwt>
</event>
<event>
12    5  0.5029243E-008  0.1779294E+04  0.7818608E-02  0.8717389E-01
         -2   -1    0    0    0  501 -0.00000000000E+00  0.00000000000E+00  0.65796619046E+03  0.65796619046E+03  0.00000000000E+00 0.  1.
          1   -1    0    0  501    0  0.00000000000E+00 -0.00000000000E+00 -0.12029063934E+04  0.12029063934E+04  0.00000000000E+00 0. -1.
        -24    2    1    2    0    0 -0.23532787729E+03 -0.28304990793E+03  0.36860045983E+03  0.52742096445E+03  0.82523418198E+02 0.  0.
        254    2    1    2    0    0  0.23532787729E+03  0.28304990793E+03 -0.91354066274E+03  0.13334516194E+04  0.89891057315E+03 0.  0.
         23    2    4    4    0    0 -0.21684732915E+03 -0.10831306552E+03 -0.27159141021E+02  0.26019834370E+03  0.90614981114E+02 0.  0.
         23    2    4    4    0    0  0.45217520644E+03  0.39136297345E+03 -0.88638152172E+03  0.10732532757E+04  0.92590482179E+02 0.  0.
          3    1    3    3  502    0 -0.77655598474E+02 -0.45773681468E+02  0.11410422105E+03  0.14541456306E+03  0.00000000000E+00 0. -1.
         -4    1    3    3    0  502 -0.15767227882E+03 -0.23727622646E+03  0.25449623878E+03  0.38200640139E+03  0.00000000000E+00 0.  1.
         13    1    5    5    0    0 -0.84338753424E+02 -0.82761835373E+02 -0.39732198682E+02  0.12466432664E+03  0.00000000000E+00 0. -1.
        -13    1    5    5    0    0 -0.13250857573E+03 -0.25551230144E+02  0.12573057661E+02  0.13553401706E+03  0.00000000000E+00 0.  1.
          2    1    6    6  503    0  0.31281001307E+03  0.22924904813E+03 -0.62541438225E+03  0.73589970775E+03  0.00000000000E+00 0.  1.
         -2    1    6    6    0  503  0.13936519337E+03  0.16211392532E+03 -0.26096713947E+03  0.33735356792E+03  0.00000000000E+00 0. -1.
<mgrwt>
<rscale>  0 0.17792939E+04</rscale>
<asrwt>0</asrwt>
<pdfrwt beam="1">  1        1 0.18506252E+00 0.17792939E+04</pdfrwt>
<pdfrwt beam="2">  1       -2 0.10122557E+00 0.17792939E+04</pdfrwt>
<totfact> 0.70745234E+00</totfact>
</mgrwt>
</event>
<event>
12    5  0.5029243E-008  0.3342706E+04  0.7818608E-02  0.8152113E-01
         -2   -1    0    0    0  501 -0.00000000000E+00  0.00000000000E+00  0.14266551523E+04  0.14266551523E+04  0.00000000000E+00 0.  1.
          1   -1    0    0  501    0  0.00000000000E+00 -0.00000000000E+00 -0.19580204871E+04  0.19580204871E+04  0.00000000000E+00 0. -1.
        -24    2    1    2    0    0 -0.49253774150E+03  0.13906450743E+04 -0.74207698276E+03  0.16532883478E+04  0.78720792736E+02 0.  0.
        254    2    1    2    0    0  0.49253774150E+03 -0.13906450743E+04  0.21071164802E+03  0.17313872916E+04  0.88137132104E+03 0.  0.
         23    2    4    4    0    0  0.73690520936E+03 -0.96502462653E+03  0.18450425823E+03  0.12317089928E+04  0.93613055992E+02 0.  0.
         23    2    4    4    0    0 -0.24436746786E+03 -0.42562044775E+03  0.26207389785E+02  0.49967829882E+03  0.90129629666E+02 0.  0.
          3    1    3    3  502    0 -0.33076819115E+03  0.88139958789E+03 -0.43564196763E+03  0.10373315544E+04  0.00000000000E+00 0. -1.
         -4    1    3    3    0  502 -0.16176955035E+03  0.50924548639E+03 -0.30643501513E+03  0.61595679340E+03  0.00000000000E+00 0.  1.
         13    1    5    5    0    0  0.62567261122E+03 -0.76124828358E+03  0.15963075257E+03  0.99822199077E+03  0.00000000000E+00 0. -1.
        -13    1    5    5    0    0  0.11123259813E+03 -0.20377634295E+03  0.24873505668E+02  0.23348700203E+03  0.00000000000E+00 0.  1.
          3    1    6    6  503    0 -0.25154282862E+03 -0.40374824434E+03  0.21490764817E+02  0.47618094503E+03  0.00000000000E+00 0. -1.
         -3    1    6    6    0  503  0.71753607630E+01 -0.21872203407E+02  0.47166249677E+01  0.23497353788E+02  0.00000000000E+00 0.  1.
<mgrwt>
<rscale>  0 0.33427055E+04</rscale>
<asrwt>0</asrwt>
<pdfrwt beam="1">  1        1 0.30123392E+00 0.33427055E+04</pdfrwt>
<pdfrwt beam="2">  1       -2 0.21948541E+00 0.33427055E+04</pdfrwt>
<totfact> 0.23029954E-01</totfact>
</mgrwt>
</event>
<event>
12    5  0.5029243E-008  0.1335199E+04  0.7818608E-02  0.9002109E-01
          3   -1    0    0  501    0  0.00000000000E+00  0.00000000000E+00  0.40472971263E+03  0.40472971263E+03  0.00000000000E+00 0. -1.
         -2   -1    0    0    0  501 -0.00000000000E+00 -0.00000000000E+00 -0.11012012128E+04  0.11012012128E+04  0.00000000000E+00 0.  1.
        -24    2    1    2    0    0 -0.11376575833E+02 -0.33692750384E+03 -0.53816183939E+02  0.35031681240E+03  0.78588282075E+02 0.  0.
        254    2    1    2    0    0  0.11376575833E+02  0.33692750384E+03 -0.64265531624E+03  0.11556141131E+04  0.89932672231E+03 0.  0.
         23    2    4    4    0    0  0.13322511615E+03 -0.83601025665E+02 -0.68281966745E+03  0.70648264311E+03  0.90205120128E+02 0.  0.
         23    2    4    4    0    0 -0.12184854032E+03  0.42052852950E+03  0.40164351202E+02  0.44913146994E+03  0.91731081342E+02 0.  0.
          1    1    3    3  502    0 -0.40954851832E+02 -0.25053402520E+03 -0.51150838755E+02  0.25896139862E+03  0.00000000000E+00 0. -1.
         -2    1    3    3    0  502  0.29578275999E+02 -0.86393478637E+02 -0.26653451841E+01  0.91355413781E+02  0.00000000000E+00 0.  1.
         13    1    5    5    0    0  0.97847752144E+02 -0.19548897802E+02 -0.28432221565E+03  0.30132285728E+03  0.00000000000E+00 0. -1.
        -13    1    5    5    0    0  0.35377364005E+02 -0.64052127863E+02 -0.39849745180E+03  0.40515978583E+03  0.00000000000E+00 0.  1.
          1    1    6    6  503    0 -0.11582614654E+03  0.31355713360E+03 -0.12408858801E+01  0.33426832343E+03  0.00000000000E+00 0. -1.
         -1    1    6    6    0  503 -0.60223937722E+01  0.10697139590E+03  0.41405237082E+02  0.11486314651E+03  0.00000000000E+00 0.  1.
<mgrwt>
<rscale>  0 0.13351986E+04</rscale>
<asrwt>0</asrwt>
<pdfrwt beam="1">  1        3 0.62266111E-01 0.13351986E+04</pdfrwt>
<pdfrwt beam="2">  1       -2 0.16941557E+00 0.13351986E+04</pdfrwt>
<totfact> 0.22102851E+00</totfact>
</mgrwt>
</event>
<event>
12    5  0.5029243E-008  0.1122258E+04  0.7818608E-02  0.9183766E-01
         -4   -1    0    0    0  501 -0.00000000000E+00  0.00000000000E+00  0.20191502710E+03  0.20191502710E+03  0.00000000000E+00 0.  1.
          3   -1    0    0  501    0  0.00000000000E+00 -0.00000000000E+00 -0.15593964975E+04  0.15593964975E+04  0.00000000000E+00 0. -1.
        -24    2    1    2    0    0 -0.12112598048E+03  0.12590518020E+03 -0.30803488415E+03  0.36562599907E+03  0.90957483430E+02 0.  0.
        254    2    1    2    0    0  0.12112598048E+03 -0.12590518020E+03 -0.10494465863E+04  0.13956855255E+04  0.90336943230E+03 0.  0.
         23    2    4    4    0    0  0.46043953154E+03 -0.18930499045E+03 -0.37007639365E+03  0.62815837447E+03  0.98921507586E+02 0.  0.
         23    2    4    4    0    0 -0.33931355106E+03  0.63399810245E+02 -0.67937019260E+03  0.76752715106E+03  0.91656135339E+02 0.  0.
          3    1    3    3  502    0 -0.39512693493E+02  0.96304525084E+01 -0.13898430024E+03  0.14481241064E+03  0.00000000000E+00 0. -1.
         -4    1    3    3    0  502 -0.81613286991E+02  0.11627472770E+03 -0.16905058391E+03  0.22081358843E+03  0.00000000000E+00 0.  1.
         13    1    5    5    0    0  0.11591901875E+03 -0.52047109456E+02 -0.44401624827E+02  0.13460172658E+03  0.00000000000E+00 0. -1.
        -13    1    5    5    0    0  0.34452051279E+03 -0.13725788099E+03 -0.32567476882E+03  0.49355664789E+03  0.00000000000E+00 0.  1.
          4    1    6    6  503    0 -0.18430793229E+03  0.64586193422E+02 -0.45153953687E+03  0.49196416906E+03  0.00000000000E+00 0. -1.
         -4    1    6    6    0  503 -0.15500561877E+03 -0.11863831762E+01 -0.22783065573E+03  0.27556298200E+03  0.00000000000E+00 0.  1.
<mgrwt>
<rscale>  0 0.11222577E+04</rscale>
<asrwt>0</asrwt>
<pdfrwt beam="1">  1        3 0.23990715E+00 0.11222577E+04</pdfrwt>
<pdfrwt beam="2">  1       -4 0.31063851E-01 0.11222577E+04</pdfrwt>
<totfact> 0.19399295E+00</totfact>
</mgrwt>
</event>
<event>
12    5  0.5029243E-008  0.2691203E+04  0.7818608E-02  0.8337865E-01
          1   -1    0    0  501    0  0.00000000000E+00  0.00000000000E+00  0.23966079551E+04  0.23966079551E+04  0.00000000000E+00 0. -1.
         -2   -1    0    0    0  501 -0.00000000000E+00 -0.00000000000E+00 -0.75550263864E+03  0.75550263864E+03  0.00000000000E+00 0.  1.
        -24    2    1    2    0    0 -0.21646728791E+03 -0.39887669283E+03  0.20332688681E+04  0.20847878265E+04  0.78722859510E+02 0.  0.
        254    2    1    2    0    0  0.21646728791E+03  0.39887669283E+03 -0.39216355167E+03  0.10673227672E+04  0.88285046038E+03 0.  0.
         23    2    4    4    0    0 -0.22373381725E+03  0.20666064458E+03  0.13725392733E+03  0.34669562152E+03  0.92702591183E+02 0.  0.
         23    2    4    4    0    0  0.44020110516E+03  0.19221604825E+03 -0.52941747900E+03  0.72062714572E+03  0.91085640433E+02 0.  0.
          1    1    3    3  502    0 -0.12858647179E+03 -0.20850575388E+03  0.92683429226E+03  0.95866101175E+03  0.00000000000E+00 0. -1.
         -2    1    3    3    0  502 -0.87880816117E+02 -0.19037093895E+03  0.11064345758E+04  0.11261268147E+04  0.00000000000E+00 0.  1.
         13    1    5    5    0    0 -0.20583158490E+03  0.17666386866E+03  0.14944795482E+03  0.30969574590E+03  0.00000000000E+00 0.  1.
        -13    1    5    5    0    0 -0.17902232350E+02  0.29996775925E+02 -0.12194027490E+02  0.36999875614E+02  0.00000000000E+00 0. -1.
          1    1    6    6  503    0  0.24636424260E+03  0.73517445183E+02 -0.23198858312E+03  0.34629302256E+03  0.00000000000E+00 0. -1.
         -1    1    6    6    0  503  0.19383686256E+03  0.11869860306E+03 -0.29742889588E+03  0.37433412316E+03  0.00000000000E+00 0.  1.
<mgrwt>
<rscale>  0 0.26912032E+04</rscale>
<asrwt>0</asrwt>
<pdfrwt beam="1">  1        1 0.36870891E+00 0.26912032E+04</pdfrwt>
<pdfrwt beam="2">  1       -2 0.11623118E+00 0.26912032E+04</pdfrwt>
<totfact> 0.70487963E-01</totfact>
</mgrwt>
</event>
<event>
12    5  0.5029243E-008  0.2233565E+04  0.7818608E-02  0.8504586E-01
          1   -1    0    0  501    0  0.00000000000E+00  0.00000000000E+00  0.98731860129E+03  0.98731860129E+03  0.00000000000E+00 0. -1.
         -2   -1    0    0    0  501 -0.00000000000E+00 -0.00000000000E+00 -0.12632222963E+04  0.12632222963E+04  0.00000000000E+00 0.  1.
        -24    2    1    2    0    0 -0.33981732048E+03 -0.65907268391E+03  0.45299395451E+03  0.87263404158E+03  0.80212428746E+02 0.  0.
        254    2    1    2    0    0  0.33981732048E+03  0.65907268391E+03 -0.72889764956E+03  0.13779068560E+04  0.90414761318E+03 0.  0.
         23    2    4    4    0    0 -0.14931613753E+03  0.42191312242E+03  0.92516370514E+01  0.45667374135E+03  0.90328962429E+02 0.  0.
         23    2    4    4    0    0  0.48913345802E+03  0.23715956149E+03 -0.73814928661E+03  0.92123311469E+03  0.91158570198E+02 0.  0.
          1    1    3    3  502    0 -0.19263417337E+03 -0.44474443491E+03  0.31797869549E+03  0.57966886057E+03  0.00000000000E+00 0. -1.
         -2    1    3    3    0  502 -0.14718314712E+03 -0.21432824900E+03  0.13501525902E+03  0.29296518101E+03  0.00000000000E+00 0.  1.
         13    1    5    5    0    0 -0.11154029701E+03  0.18076211394E+03 -0.24905870333E-01  0.21240569746E+03  0.00000000000E+00 0.  1.
        -13    1    5    5    0    0 -0.37775840526E+02  0.24115100848E+03  0.92765429217E+01  0.24426804390E+03  0.00000000000E+00 0. -1.
          1    1    6    6  503    0  0.19324169667E+02  0.33774273261E+02 -0.60710053519E+02  0.72109886048E+02  0.00000000000E+00 0. -1.
         -1    1    6    6    0  503  0.46980928835E+03  0.20338528823E+03 -0.67743923309E+03  0.84912322864E+03  0.00000000000E+00 0.  1.
<mgrwt>
<rscale>  0 0.22335647E+04</rscale>
<asrwt>0</asrwt>
<pdfrwt beam="1">  1        1 0.15189517E+00 0.22335647E+04</pdfrwt>
<pdfrwt beam="2">  1       -2 0.19434189E+00 0.22335647E+04</pdfrwt>
<totfact> 0.17886748E+00</totfact>
</mgrwt>
</event>
<event>
12    5  0.5029243E-008  0.1329380E+04  0.7818608E-02  0.9006586E-01
          1   -1    0    0  501    0  0.00000000000E+00  0.00000000000E+00  0.55550373419E+03  0.55550373419E+03  0.00000000000E+00 0. -1.
         -2   -1    0    0    0  501 -0.00000000000E+00 -0.00000000000E+00 -0.79533671654E+03  0.79533671654E+03  0.00000000000E+00 0.  1.
        -24    2    1    2    0    0 -0.80377441384E+02  0.29207209000E+03 -0.21928860133E+03  0.38170362532E+03  0.76442972684E+02 0.  0.
        254    2    1    2    0    0  0.80377441384E+02 -0.29207209000E+03 -0.20544381016E+02  0.96913682541E+03  0.92034638910E+03 0.  0.
         23    2    4    4    0    0  0.28572264533E+03  0.24358522633E+03  0.15052185010E+02  0.38733181609E+03  0.93958368132E+02 0.  0.
         23    2    4    4    0    0 -0.20534520394E+03 -0.53565731633E+03 -0.35596566026E+02  0.58180500932E+03  0.90191684963E+02 0.  0.
          1    1    3    3  502    0 -0.20434994299E+02  0.91012842461E+01 -0.91024727509E+01  0.24151136146E+02  0.00000000000E+00 0. -1.
         -2    1    3    3    0  502 -0.59942447085E+02  0.28297080575E+03 -0.21018612858E+03  0.35755248918E+03  0.00000000000E+00 0.  1.
         13    1    5    5    0    0  0.31011517700E+02  0.22454942195E+02 -0.27796425220E+02  0.47313633490E+02  0.00000000000E+00 0.  1.
        -13    1    5    5    0    0  0.25471112763E+03  0.22113028414E+03  0.42848610231E+02  0.34001818260E+03  0.00000000000E+00 0. -1.
          2    1    6    6  503    0 -0.18386400419E+03 -0.39160466671E+03 -0.33531176337E+01  0.43263313606E+03  0.00000000000E+00 0. -1.
         -2    1    6    6    0  503 -0.21481199754E+02 -0.14405264962E+03 -0.32243448392E+02  0.14917187326E+03  0.00000000000E+00 0.  1.
<mgrwt>
<rscale>  0 0.13293796E+04</rscale>
<asrwt>0</asrwt>
<pdfrwt beam="1">  1        1 0.85462114E-01 0.13293796E+04</pdfrwt>
<pdfrwt beam="2">  1       -2 0.12235949E+00 0.13293796E+04</pdfrwt>
<totfact> 0.16587430E+01</totfact>
</mgrwt>
</event>
<event>
12    5  0.5029243E-008  0.2130360E+04  0.7818608E-02  0.8547986E-01
         -2   -1    0    0    0  501 -0.00000000000E+00  0.00000000000E+00  0.84445309210E+03  0.84445309210E+03  0.00000000000E+00 0.  1.
          1   -1    0    0  501    0  0.00000000000E+00 -0.00000000000E+00 -0.13436015300E+04  0.13436015300E+04  0.00000000000E+00 0. -1.
        -24    2    1    2    0    0 -0.64347374658E+02  0.55452783148E+03 -0.88527743954E+03  0.10496536470E+04  0.80093278265E+02 0.  0.
        254    2    1    2    0    0  0.64347374658E+02 -0.55452783148E+03  0.38612900169E+03  0.11384009750E+04  0.91390342680E+03 0.  0.
         23    2    4    4    0    0  0.32211889309E+03  0.57989207707E+02 -0.42160919414E+02  0.34262887243E+03  0.92161117639E+02 0.  0.
         23    2    4    4    0    0 -0.25777151843E+03 -0.61251703918E+03  0.42828992110E+03  0.79577210261E+03  0.90541171645E+02 0.  0.
          3    1    3    3  502    0 -0.48780137438E+02  0.16614438197E+03 -0.23216547447E+03  0.28962780427E+03  0.00000000000E+00 0. -1.
         -4    1    3    3    0  502 -0.15567237220E+02  0.38838344951E+03 -0.65311196507E+03  0.76002584274E+03  0.00000000000E+00 0.  1.
         13    1    5    5    0    0  0.21910397291E+03  0.28794814589E+02 -0.70337312580E+02  0.23191168542E+03  0.00000000000E+00 0.  1.
        -13    1    5    5    0    0  0.10301492018E+03  0.29194393117E+02  0.28176393167E+02  0.11071718701E+03  0.00000000000E+00 0. -1.
          4    1    6    6  503    0 -0.25835977072E+03 -0.61513400060E+03  0.42871702498E+03  0.79305604930E+03  0.00000000000E+00 0. -1.
         -4    1    6    6    0  503  0.58825228723E+00  0.26169614191E+01 -0.42710388183E+00  0.27160533036E+01  0.00000000000E+00 0.  1.
<mgrwt>
<rscale>  0 0.21303600E+04</rscale>
<asrwt>0</asrwt>
<pdfrwt beam="1">  1        1 0.20670793E+00 0.21303600E+04</pdfrwt>
<pdfrwt beam="2">  1       -2 0.12991586E+00 0.21303600E+04</pdfrwt>
<totfact> 0.29488517E+00</totfact>
</mgrwt>
</event>
<event>
12    5  0.5029243E-008  0.1205316E+04  0.7818608E-02  0.9108216E-01
          1   -1    0    0  501    0  0.00000000000E+00  0.00000000000E+00  0.10327335631E+04  0.10327335631E+04  0.00000000000E+00 0. -1.
         -2   -1    0    0    0  501 -0.00000000000E+00 -0.00000000000E+00 -0.35168454825E+03  0.35168454825E+03  0.00000000000E+00 0.  1.
        -24    2    1    2    0    0 -0.68307186023E+02  0.22686401135E+03  0.48171764798E+02  0.25745257675E+03  0.88476884232E+02 0.  0.
        254    2    1    2    0    0  0.68307186023E+02 -0.22686401135E+03  0.63287725007E+03  0.11269655346E+04  0.90187834616E+03 0.  0.
         23    2    4    4    0    0 -0.30367298478E+03 -0.17437178262E+03  0.64594966920E+03  0.74017169313E+03  0.89332860239E+02 0.  0.
         23    2    4    4    0    0  0.37198017080E+03 -0.52492228733E+02 -0.13072419126E+02  0.38679384150E+03  0.91180623670E+02 0.  0.
          3    1    3    3  502    0 -0.35764303715E+02  0.12450024258E+03 -0.18769841443E+02  0.13088813075E+03  0.00000000000E+00 0. -1.
         -2    1    3    3    0  502 -0.32542882308E+02  0.10236376877E+03  0.66941606242E+02  0.12656444600E+03  0.00000000000E+00 0.  1.
         13    1    5    5    0    0  0.28702735025E+01  0.93333388298E+00 -0.95013152509E+00  0.31642269247E+01  0.00000000000E+00 0.  1.
        -13    1    5    5    0    0 -0.30654325828E+03 -0.17530511650E+03  0.64689980072E+03  0.73700746620E+03  0.00000000000E+00 0. -1.
          1    1    6    6  503    0  0.32761051349E+03 -0.15586528743E+02 -0.17728510461E+01  0.32798587078E+03  0.00000000000E+00 0. -1.
         -1    1    6    6    0  503  0.44369657307E+02 -0.36905699991E+02 -0.11299568079E+02  0.58807970720E+02  0.00000000000E+00 0.  1.
<mgrwt>
<rscale>  0 0.12053156E+04</rscale>
<asrwt>0</asrwt>
<pdfrwt beam="1">  1        1 0.15888209E+00 0.12053156E+04</pdfrwt>
<pdfrwt beam="2">  1       -2 0.54105315E-01 0.12053156E+04</pdfrwt>
<totfact> 0.39813723E+01</totfact>
</mgrwt>
</event>
<event>
12    5  0.5029243E-008  0.1303773E+04  0.7818608E-02  0.9026578E-01
          1   -1    0    0  501    0  0.00000000000E+00  0.00000000000E+00  0.26957099275E+04  0.26957099275E+04  0.00000000000E+00 0. -1.
         -2   -1    0    0    0  501 -0.00000000000E+00 -0.00000000000E+00 -0.15764168840E+03  0.15764168840E+03  0.00000000000E+00 0.  1.
        -24    2    1    2    0    0  0.14046856070E+03 -0.16190588434E+03  0.12048232001E+03  0.25976584869E+03  0.83769772476E+02 0.  0.
        254    2    1    2    0    0 -0.14046856070E+03  0.16190588434E+03  0.24175859191E+04  0.25935857672E+04  0.91434157936E+03 0.  0.
         23    2    4    4    0    0  0.36478741833E+03  0.19656788535E+03  0.11045034377E+04  0.11832403816E+04  0.91766893389E+02 0.  0.
         23    2    4    4    0    0 -0.50525597903E+03 -0.34662001007E+02  0.13130824814E+04  0.14103453856E+04  0.91670306049E+02 0.  0.
          3    1    3    3  502    0  0.52002946550E+01  0.58963767159E+01  0.20916844474E+02  0.22345574632E+02  0.00000000000E+00 0. -1.
         -4    1    3    3    0  502  0.13526826605E+03 -0.16780226106E+03  0.99565475539E+02  0.23742027406E+03  0.00000000000E+00 0.  1.
         13    1    5    5    0    0  0.89996513073E+02  0.86793357624E+01  0.27281008924E+03  0.28740224081E+03  0.00000000000E+00 0. -1.
        -13    1    5    5    0    0  0.27479090525E+03  0.18788854958E+03  0.83169334846E+03  0.89583814082E+03  0.00000000000E+00 0.  1.
          1    1    6    6  503    0 -0.68329206564E+02 -0.33430633256E+02  0.23825170730E+03  0.25010070719E+03  0.00000000000E+00 0. -1.
         -1    1    6    6    0  503 -0.43692677247E+03 -0.12313677509E+01  0.10748307741E+04  0.11602446784E+04  0.00000000000E+00 0.  1.
<mgrwt>
<rscale>  0 0.13037734E+04</rscale>
<asrwt>0</asrwt>
<pdfrwt beam="1">  1        1 0.41472457E+00 0.13037734E+04</pdfrwt>
<pdfrwt beam="2">  1       -2 0.24252569E-01 0.13037734E+04</pdfrwt>
<totfact> 0.13002194E+01</totfact>
</mgrwt>
</event>
<event>
12    5  0.5029243E-008  0.1832634E+04  0.7818608E-02  0.8689135E-01
         -2   -1    0    0    0  501 -0.00000000000E+00  0.00000000000E+00  0.10802330530E+04  0.10802330530E+04  0.00000000000E+00 0.  1.
          1   -1    0    0  501    0  0.00000000000E+00 -0.00000000000E+00 -0.77727368129E+03  0.77727368129E+03  0.00000000000E+00 0. -1.
        -24    2    1    2    0    0  0.40441096562E+03  0.38193809711E+02  0.66599992175E+03  0.78397215319E+03  0.77778178060E+02 0.  0.
        254    2    1    2    0    0 -0.40441096562E+03 -0.38193809711E+02 -0.36304055007E+03  0.10735345811E+04  0.92502489673E+03 0.  0.
         23    2    4    4    0    0 -0.68936401494E+03 -0.33948047945E+02 -0.33849150234E+03  0.77353427153E+03  0.86043924956E+02 0.  0.
         23    2    4    4    0    0  0.28495304932E+03 -0.42457617652E+01 -0.24549047733E+02  0.30000030955E+03  0.90450335408E+02 0.  0.
          1    1    3    3  502    0  0.36054366003E+02  0.26675148750E+02  0.80166689929E+02  0.91859561521E+02  0.00000000000E+00 0. -1.
         -2    1    3    3    0  502  0.36835659962E+03  0.11518660961E+02  0.58583323182E+03  0.69211259166E+03  0.00000000000E+00 0.  1.
         13    1    5    5    0    0 -0.50212313313E+03 -0.62749195865E+02 -0.24137620076E+03  0.56064924213E+03  0.00000000000E+00 0.  1.
        -13    1    5    5    0    0 -0.18724088182E+03  0.28801147920E+02 -0.97115301570E+02  0.21288502940E+03  0.00000000000E+00 0. -1.
          4    1    6    6  503    0  0.84472612742E+02 -0.19097469599E+02  0.30080904283E+02  0.91679858481E+02  0.00000000000E+00 0. -1.
         -4    1    6    6    0  503  0.20048043658E+03  0.14851707834E+02 -0.54629952017E+02  0.20832045107E+03  0.00000000000E+00 0.  1.
<mgrwt>
<rscale>  0 0.18326339E+04</rscale>
<asrwt>0</asrwt>
<pdfrwt beam="1">  1        1 0.11958057E+00 0.18326339E+04</pdfrwt>
<pdfrwt beam="2">  1       -2 0.16618970E+00 0.18326339E+04</pdfrwt>
<totfact> 0.43294518E+00</totfact>
</mgrwt>
</event>
<event>
12    5  0.5029243E-008  0.4369761E+04  0.7818608E-02  0.7933843E-01
         -2   -1    0    0    0  501 -0.00000000000E+00  0.00000000000E+00  0.33372925316E+04  0.33372925316E+04  0.00000000000E+00 0.  1.
          1   -1    0    0  501    0  0.00000000000E+00 -0.00000000000E+00 -0.14304117668E+04  0.14304117668E+04  0.00000000000E+00 0. -1.
        -24    2    1    2    0    0  0.81684594779E+03 -0.49556127614E+03  0.29544331212E+04  0.31060637094E+04  0.78348059201E+02 0.  0.
        254    2    1    2    0    0 -0.81684594779E+03  0.49556127614E+03 -0.10475523564E+04  0.16616405890E+04  0.86652479864E+03 0.  0.
         23    2    4    4    0    0 -0.91702029836E+03  0.60743606306E+03 -0.97126227947E+03  0.14701322229E+04  0.89630011190E+02 0.  0.
         23    2    4    4    0    0  0.10017435057E+03 -0.11187478692E+03 -0.76290076958E+02  0.19150836610E+03  0.91128535516E+02 0.  0.
          1    1    3    3  502    0  0.70986777895E+01 -0.12974194808E+02  0.29760755693E+02  0.33232868319E+02  0.00000000000E+00 0. -1.
         -2    1    3    3    0  502  0.80974727000E+03 -0.48258708133E+03  0.29246723655E+04  0.30728308411E+04  0.00000000000E+00 0.  1.
         13    1    5    5    0    0 -0.32595814129E+03  0.24706138224E+03 -0.40742752083E+03  0.57730860135E+03  0.00000000000E+00 0. -1.
        -13    1    5    5    0    0 -0.59106215707E+03  0.36037468083E+03 -0.56383475864E+03  0.89282362153E+03  0.00000000000E+00 0.  1.
          4    1    6    6  503    0  0.81212858749E+02 -0.44350034593E+02 -0.78487697121E+02  0.12133743278E+03  0.00000000000E+00 0. -1.
         -4    1    6    6    0  503  0.18961491818E+02 -0.67524752328E+02  0.21976201633E+01  0.70170933322E+02  0.00000000000E+00 0.  1.
<mgrwt>
<rscale>  0 0.43697609E+04</rscale>
<asrwt>0</asrwt>
<pdfrwt beam="1">  1        1 0.22006335E+00 0.43697609E+04</pdfrwt>
<pdfrwt beam="2">  1       -2 0.51342962E+00 0.43697609E+04</pdfrwt>
<totfact> 0.66843374E-03</totfact>
</mgrwt>
</event>
<event>
12    5  0.5029243E-008  0.1064667E+04  0.7818608E-02  0.9240331E-01
         -2   -1    0    0    0  501 -0.00000000000E+00  0.00000000000E+00  0.36670449567E+03  0.36670449567E+03  0.00000000000E+00 0.  1.
          1   -1    0    0  501    0  0.00000000000E+00 -0.00000000000E+00 -0.77277247703E+03  0.77277247703E+03  0.00000000000E+00 0. -1.
        -24    2    1    2    0    0 -0.11002461369E+03  0.59665222137E+01 -0.17833927631E+03  0.22424722639E+03  0.79629806378E+02 0.  0.
        254    2    1    2    0    0  0.11002461369E+03 -0.59665222137E+01 -0.22772870506E+03  0.91522974632E+03  0.87957041244E+03 0.  0.
         23    2    4    4    0    0  0.47868160418E+03  0.79944135864E+02 -0.88552812598E+02  0.50180212467E+03  0.91851122313E+02 0.  0.
         23    2    4    4    0    0 -0.36865699049E+03 -0.85910658077E+02 -0.13917589246E+03  0.41342762164E+03  0.90905728582E+02 0.  0.
          1    1    3    3  502    0 -0.78408588484E+02  0.40847580140E+02 -0.10740477492E+03  0.13911224686E+03  0.00000000000E+00 0. -1.
         -2    1    3    3    0  502 -0.31616025208E+02 -0.34881057926E+02 -0.70934501385E+02  0.85134979525E+02  0.00000000000E+00 0.  1.
         13    1    5    5    0    0  0.27418025860E+03  0.62159245435E+02 -0.78885515053E+01  0.28124867154E+03  0.00000000000E+00 0. -1.
        -13    1    5    5    0    0  0.20450134558E+03  0.17784890429E+02 -0.80664261093E+02  0.22055345313E+03  0.00000000000E+00 0.  1.
          4    1    6    6  503    0 -0.19175276097E+03 -0.77854708571E+02 -0.10860379520E+03  0.23372047689E+03  0.00000000000E+00 0. -1.
         -4    1    6    6    0  503 -0.17690422952E+03 -0.80559495059E+01 -0.30572097253E+02  0.17970714475E+03  0.00000000000E+00 0.  1.
<mgrwt>
<rscale>  0 0.10646673E+04</rscale>
<asrwt>0</asrwt>
<pdfrwt beam="1">  1        1 0.11888807E+00 0.10646673E+04</pdfrwt>
<pdfrwt beam="2">  1       -2 0.56416077E-01 0.10646673E+04</pdfrwt>
<totfact> 0.60288906E+01</totfact>
</mgrwt>
</event>
<event>
12    5  0.5029243E-008  0.1785046E+04  0.7818608E-02  0.8714293E-01
         -2   -1    0    0    0  501 -0.00000000000E+00  0.00000000000E+00  0.42679099552E+03  0.42679099552E+03  0.00000000000E+00 0.  1.
          1   -1    0    0  501    0  0.00000000000E+00 -0.00000000000E+00 -0.18664806419E+04  0.18664806419E+04  0.00000000000E+00 0. -1.
        -24    2    1    2    0    0 -0.13640829308E+03 -0.57374629961E+03 -0.16211404875E+03  0.61684600811E+03  0.80162298993E+02 0.  0.
        254    2    1    2    0    0  0.13640829308E+03  0.57374629961E+03 -0.12775755977E+04  0.16764256294E+04  0.91126913931E+03 0.  0.
         23    2    4    4    0    0  0.88539862477E+02  0.61137495075E+03 -0.30071091992E+03  0.69327385165E+03  0.92644149136E+02 0.  0.
         23    2    4    4    0    0  0.47868430607E+02 -0.37628651136E+02 -0.97686467774E+03  0.98315177771E+03  0.92819811189E+02 0.  0.
          1    1    3    3  502    0 -0.25975636622E+02 -0.20919164237E+03 -0.89799965298E+02  0.22912858989E+03  0.00000000000E+00 0. -1.
         -2    1    3    3    0  502 -0.11043265646E+03 -0.36455465724E+03 -0.72314083453E+02  0.38771741822E+03  0.00000000000E+00 0.  1.
         13    1    5    5    0    0  0.39044705654E+02  0.32162641838E+03 -0.10682922577E+03  0.34114590063E+03  0.00000000000E+00 0. -1.
        -13    1    5    5    0    0  0.49495156823E+02  0.28974853237E+03 -0.19388169416E+03  0.35212795102E+03  0.00000000000E+00 0.  1.
          3    1    6    6  503    0  0.10599706982E+02  0.12622441823E+02 -0.65805673009E+03  0.65826312356E+03  0.00000000000E+00 0. -1.
         -3    1    6    6    0  503  0.37268723625E+02 -0.50251092960E+02 -0.31880794765E+03  0.32488865414E+03  0.00000000000E+00 0.  1.
<mgrwt>
<rscale>  0 0.17850458E+04</rscale>
<asrwt>0</asrwt>
<pdfrwt beam="1">  1        1 0.28715086E+00 0.17850458E+04</pdfrwt>
<pdfrwt beam="2">  1       -2 0.65660154E-01 0.17850458E+04</pdfrwt>
<totfact> 0.65058718E+00</totfact>
</mgrwt>
</event>
<event>
12    5  0.5029243E-008  0.2345942E+04  0.7818608E-02  0.8460024E-01
         -2   -1    0    0    0  501 -0.00000000000E+00  0.00000000000E+00  0.95282995540E+03  0.95282995540E+03  0.00000000000E+00 0.  1.
          1   -1    0    0  501    0  0.00000000000E+00 -0.00000000000E+00 -0.14439731302E+04  0.14439731302E+04  0.00000000000E+00 0. -1.
        -24    2    1    2    0    0  0.23036145412E+03 -0.16692373876E+03 -0.11861612370E+04  0.12223611465E+04  0.79109786939E+02 0.  0.
        254    2    1    2    0    0 -0.23036145412E+03  0.16692373876E+03  0.69501806216E+03  0.11744419391E+04  0.90295837523E+03 0.  0.
         23    2    4    4    0    0 -0.35145209610E+03 -0.18649605910E+03  0.67573077142E+03  0.78901341543E+03  0.87354097614E+02 0.  0.
         23    2    4    4    0    0  0.12109064198E+03  0.35341979786E+03  0.19287290733E+02  0.38542852363E+03  0.92815139665E+02 0.  0.
          3    1    3    3  502    0  0.10872752893E+03 -0.12685895044E+03 -0.65297435702E+03  0.67401066740E+03  0.00000000000E+00 0. -1.
         -4    1    3    3    0  502  0.12163392519E+03 -0.40064788320E+02 -0.53318687994E+03  0.54835047913E+03  0.00000000000E+00 0.  1.
         13    1    5    5    0    0 -0.58718925987E+02  0.12880145022E+01  0.80913527313E+02  0.99982849293E+02  0.00000000000E+00 0. -1.
        -13    1    5    5    0    0 -0.29273317011E+03 -0.18778407360E+03  0.59481724411E+03  0.68903056614E+03  0.00000000000E+00 0.  1.
          3    1    6    6  503    0  0.40912135524E+02  0.11383675072E+03  0.50066977410E+02  0.13091719091E+03  0.00000000000E+00 0. -1.
         -3    1    6    6    0  503  0.80178506452E+02  0.23958304714E+03 -0.30779686677E+02  0.25451133272E+03  0.00000000000E+00 0.  1.
<mgrwt>
<rscale>  0 0.23459419E+04</rscale>
<asrwt>0</asrwt>
<pdfrwt beam="1">  1        1 0.22214971E+00 0.23459419E+04</pdfrwt>
<pdfrwt beam="2">  1       -2 0.14658922E+00 0.23459419E+04</pdfrwt>
<totfact> 0.18010857E+00</totfact>
</mgrwt>
</event>
<event>
12    5  0.5029243E-008  0.1546305E+04  0.7818608E-02  0.8854231E-01
          1   -1    0    0  501    0  0.00000000000E+00  0.00000000000E+00  0.46167485481E+03  0.46167485481E+03  0.00000000000E+00 0. -1.
         -2   -1    0    0    0  501 -0.00000000000E+00 -0.00000000000E+00 -0.12947744393E+04  0.12947744393E+04  0.00000000000E+00 0.  1.
        -24    2    1    2    0    0 -0.18437835007E+03  0.69353435302E+02  0.25956723232E+03  0.33503861390E+03  0.77913091017E+02 0.  0.
        254    2    1    2    0    0  0.18437835007E+03 -0.69353435302E+02 -0.10926668168E+04  0.14214106802E+04  0.88751466147E+03 0.  0.
         23    2    4    4    0    0  0.34039090545E+03 -0.35128100380E+03 -0.91721735445E+03  0.10433766476E+04  0.89904622820E+02 0.  0.
         23    2    4    4    0    0 -0.15601255538E+03  0.28192756850E+03 -0.17544946239E+03  0.37803403269E+03  0.91127079964E+02 0.  0.
          3    1    3    3  502    0 -0.10737226030E+03  0.77814456038E+02  0.18411718621E+03  0.22689872214E+03  0.00000000000E+00 0. -1.
         -4    1    3    3    0  502 -0.77006089772E+02 -0.84610207358E+01  0.75450046109E+02  0.10813989177E+03  0.00000000000E+00 0.  1.
         13    1    5    5    0    0  0.44661894513E+02 -0.44609969044E+02 -0.65024609834E+02  0.90625239550E+02  0.00000000000E+00 0. -1.
        -13    1    5    5    0    0  0.29572901094E+03 -0.30667103476E+03 -0.85219274462E+03  0.95275140800E+03  0.00000000000E+00 0.  1.
          1    1    6    6  503    0 -0.44332917114E+02  0.28069947917E+02 -0.54831806500E+01  0.52757888376E+02  0.00000000000E+00 0. -1.
         -1    1    6    6    0  503 -0.11167963827E+03  0.25385762058E+03 -0.16996628174E+03  0.32527614432E+03  0.00000000000E+00 0.  1.
<mgrwt>
<rscale>  0 0.15463050E+04</rscale>
<asrwt>0</asrwt>
<pdfrwt beam="1">  1        1 0.71026901E-01 0.15463050E+04</pdfrwt>
<pdfrwt beam="2">  1       -2 0.19919607E+00 0.15463050E+04</pdfrwt>
<totfact> 0.56053696E+00</totfact>
</mgrwt>
</event>
<event>
12    5  0.5029243E-008  0.1460941E+04  0.7818608E-02  0.8910850E-01
         -2   -1    0    0    0  501 -0.00000000000E+00  0.00000000000E+00  0.16328580232E+04  0.16328580232E+04  0.00000000000E+00 0.  1.
          1   -1    0    0  501    0  0.00000000000E+00 -0.00000000000E+00 -0.32678118524E+03  0.32678118524E+03  0.00000000000E+00 0. -1.
        -24    2    1    2    0    0 -0.26440288505E+03 -0.32745610584E+03  0.19536749854E+03  0.47102886287E+03  0.81014463469E+02 0.  0.
        254    2    1    2    0    0  0.26440288505E+03  0.32745610584E+03  0.11107093394E+04  0.14886103456E+04  0.89730102943E+03 0.  0.
         23    2    4    4    0    0  0.24228593890E+03  0.52246321495E+03  0.11335555964E+04  0.12746011697E+04  0.89384363733E+02 0.  0.
         23    2    4    4    0    0  0.22116946153E+02 -0.19500710911E+03 -0.22846257003E+02  0.21400917587E+03  0.82225567735E+02 0.  0.
          3    1    3    3  502    0 -0.13729874080E+03 -0.19774162420E+03  0.71238065413E+02  0.25105289508E+03  0.00000000000E+00 0. -1.
         -4    1    3    3    0  502 -0.12710414425E+03 -0.12971448165E+03  0.12412943313E+03  0.21997596779E+03  0.00000000000E+00 0.  1.
         13    1    5    5    0    0  0.24852343247E+03  0.50984501922E+03  0.11178381133E+04  0.12535022488E+04  0.00000000000E+00 0.  1.
        -13    1    5    5    0    0 -0.62374935702E+01  0.12618195725E+02  0.15717483140E+02  0.21098920959E+02  0.00000000000E+00 0. -1.
          3    1    6    6  503    0  0.30868659276E+02 -0.76352324546E+02  0.24552371412E+02  0.85938178542E+02  0.00000000000E+00 0. -1.
         -3    1    6    6    0  503 -0.87517131232E+01 -0.11865478456E+03 -0.47398628415E+02  0.12807099733E+03  0.00000000000E+00 0.  1.
<mgrwt>
<rscale>  0 0.14609412E+04</rscale>
<asrwt>0</asrwt>
<pdfrwt beam="1">  1        1 0.50274030E-01 0.14609412E+04</pdfrwt>
<pdfrwt beam="2">  1       -2 0.25120892E+00 0.14609412E+04</pdfrwt>
<totfact> 0.42007005E+00</totfact>
</mgrwt>
</event>
<event>
12    5  0.5029243E-008  0.1200221E+04  0.7818608E-02  0.9112663E-01
          1   -1    0    0  501    0  0.00000000000E+00  0.00000000000E+00  0.16066362423E+03  0.16066362423E+03  0.00000000000E+00 0. -1.
         -2   -1    0    0    0  501 -0.00000000000E+00 -0.00000000000E+00 -0.22415335648E+04  0.22415335648E+04  0.00000000000E+00 0.  1.
        -24    2    1    2    0    0  0.25055355435E+03 -0.10159727333E+03 -0.63181256025E+03  0.69079847305E+03  0.70116542523E+02 0.  0.
        254    2    1    2    0    0 -0.25055355435E+03  0.10159727333E+03 -0.14490573803E+04  0.17113987160E+04  0.86949363658E+03 0.  0.
         23    2    4    4    0    0 -0.44747501850E+03  0.34159085499E+03 -0.76589461037E+03  0.95526366464E+03  0.94952147954E+02 0.  0.
         23    2    4    4    0    0  0.19692146415E+03 -0.23999358166E+03 -0.68316276992E+03  0.75613505132E+03  0.93026143303E+02 0.  0.
          1    1    3    3  502    0  0.23549823990E+03 -0.93967368180E+02 -0.52919407906E+03  0.58680121046E+03  0.00000000000E+00 0. -1.
         -2    1    3    3    0  502  0.15055314445E+02 -0.76299051489E+01 -0.10261848118E+03  0.10399726259E+03  0.00000000000E+00 0.  1.
         13    1    5    5    0    0 -0.23625935164E+03  0.20075513535E+03 -0.49441199343E+03  0.58357889343E+03  0.00000000000E+00 0.  1.
        -13    1    5    5    0    0 -0.21121566686E+03  0.14083571964E+03 -0.27148261694E+03  0.37168477122E+03  0.00000000000E+00 0. -1.
          3    1    6    6  503    0  0.17649080763E+03 -0.19758657020E+03 -0.63834578642E+03  0.69114021800E+03  0.00000000000E+00 0. -1.
         -3    1    6    6    0  503  0.20430656522E+02 -0.42407011464E+02 -0.44816983504E+02  0.64994833315E+02  0.00000000000E+00 0.  1.
<mgrwt>
<rscale>  0 0.12002215E+04</rscale>
<asrwt>0</asrwt>
<pdfrwt beam="1">  1        1 0.24717481E-01 0.12002215E+04</pdfrwt>
<pdfrwt beam="2">  1       -2 0.34485131E+00 0.12002215E+04</pdfrwt>
<totfact> 0.29052138E+00</totfact>
</mgrwt>
</event>
<event>
12    5  0.5029243E-008  0.1847486E+04  0.7818608E-02  0.8681447E-01
         -4   -1    0    0    0  501 -0.00000000000E+00  0.00000000000E+00  0.42043943420E+03  0.42043943420E+03  0.00000000000E+00 0.  1.
          1   -1    0    0  501    0  0.00000000000E+00 -0.00000000000E+00 -0.20295455311E+04  0.20295455311E+04  0.00000000000E+00 0. -1.
        -24    2    1    2    0    0 -0.43384015381E+03 -0.23401498426E+03 -0.12698466763E+04  0.13645616447E+04  0.80855483115E+02 0.  0.
        254    2    1    2    0    0  0.43384015381E+03  0.23401498426E+03 -0.33925942069E+03  0.10854233206E+04  0.90557525280E+03 0.  0.
         23    2    4    4    0    0  0.57097002931E+03  0.64047764793E+02 -0.52789980795E+03  0.78489640784E+03  0.85295212394E+02 0.  0.
         23    2    4    4    0    0 -0.13712987549E+03  0.16996721946E+03  0.18864038726E+03  0.30052691278E+03  0.83891424782E+02 0.  0.
          3    1    3    3  502    0 -0.31366322454E+03 -0.12631264820E+03 -0.86016222381E+03  0.92423944668E+03  0.00000000000E+00 0. -1.
         -4    1    3    3    0  502 -0.12017692927E+03 -0.10770233605E+03 -0.40968445244E+03  0.44032219805E+03  0.00000000000E+00 0.  1.
         13    1    5    5    0    0  0.13250223300E+02 -0.11395581276E+01 -0.36056657208E+02  0.38431101198E+02  0.00000000000E+00 0.  1.
        -13    1    5    5    0    0  0.55771980601E+03  0.65187322920E+02 -0.49184315074E+03  0.74646530664E+03  0.00000000000E+00 0. -1.
          2    1    6    6  503    0 -0.99170383622E+02  0.72080533151E+02  0.13592556924E+03  0.18304679352E+03  0.00000000000E+00 0. -1.
         -2    1    6    6    0  503 -0.37959491870E+02  0.97886686312E+02  0.52714818027E+02  0.11748011925E+03  0.00000000000E+00 0.  1.
<mgrwt>
<rscale>  0 0.18474858E+04</rscale>
<asrwt>0</asrwt>
<pdfrwt beam="1">  1        1 0.31223777E+00 0.18474858E+04</pdfrwt>
<pdfrwt beam="2">  1       -4 0.64682990E-01 0.18474858E+04</pdfrwt>
<totfact> 0.29394252E+00</totfact>
</mgrwt>
</event>
<event>
12    5  0.5029243E-008  0.1653383E+04  0.7818608E-02  0.8788408E-01
          1   -1    0    0  501    0  0.00000000000E+00  0.00000000000E+00  0.52740951060E+03  0.52740951060E+03  0.00000000000E+00 0. -1.
         -2   -1    0    0    0  501 -0.00000000000E+00 -0.00000000000E+00 -0.12958025803E+04  0.12958025803E+04  0.00000000000E+00 0.  1.
        -24    2    1    2    0    0 -0.54087009890E+03  0.67353885826E+02 -0.56974716789E+02  0.55396279858E+03  0.80942288288E+02 0.  0.
        254    2    1    2    0    0  0.54087009890E+03 -0.67353885826E+02 -0.71141835288E+03  0.12692492923E+04  0.89877732688E+03 0.  0.
         23    2    4    4    0    0 -0.74633868628E+02  0.55509364843E+02  0.15084057173E+03  0.19880669355E+03  0.90109485554E+02 0.  0.
         23    2    4    4    0    0  0.61550396753E+03 -0.12286325067E+03 -0.86225892461E+03  0.10704425987E+04  0.91740894361E+02 0.  0.
          3    1    3    3  502    0 -0.15494763151E+03  0.49715406599E+02  0.44280545908E+01  0.16278819930E+03  0.00000000000E+00 0. -1.
         -4    1    3    3    0  502 -0.38592246739E+03  0.17638479226E+02 -0.61402771380E+02  0.39117459928E+03  0.00000000000E+00 0.  1.
         13    1    5    5    0    0 -0.49761999415E+02 -0.68013017650E+01  0.10826255810E+03  0.11934527967E+03  0.00000000000E+00 0.  1.
        -13    1    5    5    0    0 -0.24871869213E+02  0.62310666608E+02  0.42578013628E+02  0.79461413880E+02  0.00000000000E+00 0. -1.
          3    1    6    6  503    0  0.39966235385E+02 -0.89521000704E+00 -0.98951682276E+02  0.10672177284E+03  0.00000000000E+00 0. -1.
         -3    1    6    6    0  503  0.57553773215E+03 -0.12196804066E+03 -0.76330724233E+03  0.96372082590E+03  0.00000000000E+00 0.  1.
<mgrwt>
<rscale>  0 0.16533827E+04</rscale>
<asrwt>0</asrwt>
<pdfrwt beam="1">  1        1 0.81139925E-01 0.16533827E+04</pdfrwt>
<pdfrwt beam="2">  1       -2 0.19935424E+00 0.16533827E+04</pdfrwt>
<totfact> 0.46152728E+00</totfact>
</mgrwt>
</event>
<event>
12    5  0.5029243E-008  0.2219332E+04  0.7818608E-02  0.8510425E-01
          3   -1    0    0  501    0  0.00000000000E+00  0.00000000000E+00  0.38870242390E+04  0.38870242390E+04  0.00000000000E+00 0. -1.
         -4   -1    0    0    0  501 -0.00000000000E+00 -0.00000000000E+00 -0.31678684620E+03  0.31678684620E+03  0.00000000000E+00 0.  1.
        -24    2    1    2    0    0  0.74013928856E+03 -0.16699501060E+03  0.25194756060E+04  0.26325046377E+04  0.81423816618E+02 0.  0.
        254    2    1    2    0    0 -0.74013928856E+03  0.16699501060E+03  0.10507617867E+04  0.15713064475E+04  0.88837498809E+03 0.  0.
         23    2    4    4    0    0 -0.82610064228E+03 -0.11388316124E+03  0.62611911922E+03  0.10467179525E+04  0.90452612463E+02 0.  0.
         23    2    4    4    0    0  0.85961353718E+02  0.28087817184E+03  0.42464266750E+03  0.52458849496E+03  0.92681132044E+02 0.  0.
          1    1    3    3  502    0  0.51819809531E+03 -0.15083275371E+03  0.17256269438E+04  0.18080564523E+04  0.00000000000E+00 0. -1.
         -2    1    3    3    0  502  0.22194119325E+03 -0.16162256887E+02  0.79384866224E+03  0.82444818537E+03  0.00000000000E+00 0.  1.
         13    1    5    5    0    0 -0.77697747060E+03 -0.12450088028E+03  0.57171083861E+03  0.97264985580E+03  0.00000000000E+00 0.  1.
        -13    1    5    5    0    0 -0.49123171682E+02  0.10617719038E+02  0.54408280609E+02  0.74068096725E+02  0.00000000000E+00 0. -1.
          3    1    6    6  503    0 -0.12634249820E+02  0.49468431957E+02  0.39370824159E+02  0.64473341962E+02  0.00000000000E+00 0. -1.
         -3    1    6    6    0  503  0.98595603539E+02  0.23140973989E+03  0.38527184334E+03  0.46011515300E+03  0.00000000000E+00 0.  1.
<mgrwt>
<rscale>  0 0.22193316E+04</rscale>
<asrwt>0</asrwt>
<pdfrwt beam="1">  1        3 0.59800369E+00 0.22193316E+04</pdfrwt>
<pdfrwt beam="2">  1       -4 0.48736441E-01 0.22193316E+04</pdfrwt>
<totfact> 0.98783209E-03</totfact>
</mgrwt>
</event>
<event>
12    5  0.5029243E-008  0.2271405E+04  0.7818608E-02  0.8489282E-01
         -2   -1    0    0    0  501 -0.00000000000E+00  0.00000000000E+00  0.11314157547E+04  0.11314157547E+04  0.00000000000E+00 0.  1.
          1   -1    0    0  501    0  0.00000000000E+00 -0.00000000000E+00 -0.11400053252E+04  0.11400053252E+04  0.00000000000E+00 0. -1.
        -24    2    1    2    0    0  0.83527034771E+03 -0.13065109703E+03 -0.45545427127E+03  0.96400572192E+03  0.84392984114E+02 0.  0.
        254    2    1    2    0    0 -0.83527034771E+03  0.13065109703E+03  0.44686470076E+03  0.13074153581E+04  0.89157197959E+03 0.  0.
         23    2    4    4    0    0  0.48602967711E+02  0.21623395454E+03 -0.10105691929E+03  0.26000303905E+03  0.90937933836E+02 0.  0.
         23    2    4    4    0    0 -0.88387331542E+03 -0.85582857516E+02  0.54792162005E+03  0.10474123190E+04  0.91093364711E+02 0.  0.
          1    1    3    3  502    0  0.70290168301E+03 -0.90397409787E+02 -0.40797143652E+03  0.81773049393E+03  0.00000000000E+00 0. -1.
         -2    1    3    3    0  502  0.13236866469E+03 -0.40253687241E+02 -0.47482834742E+02  0.14627522799E+03  0.00000000000E+00 0.  1.
         13    1    5    5    0    0  0.43041998956E+02  0.53495748422E+02 -0.62090551438E+02  0.92572378986E+02  0.00000000000E+00 0.  1.
        -13    1    5    5    0    0  0.55609687547E+01  0.16273820612E+03 -0.38966367850E+02  0.16743066006E+03  0.00000000000E+00 0. -1.
          1    1    6    6  503    0 -0.62834084838E+03 -0.10201669928E+03  0.38636054883E+03  0.74464360762E+03  0.00000000000E+00 0. -1.
         -1    1    6    6    0  503 -0.25553246703E+03  0.16433841767E+02  0.16156107121E+03  0.30276871139E+03  0.00000000000E+00 0.  1.
<mgrwt>
<rscale>  0 0.22714048E+04</rscale>
<asrwt>0</asrwt>
<pdfrwt beam="1">  1        1 0.17538543E+00 0.22714048E+04</pdfrwt>
<pdfrwt beam="2">  1       -2 0.17406396E+00 0.22714048E+04</pdfrwt>
<totfact> 0.18760863E+00</totfact>
</mgrwt>
</event>
<event>
12    5  0.5029243E-008  0.2960482E+04  0.7818608E-02  0.8255106E-01
          1   -1    0    0  501    0  0.00000000000E+00  0.00000000000E+00  0.97887644600E+03  0.97887644600E+03  0.00000000000E+00 0. -1.
         -2   -1    0    0    0  501 -0.00000000000E+00 -0.00000000000E+00 -0.22383970498E+04  0.22383970498E+04  0.00000000000E+00 0.  1.
        -24    2    1    2    0    0  0.77237980098E+01 -0.92093080033E+03  0.49230345101E+03  0.10473478587E+04  0.80010331280E+02 0.  0.
        254    2    1    2    0    0 -0.77237980098E+01  0.92093080033E+03 -0.17518240548E+04  0.21699256371E+04  0.88967216189E+03 0.  0.
         23    2    4    4    0    0 -0.13305880855E+03 -0.12272203085E+03 -0.15283921444E+03  0.25436352330E+03  0.92604714383E+02 0.  0.
         23    2    4    4    0    0  0.12533501054E+03  0.10436528312E+04 -0.15989848403E+04  0.19155621138E+04  0.87781520436E+02 0.  0.
          1    1    3    3  502    0  0.12923499947E+02 -0.74736452089E+03  0.36367855970E+03  0.83125377516E+03  0.00000000000E+00 0. -1.
         -2    1    3    3    0  502 -0.51997019367E+01 -0.17356627945E+03  0.12862489130E+03  0.21609408350E+03  0.00000000000E+00 0.  1.
         13    1    5    5    0    0  0.99952127359E+01  0.29183688541E+01 -0.32825919329E+00  0.10417720888E+02  0.00000000000E+00 0. -1.
        -13    1    5    5    0    0 -0.14305402129E+03 -0.12564039971E+03 -0.15251095525E+03  0.24394580241E+03  0.00000000000E+00 0.  1.
          2    1    6    6  503    0 -0.80419017317E+01  0.24206955023E+03 -0.36929511359E+03  0.44163471359E+03  0.00000000000E+00 0. -1.
         -2    1    6    6    0  503  0.13337691227E+03  0.80158328096E+03 -0.12296897268E+04  0.14739274002E+04  0.00000000000E+00 0.  1.
<mgrwt>
<rscale>  0 0.29604825E+04</rscale>
<asrwt>0</asrwt>
<pdfrwt beam="1">  1        1 0.15059638E+00 0.29604825E+04</pdfrwt>
<pdfrwt beam="2">  1       -2 0.34436877E+00 0.29604825E+04</pdfrwt>
<totfact> 0.19880594E-01</totfact>
</mgrwt>
</event>
<event>
12    5  0.5029243E-008  0.1426609E+04  0.7818608E-02  0.8934780E-01
          1   -1    0    0  501    0  0.00000000000E+00  0.00000000000E+00  0.22045116604E+04  0.22045116604E+04  0.00000000000E+00 0. -1.
         -2   -1    0    0    0  501 -0.00000000000E+00 -0.00000000000E+00 -0.23080096017E+03  0.23080096017E+03  0.00000000000E+00 0.  1.
        -24    2    1    2    0    0  0.48072383221E+02 -0.41308936292E+03  0.52971289069E+03  0.67805704299E+03  0.78815171153E+02 0.  0.
        254    2    1    2    0    0 -0.48072383221E+02  0.41308936292E+03  0.14439978095E+04  0.17572555775E+04  0.91096855882E+03 0.  0.
         23    2    4    4    0    0  0.91398563778E+02 -0.23037574803E+03  0.75500109947E+03  0.79992166138E+03  0.91767757966E+02 0.  0.
         23    2    4    4    0    0 -0.13947094700E+03  0.64346511095E+03  0.68899671004E+03  0.95733391616E+03  0.90952001202E+02 0.  0.
          3    1    3    3  502    0  0.52115729695E+02 -0.30777550150E+03  0.44099988564E+03  0.54029872084E+03  0.00000000000E+00 0. -1.
         -4    1    3    3    0  502 -0.40433464739E+01 -0.10531386142E+03  0.88713005048E+02  0.13775832215E+03  0.00000000000E+00 0.  1.
         13    1    5    5    0    0  0.96042405191E+02 -0.12558108135E+03  0.49182287934E+03  0.51660864900E+03  0.00000000000E+00 0. -1.
        -13    1    5    5    0    0 -0.46438414131E+01 -0.10479466669E+03  0.26317822013E+03  0.28331301238E+03  0.00000000000E+00 0.  1.
          1    1    6    6  503    0 -0.13400740980E+03  0.58259532946E+03  0.65728710485E+03  0.88848277530E+03  0.00000000000E+00 0. -1.
         -1    1    6    6    0  503 -0.54635372023E+01  0.60869781494E+02  0.31709605181E+02  0.68851140867E+02  0.00000000000E+00 0.  1.
<mgrwt>
<rscale>  0 0.14266091E+04</rscale>
<asrwt>0</asrwt>
<pdfrwt beam="1">  1        1 0.33915563E+00 0.14266091E+04</pdfrwt>
<pdfrwt beam="2">  1       -2 0.35507842E-01 0.14266091E+04</pdfrwt>
<totfact> 0.13793479E+01</totfact>
</mgrwt>
</event>
<event>
12    5  0.5029243E-008  0.1066456E+04  0.7818608E-02  0.9238517E-01
         -4   -1    0    0    0  501 -0.00000000000E+00  0.00000000000E+00  0.57340743009E+03  0.57340743009E+03  0.00000000000E+00 0.  1.
          3   -1    0    0  501    0  0.00000000000E+00 -0.00000000000E+00 -0.49586440788E+03  0.49586440788E+03  0.00000000000E+00 0. -1.
        -24    2    1    2    0    0 -0.67031972478E+02  0.12608035526E+03 -0.23440269396E+02  0.16491922721E+03  0.79116142204E+02 0.  0.
        254    2    1    2    0    0  0.67031972478E+02 -0.12608035526E+03  0.10098329161E+03  0.90435261075E+03  0.88728038301E+03 0.  0.
         23    2    4    4    0    0 -0.38618111184E+03 -0.16455720995E+03 -0.30339119292E+01  0.42952044119E+03  0.90904775935E+02 0.  0.
         23    2    4    4    0    0  0.45321308432E+03  0.38476854692E+02  0.10401720354E+03  0.47483216957E+03  0.88110399399E+02 0.  0.
          3    1    3    3  502    0 -0.54019574991E+02  0.12002526347E+03  0.64315991279E+01  0.13177838905E+03  0.00000000000E+00 0. -1.
         -4    1    3    3    0  502 -0.13012397488E+02  0.60550917931E+01 -0.29871868524E+02  0.33140838163E+02  0.00000000000E+00 0.  1.
         13    1    5    5    0    0 -0.94970654262E+02 -0.53372274664E+02 -0.39060684605E+02  0.11573142164E+03  0.00000000000E+00 0. -1.
        -13    1    5    5    0    0 -0.29121045757E+03 -0.11118493529E+03  0.36026772675E+02  0.31378901954E+03  0.00000000000E+00 0.  1.
          1    1    6    6  503    0  0.41795120902E+03  0.34703070580E+02  0.11958022872E+03  0.43610428492E+03  0.00000000000E+00 0. -1.
         -1    1    6    6    0  503  0.35261875299E+02  0.37737841125E+01 -0.15563025186E+02  0.38727884645E+02  0.00000000000E+00 0.  1.
<mgrwt>
<rscale>  0 0.10664564E+04</rscale>
<asrwt>0</asrwt>
<pdfrwt beam="1">  1        3 0.76286832E-01 0.10664564E+04</pdfrwt>
<pdfrwt beam="2">  1       -4 0.88216528E-01 0.10664564E+04</pdfrwt>
<totfact> 0.40738237E+00</totfact>
</mgrwt>
</event>
<event>
12    5  0.5029243E-008  0.1801087E+04  0.7818608E-02  0.8705721E-01
         -2   -1    0    0    0  501 -0.00000000000E+00  0.00000000000E+00  0.84804023655E+03  0.84804023655E+03  0.00000000000E+00 0.  1.
          1   -1    0    0  501    0  0.00000000000E+00 -0.00000000000E+00 -0.95629770034E+03  0.95629770034E+03  0.00000000000E+00 0. -1.
        -24    2    1    2    0    0  0.81394853078E+02  0.72565219707E+02 -0.71116273601E+03  0.72386415344E+03  0.79599260807E+02 0.  0.
        254    2    1    2    0    0 -0.81394853078E+02 -0.72565219707E+02  0.60290527222E+03  0.10804737835E+04  0.88996516575E+03 0.  0.
         23    2    4    4    0    0 -0.11786958454E+03  0.31364760040E+03  0.58625803031E+03  0.68138663510E+03  0.91220678519E+02 0.  0.
         23    2    4    4    0    0  0.36474731462E+02 -0.38621282011E+03  0.16647241905E+02  0.39908714835E+03  0.92209939078E+02 0.  0.
          1    1    3    3  502    0 -0.10660898809E+01  0.99069558398E+01 -0.28941842008E+03  0.28958989313E+03  0.00000000000E+00 0. -1.
         -2    1    3    3    0  502  0.82460942959E+02  0.62658263867E+02 -0.42174431594E+03  0.43427426031E+03  0.00000000000E+00 0.  1.
         13    1    5    5    0    0 -0.43473045883E+02  0.28923501954E+02  0.10540220404E+03  0.11762694972E+03  0.00000000000E+00 0.  1.
        -13    1    5    5    0    0 -0.74396538657E+02  0.28472409845E+03  0.48085582628E+03  0.56375968539E+03  0.00000000000E+00 0. -1.
          1    1    6    6  503    0  0.40522595041E+02 -0.26110695609E+03 -0.29072831443E+02  0.26582729875E+03  0.00000000000E+00 0. -1.
         -1    1    6    6    0  503 -0.40478635791E+01 -0.12510586402E+03  0.45720073348E+02  0.13325984961E+03  0.00000000000E+00 0.  1.
<mgrwt>
<rscale>  0 0.18010874E+04</rscale>
<asrwt>0</asrwt>
<pdfrwt beam="1">  1        1 0.14712272E+00 0.18010874E+04</pdfrwt>
<pdfrwt beam="2">  1       -2 0.13046773E+00 0.18010874E+04</pdfrwt>
<totfact> 0.58306284E+00</totfact>
</mgrwt>
</event>
<event>
12    5  0.5029243E-008  0.1551184E+04  0.7818608E-02  0.8851112E-01
          1   -1    0    0  501    0  0.00000000000E+00  0.00000000000E+00  0.12315873720E+04  0.12315873720E+04  0.00000000000E+00 0. -1.
         -2   -1    0    0    0  501 -0.00000000000E+00 -0.00000000000E+00 -0.48842876820E+03  0.48842876820E+03  0.00000000000E+00 0.  1.
        -24    2    1    2    0    0  0.20906616621E+03 -0.14186786207E+03 -0.22090589833E+03  0.34382868509E+03  0.74723467762E+02 0.  0.
        254    2    1    2    0    0 -0.20906616621E+03  0.14186786207E+03  0.96406450209E+03  0.13761874551E+04  0.94901864847E+03 0.  0.
         23    2    4    4    0    0 -0.41838018578E+03 -0.15074653969E+02  0.10090434908E+04  0.10963420586E+04  0.92346727864E+02 0.  0.
         23    2    4    4    0    0  0.20931401957E+03  0.15694251604E+03 -0.44978988698E+02  0.27984539645E+03  0.88583431622E+02 0.  0.
          3    1    3    3  502    0  0.40363831517E+02  0.30494576395E+01 -0.42721623331E+02  0.58852996412E+02  0.00000000000E+00 0. -1.
         -4    1    3    3    0  502  0.16870233469E+03 -0.14491731971E+03 -0.17818427500E+03  0.28497568868E+03  0.00000000000E+00 0.  1.
         13    1    5    5    0    0 -0.40418003525E+03 -0.20221453424E+02  0.99989208505E+03  0.10786818761E+04  0.00000000000E+00 0. -1.
        -13    1    5    5    0    0 -0.14200150526E+02  0.51467994551E+01  0.91514057338E+01  0.17660182516E+02  0.00000000000E+00 0.  1.
          3    1    6    6  503    0  0.16083164314E+03  0.15174311532E+03 -0.59474526825E+02  0.22897600273E+03  0.00000000000E+00 0. -1.
         -3    1    6    6    0  503  0.48482376427E+02  0.51994007206E+01  0.14495538127E+02  0.50869393720E+02  0.00000000000E+00 0.  1.
<mgrwt>
<rscale>  0 0.15511837E+04</rscale>
<asrwt>0</asrwt>
<pdfrwt beam="1">  1        1 0.18947498E+00 0.15511837E+04</pdfrwt>
<pdfrwt beam="2">  1       -2 0.75142888E-01 0.15511837E+04</pdfrwt>
<totfact> 0.13615246E+01</totfact>
</mgrwt>
</event>
<event>
12    5  0.5029243E-008  0.1068100E+04  0.7818608E-02  0.9236854E-01
          1   -1    0    0  501    0  0.00000000000E+00  0.00000000000E+00  0.34703721798E+03  0.34703721798E+03  0.00000000000E+00 0. -1.
         -2   -1    0    0    0  501 -0.00000000000E+00 -0.00000000000E+00 -0.82184148319E+03  0.82184148319E+03  0.00000000000E+00 0.  1.
        -24    2    1    2    0    0 -0.25181888558E+02  0.96315774772E+01 -0.22360703038E+03  0.23816621852E+03  0.77434803624E+02 0.  0.
        254    2    1    2    0    0  0.25181888558E+02 -0.96315774772E+01 -0.25119723482E+03  0.93071248264E+03  0.89576714595E+03 0.  0.
         23    2    4    4    0    0  0.30869949453E+02  0.41492369906E+03  0.47241403430E+01  0.42672156585E+03  0.94627413794E+02 0.  0.
         23    2    4    4    0    0 -0.56880608946E+01 -0.42455527653E+03 -0.25592137517E+03  0.50399091679E+03  0.90727928843E+02 0.  0.
          1    1    3    3  502    0 -0.31737035168E+02  0.35413030000E+02 -0.88515395731E+02  0.10048033328E+03  0.00000000000E+00 0. -1.
         -2    1    3    3    0  502  0.65551466098E+01 -0.25781452523E+02 -0.13509163465E+03  0.13768588524E+03  0.00000000000E+00 0.  1.
         13    1    5    5    0    0 -0.12208031227E+02  0.28767863806E+03 -0.25369314126E+02  0.28905300020E+03  0.00000000000E+00 0.  1.
        -13    1    5    5    0    0  0.43077980680E+02  0.12724506099E+03  0.30093454469E+02  0.13766856565E+03  0.00000000000E+00 0. -1.
          3    1    6    6  503    0 -0.10918670566E+02 -0.34998417058E+03 -0.24743465297E+03  0.42875639297E+03  0.00000000000E+00 0. -1.
         -3    1    6    6    0  503  0.52306096710E+01 -0.74571105957E+02 -0.84867221958E+01  0.75234523823E+02  0.00000000000E+00 0.  1.
<mgrwt>
<rscale>  0 0.10681003E+04</rscale>
<asrwt>0</asrwt>
<pdfrwt beam="1">  1        1 0.53390342E-01 0.10681003E+04</pdfrwt>
<pdfrwt beam="2">  1       -2 0.12643715E+00 0.10681003E+04</pdfrwt>
<totfact> 0.29399863E+01</totfact>
</mgrwt>
</event>
<event>
12    5  0.5029243E-008  0.1270528E+04  0.7818608E-02  0.9053269E-01
          1   -1    0    0  501    0  0.00000000000E+00  0.00000000000E+00  0.94884578674E+03  0.94884578674E+03  0.00000000000E+00 0. -1.
         -2   -1    0    0    0  501 -0.00000000000E+00 -0.00000000000E+00 -0.42531721052E+03  0.42531721052E+03  0.00000000000E+00 0.  1.
        -24    2    1    2    0    0  0.26725657799E+03  0.14428791574E+03  0.85061952076E+02  0.32510867587E+03  0.78835489027E+02 0.  0.
        254    2    1    2    0    0 -0.26725657799E+03 -0.14428791574E+03  0.43846662414E+03  0.10490543214E+04  0.90333654173E+03 0.  0.
         23    2    4    4    0    0  0.20499765296E+03 -0.16446398156E+03 -0.12749853082E+03  0.30609087187E+03  0.91451121010E+02 0.  0.
         23    2    4    4    0    0 -0.47225423095E+03  0.20176065821E+02  0.56596515497E+03  0.74296344951E+03  0.90812985851E+02 0.  0.
          3    1    3    3  502    0  0.56515795620E+02  0.25818506432E+02  0.52154860990E+02  0.81121883323E+02  0.00000000000E+00 0. -1.
         -4    1    3    3    0  502  0.21074078237E+03  0.11846940930E+03  0.32907091086E+02  0.24398679255E+03  0.00000000000E+00 0.  1.
         13    1    5    5    0    0  0.18089158002E+03 -0.14798761873E+03 -0.14201947046E+03  0.27348058251E+03  0.00000000000E+00 0.  1.
        -13    1    5    5    0    0  0.24106072932E+02 -0.16476362830E+02  0.14520939637E+02  0.32610289361E+02  0.00000000000E+00 0. -1.
          4    1    6    6  503    0 -0.10969566394E+03 -0.25954648123E+02  0.17130457302E+03  0.20506593863E+03  0.00000000000E+00 0. -1.
         -4    1    6    6    0  503 -0.36255856701E+03  0.46130713944E+02  0.39466058194E+03  0.53789751089E+03  0.00000000000E+00 0.  1.
<mgrwt>
<rscale>  0 0.12705281E+04</rscale>
<asrwt>0</asrwt>
<pdfrwt beam="1">  1        1 0.14597627E+00 0.12705281E+04</pdfrwt>
<pdfrwt beam="2">  1       -2 0.65433417E-01 0.12705281E+04</pdfrwt>
<totfact> 0.30856959E+01</totfact>
</mgrwt>
</event>
<event>
12    5  0.5029243E-008  0.2705476E+04  0.7818608E-02  0.8333231E-01
         -2   -1    0    0    0  501 -0.00000000000E+00  0.00000000000E+00  0.11285105462E+04  0.11285105462E+04  0.00000000000E+00 0.  1.
          1   -1    0    0  501    0  0.00000000000E+00 -0.00000000000E+00 -0.16215174043E+04  0.16215174043E+04  0.00000000000E+00 0. -1.
        -24    2    1    2    0    0 -0.76135611324E+03  0.66453002875E+03 -0.86871010298E+03  0.13343715201E+04  0.68020735445E+02 0.  0.
        254    2    1    2    0    0  0.76135611324E+03 -0.66453002875E+03  0.37570324487E+03  0.14156564303E+04  0.91742406233E+03 0.  0.
         23    2    4    4    0    0  0.27238196868E+03 -0.33139786020E+03 -0.28609004417E+03  0.52349737787E+03  0.90473823058E+02 0.  0.
         23    2    4    4    0    0  0.48897414455E+03 -0.33313216855E+03  0.66179328903E+03  0.89215905242E+03  0.88908164038E+02 0.  0.
          3    1    3    3  502    0 -0.37397261392E+03  0.28247329287E+03 -0.39229275316E+03  0.61117941829E+03  0.00000000000E+00 0. -1.
         -4    1    3    3    0  502 -0.38738349931E+03  0.38205673588E+03 -0.47641734982E+03  0.72319210185E+03  0.00000000000E+00 0.  1.
         13    1    5    5    0    0  0.19264439471E+03 -0.26097490063E+03 -0.17069501331E+03  0.36654678983E+03  0.00000000000E+00 0.  1.
        -13    1    5    5    0    0  0.79737573976E+02 -0.70422959572E+02 -0.11539503086E+03  0.15695058804E+03  0.00000000000E+00 0. -1.
          3    1    6    6  503    0  0.69116319711E+02 -0.15677118342E+02  0.96786495556E+02  0.11996025764E+03  0.00000000000E+00 0.  1.
         -3    1    6    6    0  503  0.41985782484E+03 -0.31745505021E+03  0.56500679348E+03  0.77219879478E+03  0.00000000000E+00 0. -1.
<mgrwt>
<rscale>  0 0.27054756E+04</rscale>
<asrwt>0</asrwt>
<pdfrwt beam="1">  1        1 0.24946422E+00 0.27054756E+04</pdfrwt>
<pdfrwt beam="2">  1       -2 0.17361701E+00 0.27054756E+04</pdfrwt>
<totfact> 0.83085690E-01</totfact>
</mgrwt>
</event>
<event>
12    5  0.5029243E-008  0.1498860E+04  0.7818608E-02  0.8885211E-01
          1   -1    0    0  501    0  0.00000000000E+00  0.00000000000E+00  0.15803368857E+04  0.15803368857E+04  0.00000000000E+00 0. -1.
         -2   -1    0    0    0  501 -0.00000000000E+00 -0.00000000000E+00 -0.35539591742E+03  0.35539591742E+03  0.00000000000E+00 0.  1.
        -24    2    1    2    0    0  0.14600976680E+03  0.43810549892E+03  0.25774825009E+03  0.53477277393E+03  0.79325148191E+02 0.  0.
        254    2    1    2    0    0 -0.14600976680E+03 -0.43810549892E+03  0.96719271819E+03  0.14009600292E+04  0.90220395094E+03 0.  0.
         23    2    4    4    0    0 -0.23408260362E+03  0.99286933670E+02  0.76785362385E+03  0.81381356319E+03  0.89670326559E+02 0.  0.
         23    2    4    4    0    0  0.88072836826E+02 -0.53739243259E+03  0.19933909434E+03  0.58714646600E+03  0.91964377935E+02 0.  0.
          3    1    3    3  502    0  0.15095951321E+03  0.37708136331E+03  0.21079925513E+03  0.45761933433E+03  0.00000000000E+00 0. -1.
         -4    1    3    3    0  502 -0.49497464114E+01  0.61024135607E+02  0.46948994952E+02  0.77153439606E+02  0.00000000000E+00 0.  1.
         13    1    5    5    0    0 -0.16804188465E+03  0.25052489263E+02  0.50450967194E+03  0.53234923809E+03  0.00000000000E+00 0. -1.
        -13    1    5    5    0    0 -0.66040718969E+02  0.74234444408E+02  0.26334395191E+03  0.28146432510E+03  0.00000000000E+00 0.  1.
          2    1    6    6  503    0 -0.13117944115E+02 -0.17495314478E+03  0.51499227146E+02  0.18284653052E+03  0.00000000000E+00 0.  1.
         -2    1    6    6    0  503  0.10119078094E+03 -0.36243928781E+03  0.14783986719E+03  0.40429993548E+03  0.00000000000E+00 0. -1.
<mgrwt>
<rscale>  0 0.14988599E+04</rscale>
<asrwt>0</asrwt>
<pdfrwt beam="1">  1        1 0.24312875E+00 0.14988599E+04</pdfrwt>
<pdfrwt beam="2">  1       -2 0.54676296E-01 0.14988599E+04</pdfrwt>
<totfact> 0.15382330E+01</totfact>
</mgrwt>
</event>
<event>
12    5  0.5029243E-008  0.1550225E+04  0.7818608E-02  0.8851724E-01
          3   -1    0    0  501    0  0.00000000000E+00  0.00000000000E+00  0.67846815791E+03  0.67846815791E+03  0.00000000000E+00 0. -1.
         -4   -1    0    0    0  501 -0.00000000000E+00 -0.00000000000E+00 -0.88552359095E+03  0.88552359095E+03  0.00000000000E+00 0.  1.
        -24    2    1    2    0    0  0.42458286940E+03 -0.22273132252E+03  0.10672492763E+03  0.49758491325E+03  0.79502708747E+02 0.  0.
        254    2    1    2    0    0 -0.42458286940E+03  0.22273132252E+03 -0.31378036068E+03  0.10664068356E+04  0.89938065872E+03 0.  0.
         23    2    4    4    0    0 -0.57307426019E+03  0.41922927691E+03 -0.89378027513E+02  0.72148146857E+03  0.91541156745E+02 0.  0.
         23    2    4    4    0    0  0.14849139079E+03 -0.19649795439E+03 -0.22440233316E+03  0.34492536704E+03  0.89196202152E+02 0.  0.
          3    1    3    3  502    0  0.28029059683E+03 -0.14401853541E+03  0.31100154351E+02  0.31665655972E+03  0.00000000000E+00 0. -1.
         -4    1    3    3    0  502  0.14429227257E+03 -0.78712787108E+02  0.75624773279E+02  0.18092835353E+03  0.00000000000E+00 0.  1.
         13    1    5    5    0    0 -0.36766374415E+03  0.29987987794E+03 -0.23884580284E+02  0.47505267406E+03  0.00000000000E+00 0. -1.
        -13    1    5    5    0    0 -0.20541051604E+03  0.11934939897E+03 -0.65493447229E+02  0.24642879451E+03  0.00000000000E+00 0.  1.
          1    1    6    6  503    0  0.12197344779E+03 -0.92832523060E+02 -0.15099639970E+03  0.21516345421E+03  0.00000000000E+00 0. -1.
         -1    1    6    6    0  503  0.26517943001E+02 -0.10366543133E+03 -0.73405933462E+02  0.12976191283E+03  0.00000000000E+00 0.  1.
<mgrwt>
<rscale>  0 0.15502252E+04</rscale>
<asrwt>0</asrwt>
<pdfrwt beam="1">  1        3 0.10437972E+00 0.15502252E+04</pdfrwt>
<pdfrwt beam="2">  1       -4 0.13623440E+00 0.15502252E+04</pdfrwt>
<totfact> 0.66857548E-01</totfact>
</mgrwt>
</event>
<event>
12    5  0.5029243E-008  0.1418532E+04  0.7818608E-02  0.8940512E-01
          1   -1    0    0  501    0  0.00000000000E+00  0.00000000000E+00  0.11815123295E+04  0.11815123295E+04  0.00000000000E+00 0. -1.
         -2   -1    0    0    0  501 -0.00000000000E+00 -0.00000000000E+00 -0.42577509154E+03  0.42577509154E+03  0.00000000000E+00 0.  1.
        -24    2    1    2    0    0  0.34927242641E+03 -0.21070523892E+03  0.88044034980E+02  0.42410897247E+03  0.75688459363E+02 0.  0.
        254    2    1    2    0    0 -0.34927242641E+03  0.21070523892E+03  0.66769320300E+03  0.11831784486E+04  0.88752977544E+03 0.  0.
         23    2    4    4    0    0 -0.86526369568E+02 -0.31955230903E+03  0.39909482656E+03  0.52670615063E+03  0.92424010357E+02 0.  0.
         23    2    4    4    0    0 -0.26274605684E+03  0.53025754795E+03  0.26859837644E+03  0.65647229794E+03  0.92748221503E+02 0.  0.
          1    1    3    3  502    0  0.32406021537E+02 -0.68700783451E+01 -0.10351394901E+02  0.34705901295E+02  0.00000000000E+00 0. -1.
         -2    1    3    3    0  502  0.31686640487E+03 -0.20383516058E+03  0.98395429881E+02  0.38940307118E+03  0.00000000000E+00 0.  1.
         13    1    5    5    0    0 -0.99613808981E+02 -0.30402004886E+03  0.39005613105E+03  0.50447486203E+03  0.00000000000E+00 0. -1.
        -13    1    5    5    0    0  0.13087439414E+02 -0.15532260171E+02  0.90386955033E+01  0.22231288600E+02  0.00000000000E+00 0.  1.
          4    1    6    6  503    0 -0.26859399704E+03  0.51478713026E+03  0.26899842586E+03  0.63992865059E+03  0.00000000000E+00 0. -1.
         -4    1    6    6    0  503  0.58479402025E+01  0.15470417690E+02 -0.40004942049E+00  0.16543647350E+02  0.00000000000E+00 0.  1.
<mgrwt>
<rscale>  0 0.14185324E+04</rscale>
<asrwt>0</asrwt>
<pdfrwt beam="1">  1        1 0.18177113E+00 0.14185324E+04</pdfrwt>
<pdfrwt beam="2">  1       -2 0.65503861E-01 0.14185324E+04</pdfrwt>
<totfact> 0.20213684E+01</totfact>
</mgrwt>
</event>
<event>
12    5  0.5029243E-008  0.1284018E+04  0.7818608E-02  0.9042336E-01
         -2   -1    0    0    0  501 -0.00000000000E+00  0.00000000000E+00  0.75072065207E+03  0.75072065207E+03  0.00000000000E+00 0.  1.
          1   -1    0    0  501    0  0.00000000000E+00 -0.00000000000E+00 -0.54903976805E+03  0.54903976805E+03  0.00000000000E+00 0. -1.
        -24    2    1    2    0    0 -0.18016067671E+02 -0.18663455717E+03  0.31540024589E+03  0.37545268391E+03  0.79563597983E+02 0.  0.
        254    2    1    2    0    0  0.18016067671E+02  0.18663455717E+03 -0.11371936186E+03  0.92430773621E+03  0.89791740228E+03 0.  0.
         23    2    4    4    0    0 -0.38032389157E+03  0.19145228780E+03 -0.23862722629E+03  0.49654862852E+03  0.91199486585E+02 0.  0.
         23    2    4    4    0    0  0.39833995925E+03 -0.48177306264E+01  0.12490786443E+03  0.42775910768E+03  0.93155493393E+02 0.  0.
          3    1    3    3  502    0 -0.45617775098E+02 -0.68021637375E+02  0.12725134358E+03  0.15133019857E+03  0.00000000000E+00 0. -1.
         -2    1    3    3    0  502  0.27601707427E+02 -0.11861291980E+03  0.18814890231E+03  0.22412248534E+03  0.00000000000E+00 0.  1.
         13    1    5    5    0    0 -0.23523051130E+03  0.12089503787E+03 -0.19740335758E+03  0.33002589173E+03  0.00000000000E+00 0.  1.
        -13    1    5    5    0    0 -0.14509338028E+03  0.70557249928E+02 -0.41223868712E+02  0.16652273679E+03  0.00000000000E+00 0. -1.
          4    1    6    6  503    0  0.38823595932E+03 -0.85541684605E+00  0.10048009995E+03  0.40102885474E+03  0.00000000000E+00 0. -1.
         -4    1    6    6    0  503  0.10103999924E+02 -0.39623137804E+01  0.24427764479E+02  0.26730252943E+02  0.00000000000E+00 0.  1.
<mgrwt>
<rscale>  0 0.12840179E+04</rscale>
<asrwt>0</asrwt>
<pdfrwt beam="1">  1        1 0.84467657E-01 0.12840179E+04</pdfrwt>
<pdfrwt beam="2">  1       -2 0.11549548E+00 0.12840179E+04</pdfrwt>
<totfact> 0.19521730E+01</totfact>
</mgrwt>
</event>
<event>
12    5  0.5029243E-008  0.1898006E+04  0.7818608E-02  0.8655850E-01
         -2   -1    0    0    0  501 -0.00000000000E+00  0.00000000000E+00  0.26343140457E+03  0.26343140457E+03  0.00000000000E+00 0.  1.
          1   -1    0    0  501    0  0.00000000000E+00 -0.00000000000E+00 -0.34187508822E+04  0.34187508822E+04  0.00000000000E+00 0. -1.
        -24    2    1    2    0    0 -0.33106617307E+03  0.44946818966E+03 -0.30364348012E+03  0.64001628127E+03  0.76124981431E+02 0.  0.
        254    2    1    2    0    0  0.33106617307E+03 -0.44946818966E+03 -0.28516759975E+04  0.30421660055E+04  0.90060621014E+03 0.  0.
         23    2    4    4    0    0 -0.11259484836E+03 -0.25954085443E+03 -0.22308893806E+04  0.22506472020E+04  0.92229846291E+02 0.  0.
         23    2    4    4    0    0  0.44366102143E+03 -0.18992733523E+03 -0.62078661696E+03  0.79151880351E+03  0.90655931457E+02 0.  0.
          1    1    3    3  502    0 -0.86379856137E+02  0.10554764612E+03 -0.39094311584E+02  0.14188076102E+03  0.00000000000E+00 0. -1.
         -2    1    3    3    0  502 -0.24468631694E+03  0.34392054354E+03 -0.26454916853E+03  0.49813552025E+03  0.00000000000E+00 0.  1.
         13    1    5    5    0    0 -0.23076985107E+02 -0.16452499503E+03 -0.11622534365E+04  0.11740673200E+04  0.00000000000E+00 0. -1.
        -13    1    5    5    0    0 -0.89517863248E+02 -0.95015859397E+02 -0.10686359440E+04  0.10765798820E+04  0.00000000000E+00 0.  1.
          1    1    6    6  503    0  0.36622867465E+03 -0.15423466813E+03 -0.44803312404E+03  0.59887014888E+03  0.00000000000E+00 0. -1.
         -1    1    6    6    0  503  0.77432346783E+02 -0.35692667095E+02 -0.17275349292E+03  0.19264865462E+03  0.00000000000E+00 0.  1.
<mgrwt>
<rscale>  0 0.18980056E+04</rscale>
<asrwt>0</asrwt>
<pdfrwt beam="1">  1        1 0.52596169E+00 0.18980056E+04</pdfrwt>
<pdfrwt beam="2">  1       -2 0.40527907E-01 0.18980056E+04</pdfrwt>
<totfact> 0.13776323E+00</totfact>
</mgrwt>
</event>
<event>
12    5  0.6327633E-008  0.1677068E+04  0.7818608E-02  0.8774553E-01
          1   -1    0    0  501    0  0.00000000000E+00  0.00000000000E+00  0.19296568985E+04  0.19296568985E+04  0.00000000000E+00 0. -1.
         -2   -1    0    0    0  501 -0.00000000000E+00 -0.00000000000E+00 -0.36438543073E+03  0.36438543073E+03  0.00000000000E+00 0.  1.
        -24    2    1    2    0    0  0.27316029324E+03 -0.47085424826E+03  0.10941112885E+04  0.12262240628E+04  0.10112206394E+03 0.  0.
        254    2    1    2    0    0 -0.27316029324E+03  0.47085424826E+03  0.47116017936E+03  0.10678182665E+04  0.78862137091E+03 0.  0.
         23    2    4    4    0    0 -0.38451008160E+02  0.21069787900E+03  0.62958048640E+03  0.67273926905E+03  0.10165854131E+03 0.  0.
         23    2    4    4    0    0 -0.23470928508E+03  0.26015636926E+03 -0.15842030704E+03  0.39507899740E+03  0.90667720468E+02 0.  0.
          3    1    3    3  502    0  0.27403336335E+03 -0.47517708114E+03  0.10897719160E+04  0.12200370370E+04  0.00000000000E+00 0. -1.
         -4    1    3    3    0  502 -0.87307011126E+00  0.43228328816E+01  0.43393724180E+01  0.61870258221E+01  0.00000000000E+00 0.  1.
         13    1    5    5    0    0 -0.59895328596E+01 -0.98239223658E+01  0.14461940112E+02  0.18480575379E+02  0.00000000000E+00 0.  1.
        -13    1    5    5    0    0 -0.32461475300E+02  0.22052180136E+03  0.61511854629E+03  0.65425869367E+03  0.00000000000E+00 0. -1.
          2    1    6    6  503    0 -0.15083021495E+03  0.22445530006E+03 -0.12584184239E+03  0.29827186385E+03  0.00000000000E+00 0. -1.
         -2    1    6    6    0  503 -0.83879070127E+02  0.35701069198E+02 -0.32578464654E+02  0.96807133552E+02  0.00000000000E+00 0.  1.
<mgrwt>
<rscale>  0 0.16770675E+04</rscale>
<asrwt>0</asrwt>
<pdfrwt beam="1">  1        1 0.29687028E+00 0.16770675E+04</pdfrwt>
<pdfrwt beam="2">  1       -2 0.56059298E-01 0.16770675E+04</pdfrwt>
<totfact> 0.83203373E+00</totfact>
</mgrwt>
</event>
<event>
12    5  0.5029243E-008  0.2595855E+04  0.7818608E-02  0.8369610E-01
          1   -1    0    0  501    0  0.00000000000E+00  0.00000000000E+00  0.30306306754E+04  0.30306306754E+04  0.00000000000E+00 0. -1.
         -2   -1    0    0    0  501 -0.00000000000E+00 -0.00000000000E+00 -0.55586332369E+03  0.55586332369E+03  0.00000000000E+00 0.  1.
        -24    2    1    2    0    0 -0.45161051146E+03  0.59174854656E+03 -0.11312624535E+03  0.75723363369E+03  0.80540872837E+02 0.  0.
        254    2    1    2    0    0  0.45161051146E+03 -0.59174854656E+03  0.25878935971E+04  0.28292603654E+04  0.86798764340E+03 0.  0.
         23    2    4    4    0    0  0.68429827957E+03 -0.44911497006E+03  0.21784017357E+04  0.23287759432E+04  0.88288617836E+02 0.  0.
         23    2    4    4    0    0 -0.23268776810E+03 -0.14263357650E+03  0.40949186143E+03  0.50048442221E+03  0.91176409912E+02 0.  0.
          1    1    3    3  502    0 -0.44493497901E+02  0.26726559279E+02 -0.14704496490E+01  0.51924392616E+02  0.00000000000E+00 0. -1.
         -2    1    3    3    0  502 -0.40711701356E+03  0.56502198728E+03 -0.11165579570E+03  0.70530924108E+03  0.00000000000E+00 0.  1.
         13    1    5    5    0    0  0.65904686111E+03 -0.43472585227E+03  0.20420256345E+04  0.21893373481E+04  0.00000000000E+00 0.  1.
        -13    1    5    5    0    0  0.25251418452E+02 -0.14389117785E+02  0.13637610115E+03  0.13943859512E+03  0.00000000000E+00 0. -1.
          3    1    6    6  503    0 -0.38343950290E+02  0.10539962505E+02  0.46686176909E+02  0.61326572118E+02  0.00000000000E+00 0. -1.
         -3    1    6    6    0  503 -0.19434381781E+03 -0.15317353900E+03  0.36280568452E+03  0.43915785009E+03  0.00000000000E+00 0.  1.
<mgrwt>
<rscale>  0 0.25958555E+04</rscale>
<asrwt>0</asrwt>
<pdfrwt beam="1">  1        1 0.46625086E+00 0.25958555E+04</pdfrwt>
<pdfrwt beam="2">  1       -2 0.85517436E-01 0.25958555E+04</pdfrwt>
<totfact> 0.52261773E-01</totfact>
</mgrwt>
</event>
<event>
12    5  0.5029243E-008  0.1597207E+04  0.7818608E-02  0.8822266E-01
         -2   -1    0    0    0  501 -0.00000000000E+00  0.00000000000E+00  0.12664180527E+04  0.12664180527E+04  0.00000000000E+00 0.  1.
          1   -1    0    0  501    0  0.00000000000E+00 -0.00000000000E+00 -0.50359940598E+03  0.50359940598E+03  0.00000000000E+00 0. -1.
        -24    2    1    2    0    0 -0.24652142093E+03 -0.35508261983E+03 -0.10600208913E+03  0.45222724650E+03  0.80103443713E+02 0.  0.
        254    2    1    2    0    0  0.24652142093E+03  0.35508261983E+03  0.86882073581E+03  0.13177902121E+04  0.89155207045E+03 0.  0.
         23    2    4    4    0    0  0.44778238371E+03  0.78363163840E+02  0.10450291463E+03  0.47538660379E+03  0.91769904057E+02 0.  0.
         23    2    4    4    0    0 -0.20126096278E+03  0.27671945599E+03  0.76431782118E+03  0.84240360834E+03  0.91555857813E+02 0.  0.
          3    1    3    3  502    0 -0.12367778151E+03 -0.14460903519E+03 -0.82493125454E+02  0.20739595571E+03  0.00000000000E+00 0. -1.
         -4    1    3    3    0  502 -0.12284363942E+03 -0.21047358464E+03 -0.23508963680E+02  0.24483129080E+03  0.00000000000E+00 0.  1.
         13    1    5    5    0    0  0.16782758232E+03  0.32982768538E+02 -0.56650700064E+01  0.17113168446E+03  0.00000000000E+00 0. -1.
        -13    1    5    5    0    0  0.27995480139E+03  0.45380395302E+02  0.11016798464E+03  0.30425491934E+03  0.00000000000E+00 0.  1.
          1    1    6    6  503    0 -0.75739794498E+02  0.13305631714E+03  0.44310603070E+03  0.46881068081E+03  0.00000000000E+00 0. -1.
         -1    1    6    6    0  503 -0.12552116828E+03  0.14366313885E+03  0.32121179048E+03  0.37359292752E+03  0.00000000000E+00 0.  1.
<mgrwt>
<rscale>  0 0.15972068E+04</rscale>
<asrwt>0</asrwt>
<pdfrwt beam="1">  1        1 0.77476832E-01 0.15972068E+04</pdfrwt>
<pdfrwt beam="2">  1       -2 0.19483355E+00 0.15972068E+04</pdfrwt>
<totfact> 0.52960148E+00</totfact>
</mgrwt>
</event>
<event>
12    5  0.5029243E-008  0.1836488E+04  0.7818608E-02  0.8687133E-01
          1   -1    0    0  501    0  0.00000000000E+00  0.00000000000E+00  0.26233041374E+04  0.26233041374E+04  0.00000000000E+00 0. -1.
         -2   -1    0    0    0  501 -0.00000000000E+00 -0.00000000000E+00 -0.32141611580E+03  0.32141611580E+03  0.00000000000E+00 0.  1.
        -24    2    1    2    0    0 -0.21665497308E+03 -0.51784727401E+03  0.22713878685E+03  0.61071230152E+03  0.79197917725E+02 0.  0.
        254    2    1    2    0    0  0.21665497308E+03  0.51784727401E+03  0.20747492348E+04  0.23340079517E+04  0.90989205672E+03 0.  0.
         23    2    4    4    0    0 -0.72122211961E+02  0.68204296306E+03  0.10941474184E+04  0.12945081989E+04  0.90601804391E+02 0.  0.
         23    2    4    4    0    0  0.28877718504E+03 -0.16419568905E+03  0.98060181638E+03  0.10394997528E+04  0.92883404707E+02 0.  0.
          1    1    3    3  502    0 -0.63885942605E+02 -0.84667268756E+02  0.60387015031E+02  0.12205143033E+03  0.00000000000E+00 0. -1.
         -2    1    3    3    0  502 -0.15276903047E+03 -0.43318000526E+03  0.16675177182E+03  0.48866087119E+03  0.00000000000E+00 0.  1.
         13    1    5    5    0    0 -0.77676948000E+02  0.36268943204E+03  0.63003424895E+03  0.73110908024E+03  0.00000000000E+00 0. -1.
        -13    1    5    5    0    0  0.55547360386E+01  0.31935353102E+03  0.46411316944E+03  0.56339911867E+03  0.00000000000E+00 0.  1.
          3    1    6    6  503    0  0.13811449889E+03 -0.26218599010E+02  0.40905949502E+03  0.43254213691E+03  0.00000000000E+00 0. -1.
         -3    1    6    6    0  503  0.15066268615E+03 -0.13797709004E+03  0.57154232136E+03  0.60695761588E+03  0.00000000000E+00 0.  1.
<mgrwt>
<rscale>  0 0.18364882E+04</rscale>
<asrwt>0</asrwt>
<pdfrwt beam="1">  1        1 0.40358524E+00 0.18364882E+04</pdfrwt>
<pdfrwt beam="2">  1       -2 0.49448635E-01 0.18364882E+04</pdfrwt>
<totfact> 0.35587674E+00</totfact>
</mgrwt>
</event>
<event>
12    5  0.5029243E-008  0.1342780E+04  0.7818608E-02  0.8996312E-01
         -2   -1    0    0    0  501 -0.00000000000E+00  0.00000000000E+00  0.13091747484E+04  0.13091747484E+04  0.00000000000E+00 0.  1.
          1   -1    0    0  501    0  0.00000000000E+00 -0.00000000000E+00 -0.34431178126E+03  0.34431178126E+03  0.00000000000E+00 0. -1.
        -24    2    1    2    0    0 -0.11135399617E+03  0.49132619627E+02  0.69161512442E+03  0.70679279502E+03  0.80067771195E+02 0.  0.
        254    2    1    2    0    0  0.11135399617E+03 -0.49132619627E+02  0.27324784269E+03  0.94669373461E+03  0.89819314005E+03 0.  0.
         23    2    4    4    0    0  0.38366981139E+03 -0.31374412864E+03  0.22938243712E+03  0.55370563280E+03  0.91300180239E+02 0.  0.
         23    2    4    4    0    0 -0.27231581521E+03  0.26461150902E+03  0.43865405567E+02  0.39298810181E+03  0.91325354839E+02 0.  0.
          1    1    3    3  502    0 -0.88057241952E+01  0.39698137009E+02  0.25325699799E+03  0.25650066256E+03  0.00000000000E+00 0. -1.
         -2    1    3    3    0  502 -0.10254827198E+03  0.94344826177E+01  0.43835812643E+03  0.45029213246E+03  0.00000000000E+00 0.  1.
         13    1    5    5    0    0  0.29572405819E+03 -0.28602505381E+03  0.19505669119E+03  0.45531325785E+03  0.00000000000E+00 0. -1.
        -13    1    5    5    0    0  0.87945753196E+02 -0.27719074838E+02  0.34325745930E+02  0.98392374952E+02  0.00000000000E+00 0.  1.
          2    1    6    6  503    0 -0.24305629441E+03  0.21782917231E+03  0.66846289438E+01  0.32645151987E+03  0.00000000000E+00 0. -1.
         -2    1    6    6    0  503 -0.29259520804E+02  0.46782336709E+02  0.37180776624E+02  0.66536581938E+02  0.00000000000E+00 0.  1.
<mgrwt>
<rscale>  0 0.13427796E+04</rscale>
<asrwt>0</asrwt>
<pdfrwt beam="1">  1        1 0.52971044E-01 0.13427796E+04</pdfrwt>
<pdfrwt beam="2">  1       -2 0.20141150E+00 0.13427796E+04</pdfrwt>
<totfact> 0.81429723E+00</totfact>
</mgrwt>
</event>
<event>
12    5  0.5029243E-008  0.1475431E+04  0.7818608E-02  0.8900957E-01
         -2   -1    0    0    0  501 -0.00000000000E+00  0.00000000000E+00  0.28836107075E+04  0.28836107075E+04  0.00000000000E+00 0.  1.
          1   -1    0    0  501    0  0.00000000000E+00 -0.00000000000E+00 -0.18873017418E+03  0.18873017418E+03  0.00000000000E+00 0. -1.
        -24    2    1    2    0    0  0.31423866855E+01 -0.32736759804E+02  0.17040475459E+04  0.17064835362E+04  0.85008532212E+02 0.  0.
        254    2    1    2    0    0 -0.31423866855E+01  0.32736759804E+02  0.99083298747E+03  0.13658573455E+04  0.93953962624E+03 0.  0.
         23    2    4    4    0    0  0.27319210764E+03 -0.31177354777E+03  0.72968403953E+03  0.84437942200E+03  0.93279890523E+02 0.  0.
         23    2    4    4    0    0 -0.27633449432E+03  0.34451030757E+03  0.26114894794E+03  0.52147792354E+03  0.93232756889E+02 0.  0.
          1    1    3    3  502    0  0.22361060413E+02  0.63783894798E+01  0.12782443451E+04  0.12784558290E+04  0.00000000000E+00 0. -1.
         -2    1    3    3    0  502 -0.19218673727E+02 -0.39115149284E+02  0.42580320075E+03  0.42802770716E+03  0.00000000000E+00 0.  1.
         13    1    5    5    0    0  0.27493166254E+03 -0.31674316951E+03  0.72325934554E+03  0.83607280509E+03  0.00000000000E+00 0. -1.
        -13    1    5    5    0    0 -0.17395549014E+01  0.49696217429E+01  0.64246939942E+01  0.83066169071E+01  0.00000000000E+00 0.  1.
          1    1    6    6  503    0 -0.45011446783E+02  0.35882540323E+02  0.71159595721E+02  0.91527455470E+02  0.00000000000E+00 0.  1.
         -1    1    6    6    0  503 -0.23132304754E+03  0.30862776725E+03  0.18998935222E+03  0.42995046807E+03  0.00000000000E+00 0. -1.
<mgrwt>
<rscale>  0 0.14754313E+04</rscale>
<asrwt>0</asrwt>
<pdfrwt beam="1">  1        1 0.29035414E-01 0.14754313E+04</pdfrwt>
<pdfrwt beam="2">  1       -2 0.44363238E+00 0.14754313E+04</pdfrwt>
<totfact> 0.52400258E-01</totfact>
</mgrwt>
</event>
<event>
12    5  0.5029243E-008  0.1201226E+04  0.7818608E-02  0.9111784E-01
         -2   -1    0    0    0  501 -0.00000000000E+00  0.00000000000E+00  0.17473323430E+03  0.17473323430E+03  0.00000000000E+00 0.  1.
          1   -1    0    0  501    0  0.00000000000E+00 -0.00000000000E+00 -0.20644942153E+04  0.20644942153E+04  0.00000000000E+00 0. -1.
        -24    2    1    2    0    0 -0.64878577430E+02 -0.66974374025E+02 -0.88414650881E+03  0.89217569430E+03  0.74616512141E+02 0.  0.
        254    2    1    2    0    0  0.64878577430E+02  0.66974374025E+02 -0.10056144722E+04  0.13470517553E+04  0.89139955585E+03 0.  0.
         23    2    4    4    0    0  0.46788000696E+03  0.67174884976E+02 -0.49764556295E+03  0.69238951000E+03  0.91257663535E+02 0.  0.
         23    2    4    4    0    0 -0.40300142953E+03 -0.20051095092E+00 -0.50796890925E+03  0.65466224529E+03  0.90222226959E+02 0.  0.
          3    1    3    3  502    0 -0.32034112958E+02 -0.50011019880E+02 -0.76789470475E+03  0.77018800567E+03  0.00000000000E+00 0. -1.
         -2    1    3    3    0  502 -0.32844464472E+02 -0.16963354145E+02 -0.11625180406E+03  0.12198768863E+03  0.00000000000E+00 0.  1.
         13    1    5    5    0    0  0.45802474311E+03  0.49871998692E+02 -0.48413083467E+03  0.66832368403E+03  0.00000000000E+00 0. -1.
        -13    1    5    5    0    0  0.98552638498E+01  0.17302886284E+02 -0.13514728273E+02  0.24065825970E+02  0.00000000000E+00 0.  1.
          1    1    6    6  503    0 -0.30656479139E+03  0.33562855518E+02 -0.34951459222E+03  0.46612110740E+03  0.00000000000E+00 0. -1.
         -1    1    6    6    0  503 -0.96436638140E+02 -0.33763366469E+02 -0.15845431704E+03  0.18854113789E+03  0.00000000000E+00 0.  1.
<mgrwt>
<rscale>  0 0.12012256E+04</rscale>
<asrwt>0</asrwt>
<pdfrwt beam="1">  1        1 0.31761452E+00 0.12012256E+04</pdfrwt>
<pdfrwt beam="2">  1       -2 0.26882034E-01 0.12012256E+04</pdfrwt>
<totfact> 0.29479344E+01</totfact>
</mgrwt>
</event>
<event>
12    5  0.5029243E-008  0.1096655E+04  0.7818608E-02  0.9208458E-01
         -2   -1    0    0    0  501 -0.00000000000E+00  0.00000000000E+00  0.11156928518E+04  0.11156928518E+04  0.00000000000E+00 0.  1.
          1   -1    0    0  501    0  0.00000000000E+00 -0.00000000000E+00 -0.26948566186E+03  0.26948566186E+03  0.00000000000E+00 0. -1.
        -24    2    1    2    0    0  0.10186417778E+03 -0.48264599710E+02  0.30056429044E+03  0.33215988500E+03  0.85355223710E+02 0.  0.
        254    2    1    2    0    0 -0.10186417778E+03  0.48264599710E+02  0.54564289947E+03  0.10530186286E+04  0.89354142388E+03 0.  0.
         23    2    4    4    0    0  0.13703068606E+03  0.31132627876E+03  0.58636501861E+03  0.68422644766E+03  0.92953944885E+02 0.  0.
         23    2    4    4    0    0 -0.23889486384E+03 -0.26306167905E+03 -0.40722119140E+02  0.36879218096E+03  0.89873126109E+02 0.  0.
          3    1    3    3  502    0  0.22371846232E+02 -0.56043375112E+02  0.10853738816E+03  0.12418423421E+03  0.00000000000E+00 0. -1.
         -4    1    3    3    0  502  0.79492331550E+02  0.77787754017E+01  0.19202690227E+03  0.20797565078E+03  0.00000000000E+00 0.  1.
         13    1    5    5    0    0  0.72103094123E+02  0.12031731527E+03  0.16158938342E+03  0.21397719825E+03  0.00000000000E+00 0. -1.
        -13    1    5    5    0    0  0.64927591937E+02  0.19100896348E+03  0.42477563519E+03  0.47024924941E+03  0.00000000000E+00 0.  1.
          2    1    6    6  503    0 -0.10838569118E+03 -0.16902649357E+03  0.72827492670E+01  0.20092399563E+03  0.00000000000E+00 0. -1.
         -2    1    6    6    0  503 -0.13050917266E+03 -0.94035185471E+02 -0.48004868407E+02  0.16786818533E+03  0.00000000000E+00 0.  1.
<mgrwt>
<rscale>  0 0.10966553E+04</rscale>
<asrwt>0</asrwt>
<pdfrwt beam="1">  1        1 0.41459333E-01 0.10966553E+04</pdfrwt>
<pdfrwt beam="2">  1       -2 0.17164505E+00 0.10966553E+04</pdfrwt>
<totfact> 0.18171646E+01</totfact>
</mgrwt>
</event>
<event>
12    5  0.5029243E-008  0.1026274E+04  0.7818608E-02  0.9280188E-01
         -4   -1    0    0    0  501 -0.00000000000E+00  0.00000000000E+00  0.41336941635E+03  0.41336941635E+03  0.00000000000E+00 0.  1.
          3   -1    0    0  501    0  0.00000000000E+00 -0.00000000000E+00 -0.63698381286E+03  0.63698381286E+03  0.00000000000E+00 0. -1.
        -24    2    1    2    0    0 -0.20886337281E+02  0.34211027099E+02  0.71347493477E+02  0.11559470926E+03  0.81639687184E+02 0.  0.
        254    2    1    2    0    0  0.20886337281E+02 -0.34211027099E+02 -0.29496188999E+03  0.93475851995E+03  0.88609499525E+03 0.  0.
         23    2    4    4    0    0 -0.24434973513E+03  0.60449275098E+02 -0.50480332350E+03  0.57254079754E+03  0.98059479447E+02 0.  0.
         23    2    4    4    0    0  0.26523607242E+03 -0.94660302198E+02  0.20984143351E+03  0.36221772241E+03  0.88642564751E+02 0.  0.
          3    1    3    3  502    0  0.26074969965E+02 -0.30271729717E+00  0.37542876098E+01  0.26345594924E+02  0.00000000000E+00 0. -1.
         -4    1    3    3    0  502 -0.46961307247E+02  0.34513744396E+02  0.67593205867E+02  0.89249114337E+02  0.00000000000E+00 0.  1.
         13    1    5    5    0    0 -0.23931626367E+03  0.48890827961E+02 -0.41260528222E+03  0.47948483399E+03  0.00000000000E+00 0.  1.
        -13    1    5    5    0    0 -0.50334714678E+01  0.11558447138E+02 -0.92198041288E+02  0.93055963552E+02  0.00000000000E+00 0. -1.
          4    1    6    6  503    0  0.14819336962E+03 -0.19880570031E+02  0.69906329062E+02  0.16505576848E+03  0.00000000000E+00 0.  1.
         -4    1    6    6    0  503  0.11704270279E+03 -0.74779732167E+02  0.13993510445E+03  0.19716195393E+03  0.00000000000E+00 0. -1.
<mgrwt>
<rscale>  0 0.10262741E+04</rscale>
<asrwt>0</asrwt>
<pdfrwt beam="1">  1        3 0.97997509E-01 0.10262741E+04</pdfrwt>
<pdfrwt beam="2">  1       -4 0.63595295E-01 0.10262741E+04</pdfrwt>
<totfact> 0.48282862E+00</totfact>
</mgrwt>
</event>
<event>
12    5  0.5029243E-008  0.2169511E+04  0.7818608E-02  0.8531226E-01
          1   -1    0    0  501    0  0.00000000000E+00  0.00000000000E+00  0.10128512055E+04  0.10128512055E+04  0.00000000000E+00 0. -1.
         -2   -1    0    0    0  501 -0.00000000000E+00 -0.00000000000E+00 -0.11617645944E+04  0.11617645944E+04  0.00000000000E+00 0.  1.
        -24    2    1    2    0    0 -0.18069305910E+02 -0.76456948838E+03 -0.55194630827E+03  0.94669903197E+03  0.81861636529E+02 0.  0.
        254    2    1    2    0    0  0.18069305910E+02  0.76456948838E+03  0.40303291931E+03  0.12279167679E+04  0.87203844672E+03 0.  0.
         23    2    4    4    0    0 -0.37773188892E+03  0.51928637476E+03  0.79938768945E+02  0.65356700297E+03  0.91760022210E+02 0.  0.
         23    2    4    4    0    0  0.39580119483E+03  0.24528311362E+03  0.32309415036E+03  0.57434976497E+03  0.93088296088E+02 0.  0.
          3    1    3    3  502    0  0.28163390325E+02 -0.14995622959E+03 -0.10050610767E+03  0.18270611656E+03  0.00000000000E+00 0. -1.
         -4    1    3    3    0  502 -0.46232696235E+02 -0.61461325879E+03 -0.45144020060E+03  0.76399291541E+03  0.00000000000E+00 0.  1.
         13    1    5    5    0    0 -0.29149022804E+03  0.34227957675E+03  0.30822980980E+02  0.45063501623E+03  0.00000000000E+00 0. -1.
        -13    1    5    5    0    0 -0.86241660880E+02  0.17700679801E+03  0.49115787965E+02  0.20293198673E+03  0.00000000000E+00 0.  1.
          2    1    6    6  503    0  0.10432496502E+03  0.61970620068E+02  0.37528249358E+02  0.12701348581E+03  0.00000000000E+00 0.  1.
         -2    1    6    6    0  503  0.29147622981E+03  0.18331249356E+03  0.28556590101E+03  0.44733627916E+03  0.00000000000E+00 0. -1.
<mgrwt>
<rscale>  0 0.21695112E+04</rscale>
<asrwt>0</asrwt>
<pdfrwt beam="1">  1        1 0.15582326E+00 0.21695112E+04</pdfrwt>
<pdfrwt beam="2">  1       -2 0.17873301E+00 0.21695112E+04</pdfrwt>
<totfact> 0.21924649E+00</totfact>
</mgrwt>
</event>
<event>
12    5  0.5029243E-008  0.1376170E+04  0.7818608E-02  0.8971251E-01
          1   -1    0    0  501    0  0.00000000000E+00  0.00000000000E+00  0.58167687261E+03  0.58167687261E+03  0.00000000000E+00 0. -1.
         -2   -1    0    0    0  501 -0.00000000000E+00 -0.00000000000E+00 -0.81395862072E+03  0.81395862072E+03  0.00000000000E+00 0.  1.
        -24    2    1    2    0    0  0.26433677078E+03 -0.30268906339E+03 -0.11244106342E+03  0.42466578051E+03  0.78761887438E+02 0.  0.
        254    2    1    2    0    0 -0.26433677078E+03  0.30268906339E+03 -0.11984068470E+03  0.97096971282E+03  0.87574299656E+03 0.  0.
         23    2    4    4    0    0 -0.38551280499E+03 -0.17964097153E+03  0.47106084268E+02  0.43765819916E+03  0.91840702603E+02 0.  0.
         23    2    4    4    0    0  0.12117603421E+03  0.48233003492E+03 -0.16694676896E+03  0.53331151366E+03  0.96041933964E+02 0.  0.
          1    1    3    3  502    0  0.40896881606E+02 -0.13889748630E+02 -0.22075534262E+02  0.48505765174E+02  0.00000000000E+00 0. -1.
         -2    1    3    3    0  502  0.22343988917E+03 -0.28879931476E+03 -0.90365529159E+02  0.37616001534E+03  0.00000000000E+00 0.  1.
         13    1    5    5    0    0 -0.18511369639E+03 -0.48264048206E+02 -0.91438802979E+01  0.19152051975E+03  0.00000000000E+00 0. -1.
        -13    1    5    5    0    0 -0.20039910860E+03 -0.13137692333E+03  0.56249964566E+02  0.24613767941E+03  0.00000000000E+00 0.  1.
          1    1    6    6  503    0  0.70547593228E+02  0.20471516671E+03 -0.26642219003E+02  0.21816294421E+03  0.00000000000E+00 0. -1.
         -1    1    6    6    0  503  0.50628440984E+02  0.27761486821E+03 -0.14030454996E+03  0.31514856945E+03  0.00000000000E+00 0.  1.
<mgrwt>
<rscale>  0 0.13761699E+04</rscale>
<asrwt>0</asrwt>
<pdfrwt beam="1">  1        1 0.89488749E-01 0.13761699E+04</pdfrwt>
<pdfrwt beam="2">  1       -2 0.12522440E+00 0.13761699E+04</pdfrwt>
<totfact> 0.14606971E+01</totfact>
</mgrwt>
</event>
<event>
12    5  0.5029243E-008  0.2307742E+04  0.7818608E-02  0.8474875E-01
          1   -1    0    0  501    0  0.00000000000E+00  0.00000000000E+00  0.26503770685E+04  0.26503770685E+04  0.00000000000E+00 0. -1.
         -2   -1    0    0    0  501 -0.00000000000E+00 -0.00000000000E+00 -0.50235046319E+03  0.50235046319E+03  0.00000000000E+00 0.  1.
        -24    2    1    2    0    0 -0.39744292878E+03  0.21716643078E+02  0.20971006645E+04  0.21356662980E+04  0.69331414942E+02 0.  0.
        254    2    1    2    0    0  0.39744292878E+03 -0.21716643078E+02  0.50925940811E+02  0.10170612337E+04  0.93455208920E+03 0.  0.
         23    2    4    4    0    0  0.51798584456E+03 -0.24760959249E+03 -0.23023840942E+03  0.62598782082E+03  0.96079036160E+02 0.  0.
         23    2    4    4    0    0 -0.12054291578E+03  0.22589294942E+03  0.28116435023E+03  0.39107341288E+03  0.91251319334E+02 0.  0.
          1    1    3    3  502    0 -0.39767121435E+03  0.17049715187E+02  0.20464037578E+04  0.20847545245E+04  0.00000000000E+00 0. -1.
         -2    1    3    3    0  502  0.22828556797E+00  0.46669278905E+01  0.50696906756E+02  0.50911773539E+02  0.00000000000E+00 0.  1.
         13    1    5    5    0    0  0.51099891993E+03 -0.23121382359E+03 -0.20969731853E+03  0.59879269684E+03  0.00000000000E+00 0. -1.
        -13    1    5    5    0    0  0.69869246287E+01 -0.16395768899E+02 -0.20541090888E+02  0.27195123983E+02  0.00000000000E+00 0.  1.
          1    1    6    6  503    0 -0.83301781222E+02  0.16074920101E+03  0.13187792962E+03  0.22398946561E+03  0.00000000000E+00 0. -1.
         -1    1    6    6    0  503 -0.37241134559E+02  0.65143748405E+02  0.14928642060E+03  0.16708394727E+03  0.00000000000E+00 0.  1.
<mgrwt>
<rscale>  0 0.23077419E+04</rscale>
<asrwt>0</asrwt>
<pdfrwt beam="1">  1        1 0.40775031E+00 0.23077419E+04</pdfrwt>
<pdfrwt beam="2">  1       -2 0.77284688E-01 0.23077419E+04</pdfrwt>
<totfact> 0.12613448E+00</totfact>
</mgrwt>
</event>
<event>
12    5  0.5029243E-008  0.1151660E+04  0.7818608E-02  0.9156254E-01
         -2   -1    0    0    0  501 -0.00000000000E+00  0.00000000000E+00  0.12439249641E+04  0.12439249641E+04  0.00000000000E+00 0.  1.
          1   -1    0    0  501    0  0.00000000000E+00 -0.00000000000E+00 -0.26655947068E+03  0.26655947068E+03  0.00000000000E+00 0. -1.
        -24    2    1    2    0    0 -0.51796724743E+02 -0.60822448685E+02 -0.68436648564E+02  0.11684085452E+03  0.50852133299E+02 0.  0.
        254    2    1    2    0    0  0.51796724743E+02  0.60822448685E+02  0.10458021420E+04  0.13936435803E+04  0.91769168989E+03 0.  0.
         23    2    4    4    0    0  0.26822862215E+03  0.43188796286E+02  0.11122757585E+04  0.11485164453E+04  0.90115460755E+02 0.  0.
         23    2    4    4    0    0 -0.21643189741E+03  0.17633652399E+02 -0.66473616544E+02  0.24512713496E+03  0.92275991911E+02 0.  0.
          3    1    3    3  502    0 -0.45921883752E+02 -0.64248758733E+02 -0.73869621699E+02  0.10813622620E+03  0.00000000000E+00 0. -1.
         -4    1    3    3    0  502 -0.58748409905E+01  0.34263100484E+01  0.54329731357E+01  0.87046283266E+01  0.00000000000E+00 0.  1.
         13    1    5    5    0    0  0.28307834064E+02  0.26113643248E+02  0.82847316576E+02  0.91361554808E+02  0.00000000000E+00 0. -1.
        -13    1    5    5    0    0  0.23992078809E+03  0.17075153038E+02  0.10294284420E+04  0.10571548905E+04  0.00000000000E+00 0.  1.
          1    1    6    6  503    0 -0.52860172029E+01  0.22417465490E+02 -0.15806942327E+02  0.27934640907E+02  0.00000000000E+00 0. -1.
         -1    1    6    6    0  503 -0.21114588021E+03 -0.47838130912E+01 -0.50666674217E+02  0.21719249405E+03  0.00000000000E+00 0.  1.
<mgrwt>
<rscale>  0 0.11516596E+04</rscale>
<asrwt>0</asrwt>
<pdfrwt beam="1">  1        1 0.41009150E-01 0.11516596E+04</pdfrwt>
<pdfrwt beam="2">  1       -2 0.19137307E+00 0.11516596E+04</pdfrwt>
<totfact> 0.13437088E+01</totfact>
</mgrwt>
</event>
<event>
12    5  0.5029243E-008  0.1910257E+04  0.7818608E-02  0.8649767E-01
          1   -1    0    0  501    0  0.00000000000E+00  0.00000000000E+00  0.12890276139E+04  0.12890276139E+04  0.00000000000E+00 0. -1.
         -2   -1    0    0    0  501 -0.00000000000E+00 -0.00000000000E+00 -0.70772002143E+03  0.70772002143E+03  0.00000000000E+00 0.  1.
        -24    2    1    2    0    0  0.88033758290E+02  0.12144130059E+03  0.97216660949E+03  0.98692007322E+03  0.80033631903E+02 0.  0.
        254    2    1    2    0    0 -0.88033758290E+02 -0.12144130059E+03 -0.39085901705E+03  0.10098275621E+04  0.91895756258E+03 0.  0.
         23    2    4    4    0    0 -0.18530209144E+03  0.74144608384E+02 -0.63379641941E+03  0.67044404757E+03  0.89235820290E+02 0.  0.
         23    2    4    4    0    0  0.97268333151E+02 -0.19558590898E+03  0.24293740236E+03  0.33938351450E+03  0.91910891749E+02 0.  0.
          3    1    3    3  502    0  0.95123730830E+02  0.76388090249E+02  0.77527331943E+03  0.78481359845E+03  0.00000000000E+00 0. -1.
         -4    1    3    3    0  502 -0.70899725396E+01  0.45053210344E+02  0.19689329006E+03  0.20210647477E+03  0.00000000000E+00 0.  1.
         13    1    5    5    0    0 -0.39683513910E+02 -0.14524343818E+02 -0.73490481079E+02  0.84773749762E+02  0.00000000000E+00 0.  1.
        -13    1    5    5    0    0 -0.14561857753E+03  0.88668952202E+02 -0.56030593833E+03  0.58567029781E+03  0.00000000000E+00 0. -1.
          3    1    6    6  503    0  0.72221759567E+02 -0.19181461617E+03  0.18481071204E+03  0.27597794988E+03  0.00000000000E+00 0. -1.
         -3    1    6    6    0  503  0.25046573584E+02 -0.37712928063E+01  0.58126690315E+02  0.63405564619E+02  0.00000000000E+00 0.  1.
<mgrwt>
<rscale>  0 0.19102572E+04</rscale>
<asrwt>0</asrwt>
<pdfrwt beam="1">  1        1 0.19831194E+00 0.19102572E+04</pdfrwt>
<pdfrwt beam="2">  1       -2 0.10888000E+00 0.19102572E+04</pdfrwt>
<totfact> 0.50879157E+00</totfact>
</mgrwt>
</event>
<event>
12    5  0.5029243E-008  0.1653579E+04  0.7818608E-02  0.8788292E-01
         -2   -1    0    0    0  501 -0.00000000000E+00  0.00000000000E+00  0.20979805688E+03  0.20979805688E+03  0.00000000000E+00 0.  1.
          1   -1    0    0  501    0  0.00000000000E+00 -0.00000000000E+00 -0.32582817686E+04  0.32582817686E+04  0.00000000000E+00 0. -1.
        -24    2    1    2    0    0  0.19888989417E+03 -0.33640671096E+03 -0.18210454354E+03  0.44034712708E+03  0.89536933009E+02 0.  0.
        254    2    1    2    0    0 -0.19888989417E+03  0.33640671096E+03 -0.28663791682E+04  0.30277326984E+04  0.89348144469E+03 0.  0.
         23    2    4    4    0    0  0.11659803881E+03  0.52830731146E+03 -0.12078713627E+04  0.13262792742E+04  0.85789080034E+02 0.  0.
         23    2    4    4    0    0 -0.31548793298E+03 -0.19190060050E+03 -0.16585078054E+04  0.17014534242E+04  0.89090614998E+02 0.  0.
          1    1    3    3  502    0  0.30311713097E+02 -0.17345812666E+02  0.24959262477E+01  0.35012952114E+02  0.00000000000E+00 0. -1.
         -2    1    3    3    0  502  0.16857818107E+03 -0.31906089829E+03 -0.18460046979E+03  0.40533417497E+03  0.00000000000E+00 0.  1.
         13    1    5    5    0    0  0.86912234939E+02  0.22334319401E+03 -0.47850252982E+03  0.53516407758E+03  0.00000000000E+00 0. -1.
        -13    1    5    5    0    0  0.29685803872E+02  0.30496411745E+03 -0.72936883293E+03  0.79111519663E+03  0.00000000000E+00 0.  1.
          2    1    6    6  503    0 -0.30442255437E+02  0.81663976801E+01 -0.12752259005E+03  0.13135993278E+03  0.00000000000E+00 0. -1.
         -2    1    6    6    0  503 -0.28504567755E+03 -0.20006699818E+03 -0.15309852154E+04  0.15700934914E+04  0.00000000000E+00 0.  1.
<mgrwt>
<rscale>  0 0.16535794E+04</rscale>
<asrwt>0</asrwt>
<pdfrwt beam="1">  1        1 0.50127407E+00 0.16535794E+04</pdfrwt>
<pdfrwt beam="2">  1       -2 0.32276627E-01 0.16535794E+04</pdfrwt>
<totfact> 0.28994115E+00</totfact>
</mgrwt>
</event>
<event>
12    5  0.5029243E-008  0.1700954E+04  0.7818608E-02  0.8760820E-01
         -2   -1    0    0    0  501 -0.00000000000E+00  0.00000000000E+00  0.41917652342E+03  0.41917652342E+03  0.00000000000E+00 0.  1.
          1   -1    0    0  501    0  0.00000000000E+00 -0.00000000000E+00 -0.17255526266E+04  0.17255526266E+04  0.00000000000E+00 0. -1.
        -24    2    1    2    0    0  0.16576770258E+03  0.39675407182E+03 -0.10318408626E+04  0.11212504159E+04  0.87259410288E+02 0.  0.
        254    2    1    2    0    0 -0.16576770258E+03 -0.39675407182E+03 -0.27453524058E+03  0.10234787341E+04  0.88726906639E+03 0.  0.
         23    2    4    4    0    0 -0.19446531744E+02 -0.65762878744E+03 -0.12759149966E+03  0.67623953641E+03  0.90368856087E+02 0.  0.
         23    2    4    4    0    0 -0.14632117084E+03  0.26087471561E+03 -0.14694374091E+03  0.34723919772E+03  0.97555600358E+02 0.  0.
          1    1    3    3  502    0  0.15931588308E+03  0.34571248765E+03 -0.96145140717E+03  0.10340635779E+04  0.00000000000E+00 0. -1.
         -2    1    3    3    0  502  0.64518194964E+01  0.51041584178E+02 -0.70389455449E+02  0.87186838047E+02  0.00000000000E+00 0.  1.
         13    1    5    5    0    0  0.18396745960E+02 -0.16345134324E+03 -0.11261721707E+00  0.16448341726E+03  0.00000000000E+00 0.  1.
        -13    1    5    5    0    0 -0.37843277704E+02 -0.49417744419E+03 -0.12747888245E+03  0.51175611915E+03  0.00000000000E+00 0. -1.
          2    1    6    6  503    0  0.45214166213E+01  0.31443015334E+02 -0.43409531590E+02  0.53791206107E+02  0.00000000000E+00 0.  1.
         -2    1    6    6    0  503 -0.15084258746E+03  0.22943170028E+03 -0.10353420932E+03  0.29344799162E+03  0.00000000000E+00 0. -1.
<mgrwt>
<rscale>  0 0.17009540E+04</rscale>
<asrwt>0</asrwt>
<pdfrwt beam="1">  1        1 0.26546964E+00 0.17009540E+04</pdfrwt>
<pdfrwt beam="2">  1       -2 0.64488695E-01 0.17009540E+04</pdfrwt>
<totfact> 0.84916230E+00</totfact>
</mgrwt>
</event>
<event>
12    5  0.5029243E-008  0.2188460E+04  0.7818608E-02  0.8523247E-01
         -2   -1    0    0    0  501 -0.00000000000E+00  0.00000000000E+00  0.89257384508E+03  0.89257384508E+03  0.00000000000E+00 0.  1.
          1   -1    0    0  501    0  0.00000000000E+00 -0.00000000000E+00 -0.13414461441E+04  0.13414461441E+04  0.00000000000E+00 0. -1.
        -24    2    1    2    0    0  0.83007630140E+03 -0.33423738431E+03 -0.31399243893E+03  0.95181576495E+03  0.81367705380E+02 0.  0.
        254    2    1    2    0    0 -0.83007630140E+03  0.33423738431E+03 -0.13487986014E+03  0.12822042243E+04  0.90835774938E+03 0.  0.
         23    2    4    4    0    0 -0.11847904703E+03  0.44103429638E+03  0.16987275429E+03  0.49539475096E+03  0.89502354492E+02 0.  0.
         23    2    4    4    0    0 -0.71159725437E+03 -0.10679691207E+03 -0.30475261443E+03  0.78680947332E+03  0.91753792573E+02 0.  0.
          3    1    3    3  502    0  0.45061831059E+03 -0.19365042573E+03 -0.21312005544E+03  0.53476864835E+03  0.00000000000E+00 0. -1.
         -4    1    3    3    0  502  0.37945799081E+03 -0.14058695858E+03 -0.10087238349E+03  0.41704711660E+03  0.00000000000E+00 0.  1.
         13    1    5    5    0    0  0.79061112380E+01  0.11017924299E+03  0.28757863247E+02  0.11414458760E+03  0.00000000000E+00 0. -1.
        -13    1    5    5    0    0 -0.12638515827E+03  0.33085505339E+03  0.14111489104E+03  0.38125016335E+03  0.00000000000E+00 0.  1.
          4    1    6    6  503    0 -0.16164095640E+03 -0.96095754892E+00 -0.10228498031E+03  0.19128758303E+03  0.00000000000E+00 0. -1.
         -4    1    6    6    0  503 -0.54995629797E+03 -0.10583595452E+03 -0.20246763412E+03  0.59552189029E+03  0.00000000000E+00 0.  1.
<mgrwt>
<rscale>  0 0.21884604E+04</rscale>
<asrwt>0</asrwt>
<pdfrwt beam="1">  1        1 0.20637633E+00 0.21884604E+04</pdfrwt>
<pdfrwt beam="2">  1       -2 0.13731905E+00 0.21884604E+04</pdfrwt>
<totfact> 0.25560605E+00</totfact>
</mgrwt>
</event>
<event>
12    5  0.5029243E-008  0.2130480E+04  0.7818608E-02  0.8547934E-01
         -2   -1    0    0    0  501 -0.00000000000E+00  0.00000000000E+00  0.76466573016E+03  0.76466573016E+03  0.00000000000E+00 0.  1.
          1   -1    0    0  501    0  0.00000000000E+00 -0.00000000000E+00 -0.14839639537E+04  0.14839639537E+04  0.00000000000E+00 0. -1.
        -24    2    1    2    0    0 -0.31133939745E+03 -0.25859732911E+03 -0.11136289242E+04  0.11874796126E+04  0.78317626634E+02 0.  0.
        254    2    1    2    0    0  0.31133939745E+03  0.25859732911E+03  0.39433070061E+03  0.10611500713E+04  0.89818593468E+03 0.  0.
         23    2    4    4    0    0 -0.23142138194E+03 -0.82314014404E+02 -0.63087638515E+02  0.26855744647E+03  0.88383250291E+02 0.  0.
         23    2    4    4    0    0  0.54276077939E+03  0.34091134351E+03  0.45741833912E+03  0.79259262479E+03  0.90342260996E+02 0.  0.
          1    1    3    3  502    0 -0.21560987446E+03 -0.17729405814E+03 -0.86504906412E+03  0.90897232321E+03  0.00000000000E+00 0. -1.
         -2    1    3    3    0  502 -0.95729522984E+02 -0.81303270970E+02 -0.24857986005E+03  0.27850728943E+03  0.00000000000E+00 0.  1.
         13    1    5    5    0    0 -0.15670615214E+03 -0.60102664717E+02  0.69850433613E+00  0.16783812538E+03  0.00000000000E+00 0.  1.
        -13    1    5    5    0    0 -0.74715229804E+02 -0.22211349686E+02 -0.63786142851E+02  0.10071932108E+03  0.00000000000E+00 0. -1.
          2    1    6    6  503    0  0.48549771408E+03  0.30872194805E+03  0.44091524221E+03  0.72486103661E+03  0.00000000000E+00 0. -1.
         -2    1    6    6    0  503  0.57263065310E+02  0.32189395461E+02  0.16503096910E+02  0.67731588173E+02  0.00000000000E+00 0.  1.
<mgrwt>
<rscale>  0 0.21304801E+04</rscale>
<asrwt>0</asrwt>
<pdfrwt beam="1">  1        1 0.22830215E+00 0.21304801E+04</pdfrwt>
<pdfrwt beam="2">  1       -2 0.11764088E+00 0.21304801E+04</pdfrwt>
<totfact> 0.30141634E+00</totfact>
</mgrwt>
</event>
<event>
12    5  0.5029243E-008  0.1632056E+04  0.7818608E-02  0.8801093E-01
         -2   -1    0    0    0  501 -0.00000000000E+00  0.00000000000E+00  0.15547994200E+04  0.15547994200E+04  0.00000000000E+00 0.  1.
          1   -1    0    0  501    0  0.00000000000E+00 -0.00000000000E+00 -0.42828809835E+03  0.42828809835E+03  0.00000000000E+00 0. -1.
        -24    2    1    2    0    0  0.27391993276E+03 -0.81304671405E+01 -0.20117922372E+03  0.34889358999E+03  0.78456503999E+02 0.  0.
        254    2    1    2    0    0 -0.27391993276E+03  0.81304671405E+01  0.13276905454E+04  0.16341939284E+04  0.91254006880E+03 0.  0.
         23    2    4    4    0    0 -0.49053943289E+03  0.14631744191E+03  0.37109868523E+03  0.63867868359E+03  0.90324402335E+02 0.  0.
         23    2    4    4    0    0  0.21661950013E+03 -0.13818697477E+03  0.95659186014E+03  0.99551524478E+03  0.99814667589E+02 0.  0.
          3    1    3    3  502    0  0.22838016827E+03  0.23250267328E+02 -0.16701290592E+03  0.28388622181E+03  0.00000000000E+00 0. -1.
         -4    1    3    3    0  502  0.45539764489E+02 -0.31380734468E+02 -0.34166317807E+02  0.65007368182E+02  0.00000000000E+00 0.  1.
         13    1    5    5    0    0 -0.23777188348E+03  0.11786868266E+03  0.19420651448E+03  0.32885356193E+03  0.00000000000E+00 0.  1.
        -13    1    5    5    0    0 -0.25276754941E+03  0.28448759256E+02  0.17689217075E+03  0.30982512166E+03  0.00000000000E+00 0. -1.
          2    1    6    6  503    0  0.79366270571E+01 -0.31254202835E+01  0.15697171529E+01  0.86730797836E+01  0.00000000000E+00 0. -1.
         -2    1    6    6    0  503  0.20868287307E+03 -0.13506155449E+03  0.95502214299E+03  0.98684216500E+03  0.00000000000E+00 0.  1.
<mgrwt>
<rscale>  0 0.16320565E+04</rscale>
<asrwt>0</asrwt>
<pdfrwt beam="1">  1        1 0.65890477E-01 0.16320565E+04</pdfrwt>
<pdfrwt beam="2">  1       -2 0.23919991E+00 0.16320565E+04</pdfrwt>
<totfact> 0.34320308E+00</totfact>
</mgrwt>
</event>
<event>
12    5  0.5029243E-008  0.1704831E+04  0.7818608E-02  0.8758614E-01
          1   -1    0    0  501    0  0.00000000000E+00  0.00000000000E+00  0.12255918128E+04  0.12255918128E+04  0.00000000000E+00 0. -1.
         -2   -1    0    0    0  501 -0.00000000000E+00 -0.00000000000E+00 -0.59286633504E+03  0.59286633504E+03  0.00000000000E+00 0.  1.
        -24    2    1    2    0    0  0.30314114848E+03 -0.29488268670E+03 -0.24140191570E+03  0.49330496171E+03  0.78895789035E+02 0.  0.
        254    2    1    2    0    0 -0.30314114848E+03  0.29488268670E+03  0.87412739350E+03  0.13251531862E+04  0.90171054776E+03 0.  0.
         23    2    4    4    0    0 -0.32994304749E+03  0.18611593286E+03  0.10368239923E+04  0.11078052487E+04  0.93418002083E+02 0.  0.
         23    2    4    4    0    0  0.26801899011E+02  0.10876675384E+03 -0.16269659877E+03  0.21734793744E+03  0.90671903726E+02 0.  0.
          3    1    3    3  502    0  0.85672144650E+01 -0.80891057783E+01 -0.27380069389E+02  0.29807700276E+02  0.00000000000E+00 0. -1.
         -4    1    3    3    0  502  0.29457393402E+03 -0.28679358092E+03 -0.21402184631E+03  0.46349726143E+03  0.00000000000E+00 0.  1.
         13    1    5    5    0    0 -0.14218066695E+03  0.13017169558E+03  0.46611230396E+03  0.50440132066E+03  0.00000000000E+00 0.  1.
        -13    1    5    5    0    0 -0.18776238054E+03  0.55944237280E+02  0.57071168832E+03  0.60340392807E+03  0.00000000000E+00 0. -1.
          1    1    6    6  503    0 -0.25689875897E+02  0.71525396583E+02 -0.63171404797E+02  0.98825495011E+02  0.00000000000E+00 0. -1.
         -1    1    6    6    0  503  0.52491774908E+02  0.37241357256E+02 -0.99525193976E+02  0.11852244243E+03  0.00000000000E+00 0.  1.
<mgrwt>
<rscale>  0 0.17048309E+04</rscale>
<asrwt>0</asrwt>
<pdfrwt beam="1">  1        1 0.18855259E+00 0.17048309E+04</pdfrwt>
<pdfrwt beam="2">  1       -2 0.91210206E-01 0.17048309E+04</pdfrwt>
<totfact> 0.87510960E+00</totfact>
</mgrwt>
</event>
<event>
12    5  0.5029243E-008  0.1480443E+04  0.7818608E-02  0.8897563E-01
          1   -1    0    0  501    0  0.00000000000E+00  0.00000000000E+00  0.11329428215E+04  0.11329428215E+04  0.00000000000E+00 0. -1.
         -2   -1    0    0    0  501 -0.00000000000E+00 -0.00000000000E+00 -0.48363263969E+03  0.48363263969E+03  0.00000000000E+00 0.  1.
        -24    2    1    2    0    0 -0.28250708346E+03  0.29469377844E+03  0.44889029227E+03  0.61179692185E+03  0.78347328134E+02 0.  0.
        254    2    1    2    0    0  0.28250708346E+03 -0.29469377844E+03  0.20041988958E+03  0.10047785394E+04  0.89596713434E+03 0.  0.
         23    2    4    4    0    0  0.55487717314E+03 -0.42823789969E+02 -0.18503657189E+02  0.56435345207E+03  0.91814374007E+02 0.  0.
         23    2    4    4    0    0 -0.27237008969E+03 -0.25186998847E+03  0.21892354677E+03  0.44042508732E+03  0.91775712253E+02 0.  0.
          3    1    3    3  502    0 -0.22426474580E+03  0.25471097168E+03  0.32915490730E+03  0.47277405629E+03  0.00000000000E+00 0. -1.
         -4    1    3    3    0  502 -0.58242337661E+02  0.39982806766E+02  0.11973538497E+03  0.13902286556E+03  0.00000000000E+00 0.  1.
         13    1    5    5    0    0  0.39929811228E+03 -0.12575061803E+02  0.24139220428E+02  0.40022470765E+03  0.00000000000E+00 0.  1.
        -13    1    5    5    0    0  0.15557906086E+03 -0.30248728166E+02 -0.42642877616E+02  0.16412874442E+03  0.00000000000E+00 0. -1.
          4    1    6    6  503    0 -0.33860070423E+02  0.18743896238E+01  0.20109665854E+02  0.39426087382E+02  0.00000000000E+00 0. -1.
         -4    1    6    6    0  503 -0.23851001926E+03 -0.25374437810E+03  0.19881388091E+03  0.40099899993E+03  0.00000000000E+00 0.  1.
<mgrwt>
<rscale>  0 0.14804433E+04</rscale>
<asrwt>0</asrwt>
<pdfrwt beam="1">  1        1 0.17429890E+00 0.14804433E+04</pdfrwt>
<pdfrwt beam="2">  1       -2 0.74405022E-01 0.14804433E+04</pdfrwt>
<totfact> 0.16540018E+01</totfact>
</mgrwt>
</event>
<event>
12    5  0.5029243E-008  0.1750978E+04  0.7818608E-02  0.8732812E-01
          1   -1    0    0  501    0  0.00000000000E+00  0.00000000000E+00  0.15898530492E+04  0.15898530492E+04  0.00000000000E+00 0. -1.
         -2   -1    0    0    0  501 -0.00000000000E+00 -0.00000000000E+00 -0.48210786169E+03  0.48210786169E+03  0.00000000000E+00 0.  1.
        -24    2    1    2    0    0 -0.61040272413E+02 -0.59126633602E+03  0.15016350978E+03  0.61814713386E+03  0.78962044434E+02 0.  0.
        254    2    1    2    0    0  0.61040272413E+02  0.59126633602E+03  0.95758167777E+03  0.14538137771E+04  0.91830824555E+03 0.  0.
         23    2    4    4    0    0  0.90182709454E+02 -0.23141214307E+03  0.21379788879E+03  0.34028516979E+03  0.91651287380E+02 0.  0.
         23    2    4    4    0    0 -0.29142437041E+02  0.82267847909E+03  0.74378378898E+03  0.11135286073E+04  0.95302008910E+02 0.  0.
          1    1    3    3  502    0 -0.37697414213E+02 -0.93709735797E+02  0.15772275238E+02  0.10223196314E+03  0.00000000000E+00 0. -1.
         -2    1    3    3    0  502 -0.23342858199E+02 -0.49755660022E+03  0.13439123454E+03  0.51591517072E+03  0.00000000000E+00 0.  1.
         13    1    5    5    0    0  0.10269769064E+01 -0.35203753324E+02  0.77926918904E+02  0.85515867648E+02  0.00000000000E+00 0.  1.
        -13    1    5    5    0    0  0.89155732548E+02 -0.19620838975E+03  0.13587096989E+03  0.25476930214E+03  0.00000000000E+00 0. -1.
          1    1    6    6  503    0 -0.60502227229E+02  0.67562807737E+03  0.60749882791E+03  0.91059795977E+03  0.00000000000E+00 0. -1.
         -1    1    6    6    0  503  0.31359790188E+02  0.14705040173E+03  0.13628496107E+03  0.20293064752E+03  0.00000000000E+00 0.  1.
<mgrwt>
<rscale>  0 0.17509776E+04</rscale>
<asrwt>0</asrwt>
<pdfrwt beam="1">  1        1 0.24459277E+00 0.17509776E+04</pdfrwt>
<pdfrwt beam="2">  1       -2 0.74170441E-01 0.17509776E+04</pdfrwt>
<totfact> 0.77178197E+00</totfact>
</mgrwt>
</event>
<event>
12    5  0.5029243E-008  0.1685772E+04  0.7818608E-02  0.8769521E-01
          1   -1    0    0  501    0  0.00000000000E+00  0.00000000000E+00  0.23070216292E+04  0.23070216292E+04  0.00000000000E+00 0. -1.
         -2   -1    0    0    0  501 -0.00000000000E+00 -0.00000000000E+00 -0.30795418927E+03  0.30795418927E+03  0.00000000000E+00 0.  1.
        -24    2    1    2    0    0 -0.58102265853E+03  0.16125929696E+03  0.81187434982E+03  0.10144595448E+04  0.79976980957E+02 0.  0.
        254    2    1    2    0    0  0.58102265853E+03 -0.16125929696E+03  0.11871930901E+04  0.16005162737E+04  0.88805012169E+03 0.  0.
         23    2    4    4    0    0 -0.18938031096E+03 -0.20744201581E+03  0.29562743450E+03  0.41771321721E+03  0.90507788045E+02 0.  0.
         23    2    4    4    0    0  0.77040296950E+03  0.46182718856E+02  0.89156565564E+03  0.11828030565E+04  0.92087856380E+02 0.  0.
          3    1    3    3  502    0 -0.35405626891E+03  0.99058483495E+02  0.55855788138E+03  0.66869674111E+03  0.00000000000E+00 0. -1.
         -4    1    3    3    0  502 -0.22696638962E+03  0.62200813460E+02  0.25331646843E+03  0.34576280365E+03  0.00000000000E+00 0.  1.
         13    1    5    5    0    0 -0.60610828788E+01  0.53234751719E+01 -0.21907282463E+01  0.83591509030E+01  0.00000000000E+00 0.  1.
        -13    1    5    5    0    0 -0.18331922808E+03 -0.21276549098E+03  0.29781816275E+03  0.40935406631E+03  0.00000000000E+00 0. -1.
          3    1    6    6  503    0  0.77036008273E+03  0.44426861663E+02  0.89323487995E+03  0.11803800040E+04  0.00000000000E+00 0. -1.
         -3    1    6    6    0  503  0.42886762303E-01  0.17558571935E+01 -0.16692243049E+01  0.24230525249E+01  0.00000000000E+00 0.  1.
<mgrwt>
<rscale>  0 0.16857722E+04</rscale>
<asrwt>0</asrwt>
<pdfrwt beam="1">  1        1 0.35492639E+00 0.16857722E+04</pdfrwt>
<pdfrwt beam="2">  1       -2 0.47377569E-01 0.16857722E+04</pdfrwt>
<totfact> 0.65081526E+00</totfact>
</mgrwt>
</event>
<event>
12    5  0.5029243E-008  0.1844681E+04  0.7818608E-02  0.8682893E-01
          1   -1    0    0  501    0  0.00000000000E+00  0.00000000000E+00  0.24732805855E+04  0.24732805855E+04  0.00000000000E+00 0. -1.
         -2   -1    0    0    0  501 -0.00000000000E+00 -0.00000000000E+00 -0.34396095320E+03  0.34396095320E+03  0.00000000000E+00 0.  1.
        -24    2    1    2    0    0  0.12959755942E+02 -0.10570951488E+03 -0.23965412657E+03  0.27502652731E+03  0.82843427831E+02 0.  0.
        254    2    1    2    0    0 -0.12959755942E+02  0.10570951488E+03  0.23689737589E+04  0.25422150114E+04  0.91623034065E+03 0.  0.
         23    2    4    4    0    0  0.40721888033E+03  0.20224215666E+03  0.14824934512E+04  0.15530787554E+04  0.86819820616E+02 0.  0.
         23    2    4    4    0    0 -0.42017863627E+03 -0.96532641780E+02  0.88648030773E+03  0.98913625604E+03  0.81697978573E+02 0.  0.
          1    1    3    3  502    0 -0.15817194444E+02  0.88886411977E+00 -0.66427817389E+01  0.17178482725E+02  0.00000000000E+00 0. -1.
         -2    1    3    3    0  502  0.28776950386E+02 -0.10659837900E+03 -0.23301134483E+03  0.25784804459E+03  0.00000000000E+00 0.  1.
         13    1    5    5    0    0  0.21344212527E+02  0.16770551535E+02  0.39623256594E+02  0.48029462524E+02  0.00000000000E+00 0.  1.
        -13    1    5    5    0    0  0.38587466780E+03  0.18547160512E+03  0.14428701946E+04  0.15050492929E+04  0.00000000000E+00 0. -1.
          3    1    6    6  503    0 -0.23454278619E+03 -0.21093373767E+02  0.53533505746E+03  0.58484089522E+03  0.00000000000E+00 0. -1.
         -3    1    6    6    0  503 -0.18563585008E+03 -0.75439268012E+02  0.35114525027E+03  0.40429536082E+03  0.00000000000E+00 0.  1.
<mgrwt>
<rscale>  0 0.18446809E+04</rscale>
<asrwt>0</asrwt>
<pdfrwt beam="1">  1        1 0.38050469E+00 0.18446809E+04</pdfrwt>
<pdfrwt beam="2">  1       -2 0.52917071E-01 0.18446809E+04</pdfrwt>
<totfact> 0.39348575E+00</totfact>
</mgrwt>
</event>
<event>
12    5  0.5029243E-008  0.1544567E+04  0.7818608E-02  0.8855346E-01
         -2   -1    0    0    0  501 -0.00000000000E+00  0.00000000000E+00  0.28091272990E+03  0.28091272990E+03  0.00000000000E+00 0.  1.
          1   -1    0    0  501    0  0.00000000000E+00 -0.00000000000E+00 -0.21231564939E+04  0.21231564939E+04  0.00000000000E+00 0. -1.
        -24    2    1    2    0    0 -0.35456285878E+03  0.21596316405E+03 -0.16187659276E+03  0.45236122271E+03  0.77921341598E+02 0.  0.
        254    2    1    2    0    0  0.35456285878E+03 -0.21596316405E+03 -0.16803671713E+04  0.19517080011E+04  0.90176237575E+03 0.  0.
         23    2    4    4    0    0  0.32471177667E+03 -0.44884533358E+03 -0.15859123097E+04  0.16824010335E+04  0.91953859770E+02 0.  0.
         23    2    4    4    0    0  0.29851082107E+02  0.23288216953E+03 -0.94454861622E+02  0.26930696760E+03  0.92083277112E+02 0.  0.
          1    1    3    3  502    0 -0.73196765393E+02  0.69119446187E+02 -0.67639608616E+02  0.12128635933E+03  0.00000000000E+00 0. -1.
         -2    1    3    3    0  502 -0.28136609339E+03  0.14684371786E+03 -0.94236984141E+02  0.33107486338E+03  0.00000000000E+00 0.  1.
         13    1    5    5    0    0  0.17433839654E+02 -0.66653735358E+02 -0.15024234762E+03  0.16528588028E+03  0.00000000000E+00 0. -1.
        -13    1    5    5    0    0  0.30727793702E+03 -0.38219159822E+03 -0.14356699620E+04  0.15171151532E+04  0.00000000000E+00 0.  1.
          4    1    6    6  503    0 -0.17429938247E+02  0.47005659686E+02 -0.53247908811E+02  0.73134633263E+02  0.00000000000E+00 0. -1.
         -4    1    6    6    0  503  0.47281020354E+02  0.18587650985E+03 -0.41206952811E+02  0.19617233433E+03  0.00000000000E+00 0.  1.
<mgrwt>
<rscale>  0 0.15445668E+04</rscale>
<asrwt>0</asrwt>
<pdfrwt beam="1">  1        1 0.32663946E+00 0.15445668E+04</pdfrwt>
<pdfrwt beam="2">  1       -2 0.43217344E-01 0.15445668E+04</pdfrwt>
<totfact> 0.10567246E+01</totfact>
</mgrwt>
</event>
<event>
12    5  0.5029243E-008  0.1824909E+04  0.7818608E-02  0.8693164E-01
         -2   -1    0    0    0  501 -0.00000000000E+00  0.00000000000E+00  0.49778603925E+03  0.49778603925E+03  0.00000000000E+00 0.  1.
          1   -1    0    0  501    0  0.00000000000E+00 -0.00000000000E+00 -0.16725514749E+04  0.16725514749E+04  0.00000000000E+00 0. -1.
        -24    2    1    2    0    0 -0.60606608129E+03  0.14820941845E+03 -0.65175912922E+02  0.63228984516E+03  0.79122828917E+02 0.  0.
        254    2    1    2    0    0  0.60606608129E+03 -0.14820941845E+03 -0.11095895227E+04  0.15380476690E+04  0.86320310272E+03 0.  0.
         23    2    4    4    0    0  0.39813369687E+02  0.31188702563E+03 -0.38705265232E+03  0.50730295868E+03  0.93208985886E+02 0.  0.
         23    2    4    4    0    0  0.56625271161E+03 -0.46009644408E+03 -0.72253687040E+03  0.10307447103E+04  0.89689784766E+02 0.  0.
          3    1    3    3  502    0 -0.85202576689E+02  0.22526611939E+02  0.18310684192E+02  0.90012268472E+02  0.00000000000E+00 0. -1.
         -4    1    3    3    0  502 -0.52086350460E+03  0.12568280651E+03 -0.83486597114E+02  0.54227757669E+03  0.00000000000E+00 0.  1.
         13    1    5    5    0    0  0.13866579627E+02  0.28823612953E+03 -0.36702791865E+03  0.46688525514E+03  0.00000000000E+00 0.  1.
        -13    1    5    5    0    0  0.25946790059E+02  0.23650896099E+02 -0.20024733676E+02  0.40417703540E+02  0.00000000000E+00 0. -1.
          1    1    6    6  503    0  0.66532866570E+02 -0.20759684852E+02 -0.70811660857E+02  0.99357325661E+02  0.00000000000E+00 0. -1.
         -1    1    6    6    0  503  0.49971984504E+03 -0.43933675923E+03 -0.65172520955E+03  0.93138738465E+03  0.00000000000E+00 0.  1.
<mgrwt>
<rscale>  0 0.18249085E+04</rscale>
<asrwt>0</asrwt>
<pdfrwt beam="1">  1        1 0.25731561E+00 0.18249085E+04</pdfrwt>
<pdfrwt beam="2">  1       -2 0.76582467E-01 0.18249085E+04</pdfrwt>
<totfact> 0.62695739E+00</totfact>
</mgrwt>
</event>
<event>
12    5  0.5029243E-008  0.2662769E+04  0.7818608E-02  0.8347187E-01
          1   -1    0    0  501    0  0.00000000000E+00  0.00000000000E+00  0.11981759986E+04  0.11981759986E+04  0.00000000000E+00 0. -1.
         -2   -1    0    0    0  501 -0.00000000000E+00 -0.00000000000E+00 -0.14794025019E+04  0.14794025019E+04  0.00000000000E+00 0.  1.
        -24    2    1    2    0    0  0.56110136025E+03  0.30594521585E+03  0.87467180909E+03  0.10866330088E+04  0.85342314242E+02 0.  0.
        254    2    1    2    0    0 -0.56110136025E+03 -0.30594521585E+03 -0.11558983124E+04  0.15909454918E+04  0.88688749991E+03 0.  0.
         23    2    4    4    0    0 -0.50199624698E+03 -0.27752205790E+03 -0.17934907143E+03  0.60781416357E+03  0.90847363261E+02 0.  0.
         23    2    4    4    0    0 -0.59105113266E+02 -0.28423157945E+02 -0.97654924099E+03  0.98313132818E+03  0.92722694295E+02 0.  0.
          1    1    3    3  502    0  0.36239729541E+03  0.17084959753E+03  0.60276673207E+03  0.72377421755E+03  0.00000000000E+00 0. -1.
         -2    1    3    3    0  502  0.19870406484E+03  0.13509561832E+03  0.27190507702E+03  0.36285879124E+03  0.00000000000E+00 0.  1.
         13    1    5    5    0    0 -0.16125670540E+03 -0.13300618549E+03 -0.43210734117E+02  0.21345148854E+03  0.00000000000E+00 0. -1.
        -13    1    5    5    0    0 -0.34073954158E+03 -0.14451587241E+03 -0.13613833731E+03  0.39436267503E+03  0.00000000000E+00 0.  1.
          4    1    6    6  503    0  0.95605450876E+01  0.21387104921E+02 -0.11160541244E+03  0.11403762697E+03  0.00000000000E+00 0.  1.
         -4    1    6    6    0  503 -0.68665658353E+02 -0.49810262866E+02 -0.86494382855E+03  0.86909370120E+03  0.00000000000E+00 0. -1.
<mgrwt>
<rscale>  0 0.26627689E+04</rscale>
<asrwt>0</asrwt>
<pdfrwt beam="1">  1        1 0.18433477E+00 0.26627689E+04</pdfrwt>
<pdfrwt beam="2">  1       -2 0.22760038E+00 0.26627689E+04</pdfrwt>
<totfact> 0.72926803E-01</totfact>
</mgrwt>
</event>
<event>
12    5  0.5029243E-008  0.1724929E+04  0.7818608E-02  0.8747273E-01
          1   -1    0    0  501    0  0.00000000000E+00  0.00000000000E+00  0.11823579964E+04  0.11823579964E+04  0.00000000000E+00 0. -1.
         -2   -1    0    0    0  501 -0.00000000000E+00 -0.00000000000E+00 -0.62912026706E+03  0.62912026706E+03  0.00000000000E+00 0.  1.
        -24    2    1    2    0    0  0.41145645894E+03  0.43728862449E+03  0.39247764161E+03  0.72177556857E+03  0.80021956327E+02 0.  0.
        254    2    1    2    0    0 -0.41145645894E+03 -0.43728862449E+03  0.16076008777E+03  0.10897026949E+04  0.89503653489E+03 0.  0.
         23    2    4    4    0    0 -0.26630996861E+02 -0.19925030896E+03 -0.34240594628E+03  0.40694650035E+03  0.89183667125E+02 0.  0.
         23    2    4    4    0    0 -0.38482546208E+03 -0.23803831554E+03  0.50316603405E+03  0.68275619458E+03  0.90703293638E+02 0.  0.
          3    1    3    3  502    0  0.37283421767E+03  0.42344960863E+03  0.35804997411E+03  0.66821756103E+03  0.00000000000E+00 0. -1.
         -4    1    3    3    0  502  0.38622241276E+02  0.13839015865E+02  0.34427667502E+02  0.53558007533E+02  0.00000000000E+00 0.  1.
         13    1    5    5    0    0 -0.47005412425E+02 -0.78472972479E+02 -0.10113967121E+03  0.13636989881E+03  0.00000000000E+00 0. -1.
        -13    1    5    5    0    0  0.20374415565E+02 -0.12077733648E+03 -0.24126627507E+03  0.27057660154E+03  0.00000000000E+00 0.  1.
          3    1    6    6  503    0 -0.82518256471E+02 -0.69882676238E+02  0.17634961663E+03  0.20686236577E+03  0.00000000000E+00 0. -1.
         -3    1    6    6    0  503 -0.30230720561E+03 -0.16815563930E+03  0.32681641743E+03  0.47589382880E+03  0.00000000000E+00 0.  1.
<mgrwt>
<rscale>  0 0.17249294E+04</rscale>
<asrwt>0</asrwt>
<pdfrwt beam="1">  1        1 0.18190123E+00 0.17249294E+04</pdfrwt>
<pdfrwt beam="2">  1       -2 0.96787733E-01 0.17249294E+04</pdfrwt>
<totfact> 0.81805927E+00</totfact>
</mgrwt>
</event>
<event>
12    5  0.5029243E-008  0.1404827E+04  0.7818608E-02  0.8950332E-01
          1   -1    0    0  501    0  0.00000000000E+00  0.00000000000E+00  0.42711019793E+03  0.42711019793E+03  0.00000000000E+00 0. -1.
         -2   -1    0    0    0  501 -0.00000000000E+00 -0.00000000000E+00 -0.11551703941E+04  0.11551703941E+04  0.00000000000E+00 0.  1.
        -24    2    1    2    0    0  0.27388542110E+03 -0.17317068924E+03  0.71236065850E+02  0.34136512938E+03  0.80338427798E+02 0.  0.
        254    2    1    2    0    0 -0.27388542110E+03  0.17317068924E+03 -0.79929626203E+03  0.12409154627E+04  0.89218572027E+03 0.  0.
         23    2    4    4    0    0 -0.49619657800E+03 -0.71392829018E+02 -0.19341812145E+03  0.54499401710E+03  0.91103945651E+02 0.  0.
         23    2    4    4    0    0  0.22231115690E+03  0.24456351825E+03 -0.60587814058E+03  0.69592144555E+03  0.89357552562E+02 0.  0.
          3    1    3    3  502    0  0.16695212038E+03 -0.63735413973E+02  0.19107180591E+02  0.17972283618E+03  0.00000000000E+00 0. -1.
         -4    1    3    3    0  502  0.10693330072E+03 -0.10943527526E+03  0.52128885259E+02  0.16164229320E+03  0.00000000000E+00 0.  1.
         13    1    5    5    0    0 -0.85652705341E+02  0.20677801577E+02 -0.23132398318E+02  0.91099205607E+02  0.00000000000E+00 0. -1.
        -13    1    5    5    0    0 -0.41054387266E+03 -0.92070630595E+02 -0.17028572313E+03  0.45389481149E+03  0.00000000000E+00 0.  1.
          3    1    6    6  503    0  0.73872005087E+01  0.42140883543E+02 -0.11973087194E+03  0.12714521813E+03  0.00000000000E+00 0. -1.
         -3    1    6    6    0  503  0.21492395640E+03  0.20242263471E+03 -0.48614726864E+03  0.56877622743E+03  0.00000000000E+00 0.  1.
<mgrwt>
<rscale>  0 0.14048275E+04</rscale>
<asrwt>0</asrwt>
<pdfrwt beam="1">  1        1 0.65709263E-01 0.14048275E+04</pdfrwt>
<pdfrwt beam="2">  1       -2 0.17771852E+00 0.14048275E+04</pdfrwt>
<totfact> 0.87938561E+00</totfact>
</mgrwt>
</event>
<event>
12    5  0.5029243E-008  0.1491894E+04  0.7818608E-02  0.8889861E-01
          1   -1    0    0  501    0  0.00000000000E+00  0.00000000000E+00  0.57345169122E+03  0.57345169122E+03  0.00000000000E+00 0. -1.
         -2   -1    0    0    0  501 -0.00000000000E+00 -0.00000000000E+00 -0.97032960584E+03  0.97032960584E+03  0.00000000000E+00 0.  1.
        -24    2    1    2    0    0  0.24636203468E+03 -0.18417160999E+03  0.23354357510E+03  0.39472834145E+03  0.81574677548E+02 0.  0.
        254    2    1    2    0    0 -0.24636203468E+03  0.18417160999E+03 -0.63042148972E+03  0.11490529556E+04  0.91009780027E+03 0.  0.
         23    2    4    4    0    0 -0.81727608687E+02 -0.17346871202E+03  0.15695374939E+03  0.26410457246E+03  0.91356169334E+02 0.  0.
         23    2    4    4    0    0 -0.16463442599E+03  0.35764032200E+03 -0.78737523910E+03  0.88494838316E+03  0.90348102093E+02 0.  0.
          1    1    3    3  502    0  0.12384354632E+03 -0.10341308617E+03  0.17133954112E+03  0.23534810114E+03  0.00000000000E+00 0. -1.
         -2    1    3    3    0  502  0.12251848836E+03 -0.80758523815E+02  0.62204033972E+02  0.15938024031E+03  0.00000000000E+00 0.  1.
         13    1    5    5    0    0 -0.18619498855E+02 -0.10455142691E+03  0.12790991662E+03  0.16624870940E+03  0.00000000000E+00 0.  1.
        -13    1    5    5    0    0 -0.63108109833E+02 -0.68917285108E+02  0.29043832766E+02  0.97855863059E+02  0.00000000000E+00 0. -1.
          3    1    6    6  503    0  0.32571221478E+01  0.40540415562E+02 -0.12753631356E+03  0.13386427983E+03  0.00000000000E+00 0. -1.
         -3    1    6    6    0  503 -0.16789154814E+03  0.31709990644E+03 -0.65983892555E+03  0.75108410332E+03  0.00000000000E+00 0.  1.
<mgrwt>
<rscale>  0 0.14918943E+04</rscale>
<asrwt>0</asrwt>
<pdfrwt beam="1">  1        1 0.88223337E-01 0.14918943E+04</pdfrwt>
<pdfrwt beam="2">  1       -2 0.14928148E+00 0.14918943E+04</pdfrwt>
<totfact> 0.93881911E+00</totfact>
</mgrwt>
</event>
<event>
12    5  0.5029243E-008  0.1513616E+04  0.7818608E-02  0.8875449E-01
         -2   -1    0    0    0  501 -0.00000000000E+00  0.00000000000E+00  0.18037109363E+04  0.18037109363E+04  0.00000000000E+00 0.  1.
          1   -1    0    0  501    0  0.00000000000E+00 -0.00000000000E+00 -0.31754448261E+03  0.31754448261E+03  0.00000000000E+00 0. -1.
        -24    2    1    2    0    0  0.20887323389E+03 -0.42177179276E+03  0.32868014017E+03  0.57961855362E+03  0.80047236978E+02 0.  0.
        254    2    1    2    0    0 -0.20887323389E+03  0.42177179276E+03  0.11574863135E+04  0.15416368653E+04  0.90296743322E+03 0.  0.
         23    2    4    4    0    0 -0.49451515548E+02 -0.24746029423E+03  0.12047008772E+03  0.29378695361E+03  0.90087082664E+02 0.  0.
         23    2    4    4    0    0 -0.15942171835E+03  0.66923208699E+03  0.10370162258E+04  0.12478499117E+04  0.91868814012E+02 0.  0.
          3    1    3    3  502    0  0.21591781013E+03 -0.40247240659E+03  0.31729376959E+03  0.55612936896E+03  0.00000000000E+00 0. -1.
         -4    1    3    3    0  502 -0.70445762345E+01 -0.19299386173E+02  0.11386370577E+02  0.23489184658E+02  0.00000000000E+00 0.  1.
         13    1    5    5    0    0 -0.22988396048E+02 -0.21270377674E+03  0.12821681059E+03  0.24942115690E+03  0.00000000000E+00 0. -1.
        -13    1    5    5    0    0 -0.26463119500E+02 -0.34756517490E+02 -0.77467228728E+01  0.44365796702E+02  0.00000000000E+00 0.  1.
          1    1    6    6  503    0 -0.15094129531E+03  0.66298925733E+03  0.10327431213E+04  0.12364854971E+04  0.00000000000E+00 0. -1.
         -1    1    6    6    0  503 -0.84804230312E+01  0.62428296615E+01  0.42731045285E+01  0.11364414604E+02  0.00000000000E+00 0.  1.
<mgrwt>
<rscale>  0 0.15136161E+04</rscale>
<asrwt>0</asrwt>
<pdfrwt beam="1">  1        1 0.48852999E-01 0.15136161E+04</pdfrwt>
<pdfrwt beam="2">  1       -2 0.27749398E+00 0.15136161E+04</pdfrwt>
<totfact> 0.30029895E+00</totfact>
</mgrwt>
</event>
<event>
12    5  0.5029243E-008  0.1281675E+04  0.7818608E-02  0.9044224E-01
          1   -1    0    0  501    0  0.00000000000E+00  0.00000000000E+00  0.20606572002E+04  0.20606572002E+04  0.00000000000E+00 0. -1.
         -2   -1    0    0    0  501 -0.00000000000E+00 -0.00000000000E+00 -0.19929219042E+03  0.19929219042E+03  0.00000000000E+00 0.  1.
        -24    2    1    2    0    0 -0.13111149011E+02 -0.67889060169E+02 -0.68611265382E+02  0.12873222275E+03  0.84164438565E+02 0.  0.
        254    2    1    2    0    0  0.13111149011E+02  0.67889060169E+02  0.19299762751E+04  0.21312171678E+04  0.90138635842E+03 0.  0.
         23    2    4    4    0    0  0.26015389378E+03  0.38136377464E+03  0.12725904329E+04  0.13567527573E+04  0.90406070559E+02 0.  0.
         23    2    4    4    0    0 -0.24704274476E+03 -0.31347471447E+03  0.65738584225E+03  0.77446441050E+03  0.91337085514E+02 0.  0.
          1    1    3    3  502    0 -0.35450134752E+02 -0.45131114513E+01 -0.47879134618E+01  0.36055572998E+02  0.00000000000E+00 0. -1.
         -2    1    3    3    0  502  0.22338985741E+02 -0.63375948717E+02 -0.63823351920E+02  0.92676649757E+02  0.00000000000E+00 0.  1.
         13    1    5    5    0    0  0.16357712838E+03  0.15975662273E+03  0.61068791040E+03  0.65208847510E+03  0.00000000000E+00 0. -1.
        -13    1    5    5    0    0  0.96576765390E+02  0.22160715190E+03  0.66190252249E+03  0.70466428224E+03  0.00000000000E+00 0.  1.
          3    1    6    6  503    0 -0.99824114231E+02 -0.68627875277E+02  0.23732578199E+03  0.26645481013E+03  0.00000000000E+00 0. -1.
         -3    1    6    6    0  503 -0.14721863053E+03 -0.24484683919E+03  0.42006006026E+03  0.50800960037E+03  0.00000000000E+00 0.  1.
<mgrwt>
<rscale>  0 0.12816753E+04</rscale>
<asrwt>0</asrwt>
<pdfrwt beam="1">  1        1 0.31702417E+00 0.12816753E+04</pdfrwt>
<pdfrwt beam="2">  1       -2 0.30660338E-01 0.12816753E+04</pdfrwt>
<totfact> 0.23085755E+01</totfact>
</mgrwt>
</event>
<event>
12    5  0.5029243E-008  0.1329819E+04  0.7818608E-02  0.9006247E-01
         -2   -1    0    0    0  501 -0.00000000000E+00  0.00000000000E+00  0.29408955927E+03  0.29408955927E+03  0.00000000000E+00 0.  1.
          1   -1    0    0  501    0  0.00000000000E+00 -0.00000000000E+00 -0.15032986717E+04  0.15032986717E+04  0.00000000000E+00 0. -1.
        -24    2    1    2    0    0  0.59213664967E+02 -0.23474463478E+03 -0.67673699763E+03  0.72286768219E+03  0.77158410557E+02 0.  0.
        254    2    1    2    0    0 -0.59213664967E+02  0.23474463478E+03 -0.53247211484E+03  0.10745205488E+04  0.90136371964E+03 0.  0.
         23    2    4    4    0    0 -0.33495866812E+03  0.33336029898E+03 -0.25581531727E+02  0.48210673694E+03  0.91902626485E+02 0.  0.
         23    2    4    4    0    0  0.27574500315E+03 -0.98615664206E+02 -0.50689058311E+03  0.59241381188E+03  0.90860911688E+02 0.  0.
          3    1    3    3  502    0  0.53631721672E+02 -0.23464152920E+03 -0.60807007542E+03  0.65397417794E+03  0.00000000000E+00 0. -1.
         -4    1    3    3    0  502  0.55819432951E+01 -0.10310557573E+00 -0.68666922215E+02  0.68893504252E+02  0.00000000000E+00 0.  1.
         13    1    5    5    0    0 -0.31694826122E+03  0.33737048513E+03 -0.26260246658E+02  0.46364279902E+03  0.00000000000E+00 0. -1.
        -13    1    5    5    0    0 -0.18010406892E+02 -0.40101861533E+01  0.67871493127E+00  0.18463937916E+02  0.00000000000E+00 0.  1.
          3    1    6    6  503    0  0.27879896608E+03 -0.10568071162E+03 -0.49963996125E+03  0.58183964043E+03  0.00000000000E+00 0. -1.
         -3    1    6    6    0  503 -0.30539629293E+01  0.70650474149E+01 -0.72506218576E+01  0.10574171451E+02  0.00000000000E+00 0.  1.
<mgrwt>
<rscale>  0 0.13298187E+04</rscale>
<asrwt>0</asrwt>
<pdfrwt beam="1">  1        1 0.23127672E+00 0.13298187E+04</pdfrwt>
<pdfrwt beam="2">  1       -2 0.45244547E-01 0.13298187E+04</pdfrwt>
<totfact> 0.25929981E+01</totfact>
</mgrwt>
</event>
<event>
12    5  0.5029243E-008  0.2309850E+04  0.7818608E-02  0.8474047E-01
         -2   -1    0    0    0  501 -0.00000000000E+00  0.00000000000E+00  0.48609521704E+03  0.48609521704E+03  0.00000000000E+00 0.  1.
          1   -1    0    0  501    0  0.00000000000E+00 -0.00000000000E+00 -0.27440142626E+04  0.27440142626E+04  0.00000000000E+00 0. -1.
        -24    2    1    2    0    0  0.22088587621E+03 -0.15970784407E+03  0.35569257675E+03  0.45173503175E+03  0.57010209498E+02 0.  0.
        254    2    1    2    0    0 -0.22088587621E+03  0.15970784407E+03 -0.26136116224E+04  0.27783744479E+04  0.90227584178E+03 0.  0.
         23    2    4    4    0    0 -0.39700667715E+03 -0.67790135973E+02 -0.23228371241E+04  0.23592961527E+04  0.92174979728E+02 0.  0.
         23    2    4    4    0    0  0.17612080094E+03  0.22749798005E+03 -0.29077449830E+03  0.41907829526E+03  0.91120476562E+02 0.  0.
          3    1    3    3  502    0  0.17913486964E+02 -0.34956891069E+01  0.48233659069E+02  0.51571297489E+02  0.00000000000E+00 0. -1.
         -4    1    3    3    0  502  0.20297238924E+03 -0.15621215496E+03  0.30745891768E+03  0.40016373426E+03  0.00000000000E+00 0.  1.
         13    1    5    5    0    0 -0.20338183028E+03 -0.45542164003E+01 -0.95967757881E+03  0.98100253060E+03  0.00000000000E+00 0. -1.
        -13    1    5    5    0    0 -0.19362484688E+03 -0.63235919573E+02 -0.13631595452E+04  0.13782936221E+04  0.00000000000E+00 0.  1.
          4    1    6    6  503    0  0.73497963419E+02  0.31042767177E+02 -0.68090498914E+02  0.10489003796E+03  0.00000000000E+00 0. -1.
         -4    1    6    6    0  503  0.10262283752E+03  0.19645521287E+03 -0.22268399938E+03  0.31418825730E+03  0.00000000000E+00 0.  1.
<mgrwt>
<rscale>  0 0.23098504E+04</rscale>
<asrwt>0</asrwt>
<pdfrwt beam="1">  1        1 0.42215604E+00 0.23098504E+04</pdfrwt>
<pdfrwt beam="2">  1       -2 0.74783879E-01 0.23098504E+04</pdfrwt>
<totfact> 0.11654217E+00</totfact>
</mgrwt>
</event>
<event>
12    5  0.5029243E-008  0.1370661E+04  0.7818608E-02  0.8975334E-01
         -2   -1    0    0    0  501 -0.00000000000E+00  0.00000000000E+00  0.16539113820E+03  0.16539113820E+03  0.00000000000E+00 0.  1.
          1   -1    0    0  501    0  0.00000000000E+00 -0.00000000000E+00 -0.28398010800E+04  0.28398010800E+04  0.00000000000E+00 0. -1.
        -24    2    1    2    0    0 -0.28534439476E+03  0.16818527146E+03 -0.34845923594E+03  0.48721972736E+03  0.79066519162E+02 0.  0.
        254    2    1    2    0    0  0.28534439476E+03 -0.16818527146E+03 -0.23259507058E+04  0.25179724908E+04  0.90577650081E+03 0.  0.
         23    2    4    4    0    0  0.39855662211E+03 -0.47076958838E+03 -0.16407427589E+04  0.17551090157E+04  0.88878961906E+02 0.  0.
         23    2    4    4    0    0 -0.11321222735E+03  0.30258431692E+03 -0.68520794696E+03  0.76286347511E+03  0.89869203907E+02 0.  0.
          1    1    3    3  502    0 -0.24941303367E+02 -0.17970405673E+01 -0.83225977923E+01  0.26354574602E+02  0.00000000000E+00 0. -1.
         -4    1    3    3    0  502 -0.26040309140E+03  0.16998231203E+03 -0.34013663815E+03  0.46086515275E+03  0.00000000000E+00 0.  1.
         13    1    5    5    0    0  0.14649558285E+03 -0.23585709452E+03 -0.68331829544E+03  0.73757265250E+03  0.00000000000E+00 0.  1.
        -13    1    5    5    0    0  0.25206103926E+03 -0.23491249387E+03 -0.95742446342E+03  0.10175363632E+04  0.00000000000E+00 0. -1.
          3    1    6    6  503    0 -0.23726123333E+01 -0.50935555151E+01 -0.30585433941E+02  0.31097304810E+02  0.00000000000E+00 0. -1.
         -3    1    6    6    0  503 -0.11083961501E+03  0.30767787244E+03 -0.65462251302E+03  0.73176617030E+03  0.00000000000E+00 0.  1.
<mgrwt>
<rscale>  0 0.13706611E+04</rscale>
<asrwt>0</asrwt>
<pdfrwt beam="1">  1        1 0.43689242E+00 0.13706611E+04</pdfrwt>
<pdfrwt beam="2">  1       -2 0.25444794E-01 0.13706611E+04</pdfrwt>
<totfact> 0.93689120E+00</totfact>
</mgrwt>
</event>
<event>
12    5  0.5029243E-008  0.1860945E+04  0.7818608E-02  0.8674545E-01
         -2   -1    0    0    0  501 -0.00000000000E+00  0.00000000000E+00  0.91323809073E+03  0.91323809073E+03  0.00000000000E+00 0.  1.
          1   -1    0    0  501    0  0.00000000000E+00 -0.00000000000E+00 -0.94803184067E+03  0.94803184067E+03  0.00000000000E+00 0. -1.
        -24    2    1    2    0    0  0.28973808324E+03 -0.55557919456E+03  0.32256445830E+03  0.70933430514E+03  0.80566298068E+02 0.  0.
        254    2    1    2    0    0 -0.28973808324E+03  0.55557919456E+03 -0.35735820824E+03  0.11519356263E+04  0.89812827577E+03 0.  0.
         23    2    4    4    0    0 -0.36905866698E+03  0.84167977145E+02 -0.51061643446E+03  0.64162129390E+03  0.87522531933E+02 0.  0.
         23    2    4    4    0    0  0.79320583738E+02  0.47141121742E+03  0.15325822622E+03  0.51031433236E+03  0.91718825744E+02 0.  0.
          3    1    3    3  502    0  0.10073125050E+02 -0.59911684604E+02  0.48097659591E+02  0.77487177381E+02  0.00000000000E+00 0. -1.
         -4    1    3    3    0  502  0.27966495819E+03 -0.49566750996E+03  0.27446679871E+03  0.63184712776E+03  0.00000000000E+00 0.  1.
         13    1    5    5    0    0  0.42234270822E+01  0.48919619180E+01 -0.13096180840E+02  0.14604060405E+02  0.00000000000E+00 0.  1.
        -13    1    5    5    0    0 -0.37328209406E+03  0.79276015227E+02 -0.49752025362E+03  0.62701723350E+03  0.00000000000E+00 0. -1.
          1    1    6    6  503    0  0.86795501016E+02  0.44368942022E+03  0.16208500149E+03  0.48027628332E+03  0.00000000000E+00 0. -1.
         -1    1    6    6    0  503 -0.74749172782E+01  0.27721797193E+02 -0.88267752769E+01  0.30038049033E+02  0.00000000000E+00 0.  1.
<mgrwt>
<rscale>  0 0.18609447E+04</rscale>
<asrwt>0</asrwt>
<pdfrwt beam="1">  1        1 0.14585105E+00 0.18609447E+04</pdfrwt>
<pdfrwt beam="2">  1       -2 0.14049817E+00 0.18609447E+04</pdfrwt>
<totfact> 0.48699566E+00</totfact>
</mgrwt>
</event>
<event>
12    5  0.5029243E-008  0.2622318E+04  0.7818608E-02  0.8360660E-01
         -2   -1    0    0    0  501 -0.00000000000E+00  0.00000000000E+00  0.74883136187E+03  0.74883136187E+03  0.00000000000E+00 0.  1.
          1   -1    0    0  501    0  0.00000000000E+00 -0.00000000000E+00 -0.22957611446E+04  0.22957611446E+04  0.00000000000E+00 0. -1.
        -24    2    1    2    0    0  0.96102199991E+03  0.64075918599E+03 -0.56531087030E+03  0.12887913895E+04  0.85271605488E+02 0.  0.
        254    2    1    2    0    0 -0.96102199991E+03 -0.64075918599E+03 -0.98161891246E+03  0.17558011170E+04  0.88607350405E+03 0.  0.
         23    2    4    4    0    0  0.13703212731E+03 -0.72079612097E+01 -0.21786514330E+03  0.27288783244E+03  0.90403483367E+02 0.  0.
         23    2    4    4    0    0 -0.10980541272E+04 -0.63355122478E+03 -0.76375376916E+03  0.14829132846E+04  0.92746800691E+02 0.  0.
          1    1    3    3  502    0  0.43179756249E+03  0.29314747791E+03 -0.30254607282E+03  0.60325674879E+03  0.00000000000E+00 0. -1.
         -2    1    3    3    0  502  0.52922443742E+03  0.34761170808E+03 -0.26276479748E+03  0.68553464066E+03  0.00000000000E+00 0.  1.
         13    1    5    5    0    0  0.12306045304E+03 -0.34792323768E+02 -0.19936203909E+03  0.23685354869E+03  0.00000000000E+00 0.  1.
        -13    1    5    5    0    0  0.13971674272E+02  0.27584362559E+02 -0.18503104210E+02  0.36034283747E+02  0.00000000000E+00 0. -1.
          3    1    6    6  503    0 -0.55592920217E+03 -0.31727419727E+03 -0.43959221006E+03  0.77650595956E+03  0.00000000000E+00 0. -1.
         -3    1    6    6    0  503 -0.54212492506E+03 -0.31627702750E+03 -0.32416155909E+03  0.70640732505E+03  0.00000000000E+00 0.  1.
<mgrwt>
<rscale>  0 0.26223180E+04</rscale>
<asrwt>0</asrwt>
<pdfrwt beam="1">  1        1 0.35319402E+00 0.26223180E+04</pdfrwt>
<pdfrwt beam="2">  1       -2 0.11520483E+00 0.26223180E+04</pdfrwt>
<totfact> 0.84993726E-01</totfact>
</mgrwt>
</event>
<event>
12    5  0.5029243E-008  0.2547909E+04  0.7818608E-02  0.8386114E-01
          1   -1    0    0  501    0  0.00000000000E+00  0.00000000000E+00  0.11818537384E+04  0.11818537384E+04  0.00000000000E+00 0. -1.
         -2   -1    0    0    0  501 -0.00000000000E+00 -0.00000000000E+00 -0.13732322358E+04  0.13732322358E+04  0.00000000000E+00 0.  1.
        -24    2    1    2    0    0  0.28272027130E+02  0.15033815618E+03 -0.11869343452E+04  0.11994409647E+04  0.80278385914E+02 0.  0.
        254    2    1    2    0    0 -0.28272027130E+02 -0.15033815618E+03  0.99555584776E+03  0.13556450095E+04  0.90732633445E+03 0.  0.
         23    2    4    4    0    0  0.54281062335E+02  0.11301824729E+03  0.10488672320E+04  0.10603171610E+04  0.91817502069E+02 0.  0.
         23    2    4    4    0    0 -0.82553089465E+02 -0.26335640347E+03 -0.53311384194E+02  0.29532784855E+03  0.90580497998E+02 0.  0.
          1    1    3    3  502    0  0.40900910266E+02  0.88337582083E+02 -0.48580439748E+03  0.49546172958E+03  0.00000000000E+00 0. -1.
         -2    1    3    3    0  502 -0.12628883136E+02  0.62000574100E+02 -0.70112994772E+03  0.70397923511E+03  0.00000000000E+00 0.  1.
         13    1    5    5    0    0 -0.24357212638E+02  0.11924288444E+02  0.20489474957E+03  0.20668168971E+03  0.00000000000E+00 0. -1.
        -13    1    5    5    0    0  0.78638274973E+02  0.10109395884E+03  0.84397248239E+03  0.85363547128E+03  0.00000000000E+00 0.  1.
          2    1    6    6  503    0 -0.25721026878E+02 -0.22977303595E+02 -0.32594549869E+02  0.47454529661E+02  0.00000000000E+00 0. -1.
         -2    1    6    6    0  503 -0.56832062587E+02 -0.24037909987E+03 -0.20716834325E+02  0.24787331889E+03  0.00000000000E+00 0.  1.
<mgrwt>
<rscale>  0 0.25479087E+04</rscale>
<asrwt>0</asrwt>
<pdfrwt beam="1">  1        1 0.18182365E+00 0.25479087E+04</pdfrwt>
<pdfrwt beam="2">  1       -2 0.21126650E+00 0.25479087E+04</pdfrwt>
<totfact> 0.96121241E-01</totfact>
</mgrwt>
</event>
<event>
12    5  0.5029243E-008  0.1281912E+04  0.7818608E-02  0.9044033E-01
          1   -1    0    0  501    0  0.00000000000E+00  0.00000000000E+00  0.45141753423E+03  0.45141753423E+03  0.00000000000E+00 0. -1.
         -2   -1    0    0    0  501 -0.00000000000E+00 -0.00000000000E+00 -0.91007690309E+03  0.91007690309E+03  0.00000000000E+00 0.  1.
        -24    2    1    2    0    0  0.22146892812E+03  0.23327784720E+03 -0.12633197491E+03  0.35478016437E+03  0.80263048989E+02 0.  0.
        254    2    1    2    0    0 -0.22146892812E+03 -0.23327784720E+03 -0.33232739396E+03  0.10067142729E+04  0.89418403613E+03 0.  0.
         23    2    4    4    0    0 -0.19705383693E+03 -0.39840919470E+03  0.15891184769E+03  0.47989155068E+03  0.86503317902E+02 0.  0.
         23    2    4    4    0    0 -0.24415091194E+02  0.16513134750E+03 -0.49123924165E+03  0.52682272227E+03  0.91442493170E+02 0.  0.
          3    1    3    3  502    0  0.16989406268E+03  0.20265564418E+03 -0.13002485595E+03  0.29468587652E+03  0.00000000000E+00 0. -1.
         -2    1    3    3    0  502  0.51574865438E+02  0.30622203015E+02  0.36928810450E+01  0.60094287856E+02  0.00000000000E+00 0.  1.
         13    1    5    5    0    0 -0.16359490583E+02 -0.67884530104E+02  0.55681584853E+02  0.89310588685E+02  0.00000000000E+00 0.  1.
        -13    1    5    5    0    0 -0.18069434634E+03 -0.33052466460E+03  0.10323026284E+03  0.39058096199E+03  0.00000000000E+00 0. -1.
          1    1    6    6  503    0  0.93287327040E+01  0.38240241060E+02 -0.37124744683E+02  0.54107189522E+02  0.00000000000E+00 0. -1.
         -1    1    6    6    0  503 -0.33743823898E+02  0.12689110644E+03 -0.45411449696E+03  0.47271553274E+03  0.00000000000E+00 0.  1.
<mgrwt>
<rscale>  0 0.12819121E+04</rscale>
<asrwt>0</asrwt>
<pdfrwt beam="1">  1        1 0.69448851E-01 0.12819121E+04</pdfrwt>
<pdfrwt beam="2">  1       -2 0.14001183E+00 0.12819121E+04</pdfrwt>
<totfact> 0.15732954E+01</totfact>
</mgrwt>
</event>
<event>
12    5  0.5029243E-008  0.1991202E+04  0.7818608E-02  0.8610745E-01
         -2   -1    0    0    0  501 -0.00000000000E+00  0.00000000000E+00  0.56399131845E+03  0.56399131845E+03  0.00000000000E+00 0.  1.
          1   -1    0    0  501    0  0.00000000000E+00 -0.00000000000E+00 -0.17575111864E+04  0.17575111864E+04  0.00000000000E+00 0. -1.
        -24    2    1    2    0    0  0.55459639334E+03 -0.39010441354E+03 -0.67076081137E+01  0.68267974845E+03  0.79044506201E+02 0.  0.
        254    2    1    2    0    0 -0.55459639334E+03  0.39010441354E+03 -0.11868122598E+04  0.16388227564E+04  0.90413388047E+03 0.  0.
         23    2    4    4    0    0  0.31782759557E+02 -0.51160565483E+02  0.10453318977E+03  0.15073580400E+03  0.90368952512E+02 0.  0.
         23    2    4    4    0    0 -0.58637915290E+03  0.44126497903E+03 -0.12913454496E+04  0.14880869524E+04  0.90963811589E+02 0.  0.
          1    1    3    3  502    0  0.13051727832E+03 -0.13449651299E+03 -0.64361183020E+01  0.18752465322E+03  0.00000000000E+00 0. -1.
         -2    1    3    3    0  502  0.42407911502E+03 -0.25560790056E+03 -0.27148981169E+00  0.49515509523E+03  0.00000000000E+00 0.  1.
         13    1    5    5    0    0 -0.79803725967E+01 -0.59328362309E+02  0.89027095592E+02  0.10728170706E+03  0.00000000000E+00 0. -1.
        -13    1    5    5    0    0  0.39763132154E+02  0.81677968260E+01  0.15506094175E+02  0.43454096933E+02  0.00000000000E+00 0.  1.
          4    1    6    6  503    0 -0.41451011137E+03  0.36148691524E+03 -0.95807365359E+03  0.11047155960E+04  0.00000000000E+00 0. -1.
         -4    1    6    6    0  503 -0.17186904153E+03  0.79778063784E+02 -0.33327179601E+03  0.38337135641E+03  0.00000000000E+00 0.  1.
<mgrwt>
<rscale>  0 0.19912017E+04</rscale>
<asrwt>0</asrwt>
<pdfrwt beam="1">  1        1 0.27038633E+00 0.19912017E+04</pdfrwt>
<pdfrwt beam="2">  1       -2 0.86767896E-01 0.19912017E+04</pdfrwt>
<totfact> 0.40800177E+00</totfact>
</mgrwt>
</event>
<event>
12    5  0.5029243E-008  0.1831374E+04  0.7818608E-02  0.8689791E-01
         -2   -1    0    0    0  501 -0.00000000000E+00  0.00000000000E+00  0.73905800684E+03  0.73905800684E+03  0.00000000000E+00 0.  1.
          1   -1    0    0  501    0  0.00000000000E+00 -0.00000000000E+00 -0.11345287977E+04  0.11345287977E+04  0.00000000000E+00 0. -1.
        -24    2    1    2    0    0  0.41394966927E+03 -0.19974501485E+03 -0.68655505547E+03  0.82999816582E+03  0.79288784968E+02 0.  0.
        254    2    1    2    0    0 -0.41394966927E+03  0.19974501485E+03  0.29108426460E+03  0.10435886387E+04  0.89055869999E+03 0.  0.
         23    2    4    4    0    0 -0.43535262517E+03  0.87951575787E+02 -0.22620851409E+03  0.50606781396E+03  0.87561136053E+02 0.  0.
         23    2    4    4    0    0  0.21402955901E+02  0.11179343907E+03  0.51729277869E+03  0.53752082477E+03  0.91547575795E+02 0.  0.
          3    1    3    3  502    0  0.35639442583E+03 -0.13848687205E+03 -0.56348881000E+03  0.68096640114E+03  0.00000000000E+00 0. -1.
         -4    1    3    3    0  502  0.57555243438E+02 -0.61258142806E+02 -0.12306624547E+03  0.14903176467E+03  0.00000000000E+00 0.  1.
         13    1    5    5    0    0 -0.36708541860E+02  0.17306122203E+02 -0.50345198186E+02  0.64665739705E+02  0.00000000000E+00 0.  1.
        -13    1    5    5    0    0 -0.39864408331E+03  0.70645453584E+02 -0.17586331591E+03  0.44140207425E+03  0.00000000000E+00 0. -1.
          4    1    6    6  503    0  0.44532920185E+02  0.10969892643E+03  0.47198351067E+03  0.48660607249E+03  0.00000000000E+00 0. -1.
         -4    1    6    6    0  503 -0.23129964284E+02  0.20945126406E+01  0.45309268021E+02  0.50914752279E+02  0.00000000000E+00 0.  1.
<mgrwt>
<rscale>  0 0.18313739E+04</rscale>
<asrwt>0</asrwt>
<pdfrwt beam="1">  1        1 0.17454289E+00 0.18313739E+04</pdfrwt>
<pdfrwt beam="2">  1       -2 0.11370123E+00 0.18313739E+04</pdfrwt>
<totfact> 0.59765307E+00</totfact>
</mgrwt>
</event>
<event>
12    5  0.5029243E-008  0.2403274E+04  0.7818608E-02  0.8438279E-01
          1   -1    0    0  501    0  0.00000000000E+00  0.00000000000E+00  0.20904317860E+04  0.20904317860E+04  0.00000000000E+00 0. -1.
         -2   -1    0    0    0  501 -0.00000000000E+00 -0.00000000000E+00 -0.69073384628E+03  0.69073384628E+03  0.00000000000E+00 0.  1.
        -24    2    1    2    0    0 -0.59907295248E+03 -0.38787201495E+03  0.14447646009E+04  0.16133387452E+04  0.78638746653E+02 0.  0.
        254    2    1    2    0    0  0.59907295248E+03  0.38787201495E+03 -0.45066661114E+02  0.11678268871E+04  0.92328518449E+03 0.  0.
         23    2    4    4    0    0  0.81523329053E+03  0.37430714081E+03  0.74638914484E+02  0.90438550142E+03  0.87355675033E+02 0.  0.
         23    2    4    4    0    0 -0.21616033805E+03  0.13564874147E+02 -0.11970557560E+03  0.26344138568E+03  0.90347337013E+02 0.  0.
          3    1    3    3  502    0 -0.59725594423E+03 -0.37715824359E+03  0.14122163627E+04  0.15790244009E+04  0.00000000000E+00 0. -1.
         -4    1    3    3    0  502 -0.18170082536E+01 -0.10713771361E+02  0.32548238158E+02  0.34314344274E+02  0.00000000000E+00 0.  1.
         13    1    5    5    0    0  0.52014587202E+03  0.25388179817E+03  0.83937198429E+01  0.57885935266E+03  0.00000000000E+00 0. -1.
        -13    1    5    5    0    0  0.29508741851E+03  0.12042534263E+03  0.66245194641E+02  0.32552614876E+03  0.00000000000E+00 0.  1.
          1    1    6    6  503    0 -0.12158588627E+03 -0.10733390520E+02 -0.11172225976E+03  0.16546962482E+03  0.00000000000E+00 0. -1.
         -1    1    6    6    0  503 -0.94574451780E+02  0.24298264667E+02 -0.79833158404E+01  0.97971760866E+02  0.00000000000E+00 0.  1.
<mgrwt>
<rscale>  0 0.24032744E+04</rscale>
<asrwt>0</asrwt>
<pdfrwt beam="1">  1        1 0.32160489E+00 0.24032744E+04</pdfrwt>
<pdfrwt beam="2">  1       -2 0.10626675E+00 0.24032744E+04</pdfrwt>
<totfact> 0.14543036E+00</totfact>
</mgrwt>
</event>
<event>
12    5  0.5029243E-008  0.2413300E+04  0.7818608E-02  0.8434541E-01
         -2   -1    0    0    0  501 -0.00000000000E+00  0.00000000000E+00  0.80598330029E+03  0.80598330029E+03  0.00000000000E+00 0.  1.
          1   -1    0    0  501    0  0.00000000000E+00 -0.00000000000E+00 -0.18064935872E+04  0.18064935872E+04  0.00000000000E+00 0. -1.
        -24    2    1    2    0    0  0.91614024286E+03 -0.41432897437E+03 -0.56691456053E+03  0.11570431156E+04  0.79844905367E+02 0.  0.
        254    2    1    2    0    0 -0.91614024286E+03  0.41432897437E+03 -0.43359572635E+03  0.14554337718E+04  0.95880173479E+03 0.  0.
         23    2    4    4    0    0 -0.31008530829E+03  0.59988128259E+03 -0.44617451296E+03  0.81439474495E+03  0.90314190272E+02 0.  0.
         23    2    4    4    0    0 -0.60605493458E+03 -0.18555230822E+03  0.12578786617E+02  0.64103902687E+03  0.95081887252E+02 0.  0.
          3    1    3    3  502    0  0.13492056275E+03 -0.50058112828E+02 -0.11224987207E+03  0.18250864826E+03  0.00000000000E+00 0. -1.
         -4    1    3    3    0  502  0.78121968012E+03 -0.36427086154E+03 -0.45466468846E+03  0.97453446738E+03  0.00000000000E+00 0.  1.
         13    1    5    5    0    0  0.27390418537E+01  0.23834981115E+02 -0.27947455731E+02  0.36832987347E+02  0.00000000000E+00 0. -1.
        -13    1    5    5    0    0 -0.31282435014E+03  0.57604630148E+03 -0.41822705723E+03  0.77756175760E+03  0.00000000000E+00 0.  1.
          3    1    6    6  503    0 -0.58345080988E+02  0.10266582452E+02  0.22876196945E+01  0.59285617097E+02  0.00000000000E+00 0. -1.
         -3    1    6    6    0  503 -0.54770985359E+03 -0.19581889067E+03  0.10291166922E+02  0.58175340977E+03  0.00000000000E+00 0.  1.
<mgrwt>
<rscale>  0 0.24132995E+04</rscale>
<asrwt>0</asrwt>
<pdfrwt beam="1">  1        1 0.27792209E+00 0.24132995E+04</pdfrwt>
<pdfrwt beam="2">  1       -2 0.12399743E+00 0.24132995E+04</pdfrwt>
<totfact> 0.15515026E+00</totfact>
</mgrwt>
</event>
<event>
12    5  0.5029243E-008  0.1549350E+04  0.7818608E-02  0.8852283E-01
          1   -1    0    0  501    0  0.00000000000E+00  0.00000000000E+00  0.84696657424E+03  0.84696657424E+03  0.00000000000E+00 0. -1.
         -4   -1    0    0    0  501 -0.00000000000E+00 -0.00000000000E+00 -0.70855387800E+03  0.70855387800E+03  0.00000000000E+00 0.  1.
        -24    2    1    2    0    0  0.40912168774E+03 -0.30668683474E+03  0.49295068721E+02  0.51936550007E+03  0.76636472218E+02 0.  0.
        254    2    1    2    0    0 -0.40912168774E+03  0.30668683474E+03  0.89117627521E+02  0.10361549522E+04  0.89679304379E+03 0.  0.
         23    2    4    4    0    0  0.22815034692E+03  0.27479269063E+03 -0.65545006896E+02  0.37410864009E+03  0.89986238044E+02 0.  0.
         23    2    4    4    0    0 -0.63727203466E+03  0.31894144109E+02  0.15466263442E+03  0.66204631208E+03  0.85158125083E+02 0.  0.
          1    1    3    3  502    0  0.14979340840E+03 -0.13537378074E+03 -0.13230569736E+02  0.20233431169E+03  0.00000000000E+00 0. -1.
         -2    1    3    3    0  502  0.25932827934E+03 -0.17131305400E+03  0.62525638457E+02  0.31703118837E+03  0.00000000000E+00 0.  1.
         13    1    5    5    0    0  0.71133298035E+01  0.47902242972E+02 -0.25782539178E+02  0.54863135794E+02  0.00000000000E+00 0. -1.
        -13    1    5    5    0    0  0.22103701711E+03  0.22689044766E+03 -0.39762467718E+02  0.31924550429E+03  0.00000000000E+00 0.  1.
          3    1    6    6  503    0 -0.24982947292E+02 -0.14346324349E+02  0.14354539798E+02  0.32187225580E+02  0.00000000000E+00 0. -1.
         -3    1    6    6    0  503 -0.61228908737E+03  0.46240468458E+02  0.14030809462E+03  0.62985908650E+03  0.00000000000E+00 0.  1.
<mgrwt>
<rscale>  0 0.15493501E+04</rscale>
<asrwt>0</asrwt>
<pdfrwt beam="1">  1        1 0.13030255E+00 0.15493501E+04</pdfrwt>
<pdfrwt beam="2">  1       -4 0.10900829E+00 0.15493501E+04</pdfrwt>
<totfact> 0.63050419E+00</totfact>
</mgrwt>
</event>
<event>
12    5  0.5029243E-008  0.3582828E+04  0.7818608E-02  0.8094436E-01
         -4   -1    0    0    0  501 -0.00000000000E+00  0.00000000000E+00  0.24168164945E+04  0.24168164945E+04  0.00000000000E+00 0.  1.
          3   -1    0    0  501    0  0.00000000000E+00 -0.00000000000E+00 -0.13278478182E+04  0.13278478182E+04  0.00000000000E+00 0. -1.
        -24    2    1    2    0    0  0.12624819657E+04  0.69511732705E+03 -0.38655228071E+03  0.14941860506E+04  0.78233470747E+02 0.  0.
        254    2    1    2    0    0 -0.12624819657E+04 -0.69511732705E+03  0.14755209570E+04  0.22504782621E+04  0.90024524539E+03 0.  0.
         23    2    4    4    0    0 -0.67235529565E+03  0.11876214281E+03  0.55467523508E+03  0.88408398347E+03  0.88169060743E+02 0.  0.
         23    2    4    4    0    0 -0.59012667006E+03 -0.81387946985E+03  0.92084572188E+03  0.13663942787E+04  0.91799799063E+02 0.  0.
          1    1    3    3  502    0  0.73849872175E+03  0.40723510214E+03 -0.18619901766E+03  0.86364973492E+03  0.00000000000E+00 0. -1.
         -2    1    3    3    0  502  0.52398324396E+03  0.28788222491E+03 -0.20035326304E+03  0.63053631567E+03  0.00000000000E+00 0.  1.
         13    1    5    5    0    0 -0.89098035667E+02 -0.93692547983E+01  0.52518956363E+02  0.10384836866E+03  0.00000000000E+00 0. -1.
        -13    1    5    5    0    0 -0.58325725998E+03  0.12813139761E+03  0.50215627871E+03  0.78023561481E+03  0.00000000000E+00 0.  1.
          2    1    6    6  503    0 -0.15267804991E+03 -0.27151848458E+03  0.31570933384E+03  0.44351466477E+03  0.00000000000E+00 0. -1.
         -2    1    6    6    0  503 -0.43744862015E+03 -0.54236098528E+03  0.60513638804E+03  0.92287961390E+03  0.00000000000E+00 0.  1.
<mgrwt>
<rscale>  0 0.35828282E+04</rscale>
<asrwt>0</asrwt>
<pdfrwt beam="1">  1        3 0.20428428E+00 0.35828282E+04</pdfrwt>
<pdfrwt beam="2">  1       -4 0.37181792E+00 0.35828282E+04</pdfrwt>
<totfact> 0.27004042E-03</totfact>
</mgrwt>
</event>
<event>
12    5  0.5029243E-008  0.2252906E+04  0.7818608E-02  0.8496724E-01
         -4   -1    0    0    0  501 -0.00000000000E+00  0.00000000000E+00  0.30692900274E+04  0.30692900274E+04  0.00000000000E+00 0.  1.
          3   -1    0    0  501    0  0.00000000000E+00 -0.00000000000E+00 -0.41341707185E+03  0.41341707185E+03  0.00000000000E+00 0. -1.
        -24    2    1    2    0    0 -0.75424864605E+03 -0.55791467097E+03  0.98715924398E+03  0.13641097775E+04  0.78436674960E+02 0.  0.
        254    2    1    2    0    0  0.75424864605E+03  0.55791467097E+03  0.16687137115E+04  0.21185973217E+04  0.90757333604E+03 0.  0.
         23    2    4    4    0    0  0.91952140330E+03  0.60963185126E+03  0.13708707976E+04  0.17621099300E+04  0.92596201705E+02 0.  0.
         23    2    4    4    0    0 -0.16527275724E+03 -0.51717180284E+02  0.29784291395E+03  0.35648739169E+03  0.91559314238E+02 0.  0.
          1    1    3    3  502    0 -0.59902602369E+02 -0.71424262620E+02  0.11014048240E+03  0.14429370369E+03  0.00000000000E+00 0. -1.
         -2    1    3    3    0  502 -0.69434604369E+03 -0.48649040835E+03  0.87701876159E+03  0.12198160738E+04  0.00000000000E+00 0.  1.
         13    1    5    5    0    0  0.88923827126E+03  0.59397723116E+03  0.12988484754E+04  0.16824271207E+04  0.00000000000E+00 0. -1.
        -13    1    5    5    0    0  0.30283132035E+02  0.15654620091E+02  0.72022322159E+02  0.79682809346E+02  0.00000000000E+00 0.  1.
          3    1    6    6  503    0 -0.11473470723E+03 -0.48419080022E+02  0.27303083932E+03  0.30009048565E+03  0.00000000000E+00 0. -1.
         -3    1    6    6    0  503 -0.50538050014E+02 -0.32981002621E+01  0.24812074624E+02  0.56396906047E+02  0.00000000000E+00 0.  1.
<mgrwt>
<rscale>  0 0.22529065E+04</rscale>
<asrwt>0</asrwt>
<pdfrwt beam="1">  1        3 0.63602629E-01 0.22529065E+04</pdfrwt>
<pdfrwt beam="2">  1       -4 0.47219845E+00 0.22529065E+04</pdfrwt>
<totfact> 0.99977683E-03</totfact>
</mgrwt>
</event>
<event>
12    5  0.5029243E-008  0.1833098E+04  0.7818608E-02  0.8688894E-01
          1   -1    0    0  501    0  0.00000000000E+00  0.00000000000E+00  0.11762203525E+04  0.11762203525E+04  0.00000000000E+00 0. -1.
         -2   -1    0    0    0  501 -0.00000000000E+00 -0.00000000000E+00 -0.71420453754E+03  0.71420453754E+03  0.00000000000E+00 0.  1.
        -24    2    1    2    0    0  0.50287767511E+03 -0.34960979119E+03 -0.14291031396E+03  0.63752607149E+03  0.10441825399E+03 0.  0.
        254    2    1    2    0    0 -0.50287767511E+03  0.34960979119E+03  0.60492612891E+03  0.12528988185E+04  0.91033338170E+03 0.  0.
         23    2    4    4    0    0 -0.11783537093E+03  0.21576968064E+03 -0.21067520389E+03  0.33646699837E+03  0.91565658027E+02 0.  0.
         23    2    4    4    0    0 -0.38504230418E+03  0.13384011055E+03  0.81560133281E+03  0.91643182017E+03  0.92038012512E+02 0.  0.
          1    1    3    3  502    0  0.17474498663E+03 -0.63453116577E+02 -0.40950233495E+02  0.19036551678E+03  0.00000000000E+00 0. -1.
         -2    1    3    3    0  502  0.32813268849E+03 -0.28615667462E+03 -0.10196008046E+03  0.44716055471E+03  0.00000000000E+00 0.  1.
         13    1    5    5    0    0  0.66945556849E+01  0.70257512381E+02 -0.50340614892E+02  0.86689749276E+02  0.00000000000E+00 0. -1.
        -13    1    5    5    0    0 -0.12452992662E+03  0.14551216826E+03 -0.16033458900E+03  0.24977724910E+03  0.00000000000E+00 0.  1.
          1    1    6    6  503    0 -0.25085831239E+02  0.71752399216E+01  0.16435733192E+02  0.30836931145E+02  0.00000000000E+00 0. -1.
         -1    1    6    6    0  503 -0.35995647294E+03  0.12666487063E+03  0.79916559961E+03  0.88559488903E+03  0.00000000000E+00 0.  1.
<mgrwt>
<rscale>  0 0.18330978E+04</rscale>
<asrwt>0</asrwt>
<pdfrwt beam="1">  1        1 0.18095698E+00 0.18330978E+04</pdfrwt>
<pdfrwt beam="2">  1       -2 0.10987762E+00 0.18330978E+04</pdfrwt>
<totfact> 0.60483923E+00</totfact>
</mgrwt>
</event>
<event>
12    5  0.5029243E-008  0.1596615E+04  0.7818608E-02  0.8822631E-01
          1   -1    0    0  501    0  0.00000000000E+00  0.00000000000E+00  0.49494131099E+03  0.49494131099E+03  0.00000000000E+00 0. -1.
         -2   -1    0    0    0  501 -0.00000000000E+00 -0.00000000000E+00 -0.12876163535E+04  0.12876163535E+04  0.00000000000E+00 0.  1.
        -24    2    1    2    0    0  0.28102874061E+03 -0.40030087553E+03 -0.53051021438E+03  0.72618101161E+03  0.81730227334E+02 0.  0.
        254    2    1    2    0    0 -0.28102874061E+03  0.40030087553E+03 -0.26216482817E+03  0.10563766529E+04  0.89887890826E+03 0.  0.
         23    2    4    4    0    0  0.26499738386E+03  0.77916762585E+02  0.11465993491E+03  0.31336479995E+03  0.93573296549E+02 0.  0.
         23    2    4    4    0    0 -0.54602612447E+03  0.32238411295E+03 -0.37682476308E+03  0.74301185298E+03  0.89407307908E+02 0.  0.
          3    1    3    3  502    0  0.16568035095E+03 -0.17695739069E+03 -0.22713384350E+03  0.33219524330E+03  0.00000000000E+00 0. -1.
         -4    1    3    3    0  502  0.11534838966E+03 -0.22334348485E+03 -0.30337637088E+03  0.39398576831E+03  0.00000000000E+00 0.  1.
         13    1    5    5    0    0  0.22017892093E+03  0.53582284951E+02  0.12852390953E+03  0.26051528516E+03  0.00000000000E+00 0. -1.
        -13    1    5    5    0    0  0.44818462929E+02  0.24334477633E+02 -0.13863974612E+02  0.52849514785E+02  0.00000000000E+00 0.  1.
          2    1    6    6  503    0 -0.49414474318E+03  0.30341665057E+03 -0.36876092864E+03  0.68718652020E+03  0.00000000000E+00 0. -1.
         -2    1    6    6    0  503 -0.51881381288E+02  0.18967462382E+02 -0.80638344417E+01  0.55825332775E+02  0.00000000000E+00 0.  1.
<mgrwt>
<rscale>  0 0.15966146E+04</rscale>
<asrwt>0</asrwt>
<pdfrwt beam="1">  1        1 0.76144818E-01 0.15966146E+04</pdfrwt>
<pdfrwt beam="2">  1       -2 0.19809482E+00 0.15966146E+04</pdfrwt>
<totfact> 0.51613322E+00</totfact>
</mgrwt>
</event>
<event>
12    5  0.5029243E-008  0.1694318E+04  0.7818608E-02  0.8764612E-01
          1   -1    0    0  501    0  0.00000000000E+00  0.00000000000E+00  0.22548927040E+04  0.22548927040E+04  0.00000000000E+00 0. -1.
         -2   -1    0    0    0  501 -0.00000000000E+00 -0.00000000000E+00 -0.31827605902E+03  0.31827605902E+03  0.00000000000E+00 0.  1.
        -24    2    1    2    0    0 -0.13184354889E+03 -0.53789436099E+03  0.32260484628E+03  0.64470582343E+03  0.69703995215E+02 0.  0.
        254    2    1    2    0    0  0.13184354889E+03  0.53789436099E+03  0.16140117987E+04  0.19284629396E+04  0.89845542913E+03 0.  0.
         23    2    4    4    0    0  0.27305995611E+03 -0.46572826390E+02  0.11834301676E+03  0.31423839884E+03  0.89498234047E+02 0.  0.
         23    2    4    4    0    0 -0.14121640722E+03  0.58446718738E+03  0.14956687820E+04  0.16142245408E+04  0.84568291578E+02 0.  0.
          3    1    3    3  502    0 -0.91674571557E+02 -0.41810979950E+03  0.27950022487E+03  0.51121463908E+03  0.00000000000E+00 0. -1.
         -4    1    3    3    0  502 -0.40168977335E+02 -0.11978456149E+03  0.43104621413E+02  0.13349118435E+03  0.00000000000E+00 0.  1.
         13    1    5    5    0    0  0.25842120858E+03 -0.37515518989E+02  0.81468171396E+02  0.27354341183E+03  0.00000000000E+00 0.  1.
        -13    1    5    5    0    0  0.14638747539E+02 -0.90573074017E+01  0.36874845361E+02  0.40694987004E+02  0.00000000000E+00 0. -1.
          1    1    6    6  503    0 -0.17112866372E+02  0.10738885131E+02  0.50617992117E+02  0.54500963068E+02  0.00000000000E+00 0. -1.
         -1    1    6    6    0  503 -0.12410354085E+03  0.57372830225E+03  0.14450507899E+04  0.15597235777E+04  0.00000000000E+00 0.  1.
<mgrwt>
<rscale>  0 0.16943180E+04</rscale>
<asrwt>0</asrwt>
<pdfrwt beam="1">  1        1 0.34690656E+00 0.16943180E+04</pdfrwt>
<pdfrwt beam="2">  1       -2 0.48965549E-01 0.16943180E+04</pdfrwt>
<totfact> 0.66027007E+00</totfact>
</mgrwt>
</event>
<event>
12    5  0.5029243E-008  0.1466876E+04  0.7818608E-02  0.8906784E-01
         -2   -1    0    0    0  501 -0.00000000000E+00  0.00000000000E+00  0.58834306950E+03  0.58834306950E+03  0.00000000000E+00 0.  1.
          1   -1    0    0  501    0  0.00000000000E+00 -0.00000000000E+00 -0.91431601170E+03  0.91431601170E+03  0.00000000000E+00 0. -1.
        -24    2    1    2    0    0 -0.23600093473E+03 -0.34923202553E+03  0.38423704414E+02  0.43234205738E+03  0.88225986401E+02 0.  0.
        254    2    1    2    0    0  0.23600093473E+03  0.34923202553E+03 -0.36439664662E+03  0.10703170238E+04  0.91385675385E+03 0.  0.
         23    2    4    4    0    0  0.29919236166E+03  0.46720290869E+03 -0.57472353659E+03  0.80406144149E+03  0.91722576412E+02 0.  0.
         23    2    4    4    0    0 -0.63191426930E+02 -0.11797088316E+03  0.21032688997E+03  0.26625558233E+03  0.93511222667E+02 0.  0.
          1    1    3    3  502    0 -0.65374001578E+02 -0.51328050746E+02  0.31735684591E+02  0.88968997703E+02  0.00000000000E+00 0. -1.
         -2    1    3    3    0  502 -0.17062693315E+03 -0.29790397478E+03  0.66880198234E+01  0.34337305968E+03  0.00000000000E+00 0.  1.
         13    1    5    5    0    0  0.17432612735E+03  0.25869312379E+03 -0.38635775146E+03  0.49657229392E+03  0.00000000000E+00 0.  1.
        -13    1    5    5    0    0  0.12486623431E+03  0.20850978490E+03 -0.18836578512E+03  0.30748914757E+03  0.00000000000E+00 0. -1.
          3    1    6    6  503    0  0.16188779810E+01 -0.39235916137E+01 -0.94210886900E+01  0.10333065817E+02  0.00000000000E+00 0. -1.
         -3    1    6    6    0  503 -0.64810304911E+02 -0.11404729155E+03  0.21974797866E+03  0.25592251651E+03  0.00000000000E+00 0.  1.
<mgrwt>
<rscale>  0 0.14668763E+04</rscale>
<asrwt>0</asrwt>
<pdfrwt beam="1">  1        1 0.14066400E+00 0.14668763E+04</pdfrwt>
<pdfrwt beam="2">  1       -2 0.90514319E-01 0.14668763E+04</pdfrwt>
<totfact> 0.15704882E+01</totfact>
</mgrwt>
</event>
<event>
12    5  0.5029243E-008  0.1346045E+04  0.7818608E-02  0.8993827E-01
          1   -1    0    0  501    0  0.00000000000E+00  0.00000000000E+00  0.11312412810E+04  0.11312412810E+04  0.00000000000E+00 0. -1.
         -2   -1    0    0    0  501 -0.00000000000E+00 -0.00000000000E+00 -0.40040936877E+03  0.40040936877E+03  0.00000000000E+00 0.  1.
        -24    2    1    2    0    0  0.14368734967E+02 -0.51596776775E+02 -0.20994513526E+03  0.23087976818E+03  0.79748477205E+02 0.  0.
        254    2    1    2    0    0 -0.14368734967E+02  0.51596776775E+02  0.94077704753E+03  0.13007708816E+04  0.89670214977E+03 0.  0.
         23    2    4    4    0    0 -0.18430790705E+03 -0.24159095303E+02  0.10486627194E+04  0.10685643207E+04  0.87081237572E+02 0.  0.
         23    2    4    4    0    0  0.16993917209E+03  0.75755872078E+02 -0.10788567184E+03  0.23220656095E+03  0.87534532576E+02 0.  0.
          1    1    3    3  502    0  0.27435427610E+02  0.11172069165E+02 -0.91770299899E+02  0.96432908081E+02  0.00000000000E+00 0. -1.
         -2    1    3    3    0  502 -0.13066692642E+02 -0.62768845940E+02 -0.11817483536E+03  0.13444686010E+03  0.00000000000E+00 0.  1.
         13    1    5    5    0    0 -0.21412222938E+02  0.67454976236E+00  0.35313739158E+03  0.35378659618E+03  0.00000000000E+00 0. -1.
        -13    1    5    5    0    0 -0.16289568412E+03 -0.24833645066E+02  0.69552532780E+03  0.71477772450E+03  0.00000000000E+00 0.  1.
          3    1    6    6  503    0  0.13835160529E+02 -0.17456994981E+02 -0.21323977820E+02  0.30836186059E+02  0.00000000000E+00 0. -1.
         -3    1    6    6    0  503  0.15610401156E+03  0.93212867059E+02 -0.86561694023E+02  0.20137037489E+03  0.00000000000E+00 0.  1.
<mgrwt>
<rscale>  0 0.13460455E+04</rscale>
<asrwt>0</asrwt>
<pdfrwt beam="1">  1        1 0.17403712E+00 0.13460455E+04</pdfrwt>
<pdfrwt beam="2">  1       -2 0.61601442E-01 0.13460455E+04</pdfrwt>
<totfact> 0.25260564E+01</totfact>
</mgrwt>
</event>
<event>
12    5  0.5029243E-008  0.1163450E+04  0.7818608E-02  0.9145464E-01
          1   -1    0    0  501    0  0.00000000000E+00  0.00000000000E+00  0.22721861386E+04  0.22721861386E+04  0.00000000000E+00 0. -1.
         -2   -1    0    0    0  501 -0.00000000000E+00 -0.00000000000E+00 -0.14893330661E+03  0.14893330661E+03  0.00000000000E+00 0.  1.
        -24    2    1    2    0    0 -0.16807140512E+03 -0.13075365756E+03  0.31154772890E+03  0.38570164196E+03  0.79744924910E+02 0.  0.
        254    2    1    2    0    0  0.16807140512E+03  0.13075365756E+03  0.18117051031E+04  0.20354178033E+04  0.90294282047E+03 0.  0.
         23    2    4    4    0    0  0.46741237526E+03  0.17198676108E+03  0.61157721621E+03  0.79434166418E+03  0.94330342645E+02 0.  0.
         23    2    4    4    0    0 -0.29934097013E+03 -0.41233103520E+02  0.12001278869E+04  0.12410761391E+04  0.93047583813E+02 0.  0.
          1    1    3    3  502    0 -0.43851048500E+02 -0.47163160333E+02  0.16087562505E+03  0.17328659753E+03  0.00000000000E+00 0. -1.
         -2    1    3    3    0  502 -0.12422035662E+03 -0.83590497222E+02  0.15067210384E+03  0.21241504444E+03  0.00000000000E+00 0.  1.
         13    1    5    5    0    0  0.20530656944E+03  0.36364734964E+02  0.20938433984E+03  0.29549108815E+03  0.00000000000E+00 0. -1.
        -13    1    5    5    0    0  0.26210580582E+03  0.13562202611E+03  0.40219287637E+03  0.49885057604E+03  0.00000000000E+00 0.  1.
          2    1    6    6  503    0 -0.35463447627E+02 -0.83642513963E+01  0.30836801164E+03  0.31051320008E+03  0.00000000000E+00 0. -1.
         -2    1    6    6    0  503 -0.26387752250E+03 -0.32868852123E+02  0.89175987527E+03  0.93056293902E+03  0.00000000000E+00 0.  1.
<mgrwt>
<rscale>  0 0.11634504E+04</rscale>
<asrwt>0</asrwt>
<pdfrwt beam="1">  1        1 0.34956707E+00 0.11634504E+04</pdfrwt>
<pdfrwt beam="2">  1       -2 0.22912818E-01 0.11634504E+04</pdfrwt>
<totfact> 0.28572953E+01</totfact>
</mgrwt>
</event>
<event>
12    5  0.5029243E-008  0.2233257E+04  0.7818608E-02  0.8504712E-01
          1   -1    0    0  501    0  0.00000000000E+00  0.00000000000E+00  0.21917507840E+04  0.21917507840E+04  0.00000000000E+00 0. -1.
         -2   -1    0    0    0  501 -0.00000000000E+00 -0.00000000000E+00 -0.56888710775E+03  0.56888710775E+03  0.00000000000E+00 0.  1.
        -24    2    1    2    0    0  0.87114886440E+03 -0.22976591430E+03  0.10098210939E+04  0.13557139411E+04  0.80801790097E+02 0.  0.
        254    2    1    2    0    0 -0.87114886440E+03  0.22976591430E+03  0.61304258237E+03  0.14049239506E+04  0.88673410888E+03 0.  0.
         23    2    4    4    0    0 -0.62901762886E+03 -0.21465310897E+03  0.10076201662E+03  0.67833409454E+03  0.90802121211E+02 0.  0.
         23    2    4    4    0    0 -0.24213123554E+03  0.44441902326E+03  0.51228056575E+03  0.72658985606E+03  0.96776223417E+02 0.  0.
          3    1    3    3  502    0  0.50322043656E+02 -0.10869408393E+02  0.89502916619E+02  0.10325320431E+03  0.00000000000E+00 0. -1.
         -4    1    3    3    0  502  0.82082682074E+03 -0.21889650590E+03  0.92031817724E+03  0.12524607368E+04  0.00000000000E+00 0.  1.
         13    1    5    5    0    0 -0.60616829379E+03 -0.18625540313E+03  0.91297552308E+02  0.64067645395E+03  0.00000000000E+00 0.  1.
        -13    1    5    5    0    0 -0.22849335075E+02 -0.28397705840E+02  0.94644643132E+01  0.37657640593E+02  0.00000000000E+00 0. -1.
          1    1    6    6  503    0 -0.91065051096E+02  0.83204363070E+02  0.11094884147E+03  0.16590797144E+03  0.00000000000E+00 0. -1.
         -1    1    6    6    0  503 -0.15106618444E+03  0.36121466019E+03  0.40133172428E+03  0.56068188461E+03  0.00000000000E+00 0.  1.
<mgrwt>
<rscale>  0 0.22332566E+04</rscale>
<asrwt>0</asrwt>
<pdfrwt beam="1">  1        1 0.33719242E+00 0.22332566E+04</pdfrwt>
<pdfrwt beam="2">  1       -2 0.87521095E-01 0.22332566E+04</pdfrwt>
<totfact> 0.19864719E+00</totfact>
</mgrwt>
</event>
<event>
12    5  0.5029243E-008  0.1294580E+04  0.7818608E-02  0.9033874E-01
          1   -1    0    0  501    0  0.00000000000E+00  0.00000000000E+00  0.24060229739E+03  0.24060229739E+03  0.00000000000E+00 0. -1.
         -2   -1    0    0    0  501 -0.00000000000E+00 -0.00000000000E+00 -0.17413977803E+04  0.17413977803E+04  0.00000000000E+00 0.  1.
        -24    2    1    2    0    0 -0.74856790282E+02  0.16481135937E+03 -0.80728931513E+03  0.83111659217E+03  0.79198663067E+02 0.  0.
        254    2    1    2    0    0  0.74856790282E+02 -0.16481135937E+03 -0.69350616774E+03  0.11508834855E+04  0.90045303556E+03 0.  0.
         23    2    4    4    0    0 -0.16287822877E+03 -0.23013538857E+03 -0.80851148952E+03  0.86130369046E+03  0.93067738955E+02 0.  0.
         23    2    4    4    0    0  0.23773501905E+03  0.65324029207E+02  0.11500532178E+03  0.28957979503E+03  0.99222303807E+02 0.  0.
          1    1    3    3  502    0  0.12561376260E+02  0.57888477194E+02 -0.22407206086E+03  0.23176961065E+03  0.00000000000E+00 0. -1.
         -2    1    3    3    0  502 -0.87418166542E+02  0.10692288217E+03 -0.58321725427E+03  0.59934698152E+03  0.00000000000E+00 0.  1.
         13    1    5    5    0    0 -0.10957170324E+03 -0.10734266000E+03 -0.53865492333E+03  0.56006922004E+03  0.00000000000E+00 0.  1.
        -13    1    5    5    0    0 -0.53306525533E+02 -0.12279272858E+03 -0.26985656619E+03  0.30123447043E+03  0.00000000000E+00 0. -1.
          1    1    6    6  503    0  0.18889379916E+03  0.85015331998E+02  0.11498651764E+03  0.23691849500E+03  0.00000000000E+00 0. -1.
         -1    1    6    6    0  503  0.48841219897E+02 -0.19691302791E+02  0.18804139281E-01  0.52661300024E+02  0.00000000000E+00 0.  1.
<mgrwt>
<rscale>  0 0.12945799E+04</rscale>
<asrwt>0</asrwt>
<pdfrwt beam="1">  1        1 0.37015738E-01 0.12945799E+04</pdfrwt>
<pdfrwt beam="2">  1       -2 0.26790735E+00 0.12945799E+04</pdfrwt>
<totfact> 0.50197167E+00</totfact>
</mgrwt>
</event>
<event>
12    5  0.5029243E-008  0.1179774E+04  0.7818608E-02  0.9130746E-01
          1   -1    0    0  501    0  0.00000000000E+00  0.00000000000E+00  0.11369898985E+04  0.11369898985E+04  0.00000000000E+00 0. -1.
         -2   -1    0    0    0  501 -0.00000000000E+00 -0.00000000000E+00 -0.30604222603E+03  0.30604222603E+03  0.00000000000E+00 0.  1.
        -24    2    1    2    0    0  0.10806223069E+03 -0.17647719607E+03  0.44520273194E+02  0.22601096633E+03  0.79229134447E+02 0.  0.
        254    2    1    2    0    0 -0.10806223069E+03  0.17647719607E+03  0.78642739924E+03  0.12170211582E+04  0.90545612743E+03 0.  0.
         23    2    4    4    0    0 -0.32758870251E+03  0.30930291655E+03  0.82135066561E+03  0.94160332293E+03  0.94959199981E+02 0.  0.
         23    2    4    4    0    0  0.21952647182E+03 -0.13282572048E+03 -0.34923266373E+02  0.27541783523E+03  0.93812608833E+02 0.  0.
          1    1    3    3  502    0  0.97178873265E+00  0.44967488526E+01 -0.80339417095E+01  0.92579340555E+01  0.00000000000E+00 0. -1.
         -2    1    3    3    0  502  0.10709044195E+03 -0.18097394492E+03  0.52554214903E+02  0.21675303228E+03  0.00000000000E+00 0.  1.
         13    1    5    5    0    0 -0.57398790501E+02  0.88136887198E+02  0.13121700204E+03  0.16816846810E+03  0.00000000000E+00 0. -1.
        -13    1    5    5    0    0 -0.27018991201E+03  0.22116602935E+03  0.69013366357E+03  0.77343485484E+03  0.00000000000E+00 0.  1.
          1    1    6    6  503    0  0.54600712207E+02 -0.65998854483E+02  0.22266180484E+02  0.88503499140E+02  0.00000000000E+00 0. -1.
         -1    1    6    6    0  503  0.16492575962E+03 -0.66826865996E+02 -0.57189446857E+02  0.18691433609E+03  0.00000000000E+00 0.  1.
<mgrwt>
<rscale>  0 0.11797744E+04</rscale>
<asrwt>0</asrwt>
<pdfrwt beam="1">  1        1 0.17492152E+00 0.11797744E+04</pdfrwt>
<pdfrwt beam="2">  1       -2 0.47083420E-01 0.11797744E+04</pdfrwt>
<totfact> 0.44194142E+01</totfact>
</mgrwt>
</event>
<event>
12    5  0.5029243E-008  0.1687490E+04  0.7818608E-02  0.8768532E-01
         -2   -1    0    0    0  501 -0.00000000000E+00  0.00000000000E+00  0.14021432489E+04  0.14021432489E+04  0.00000000000E+00 0.  1.
          1   -1    0    0  501    0  0.00000000000E+00 -0.00000000000E+00 -0.50772667118E+03  0.50772667118E+03  0.00000000000E+00 0. -1.
        -24    2    1    2    0    0 -0.29857010849E+02 -0.59668284451E+03  0.28934414775E+03  0.66872398946E+03  0.80931330189E+02 0.  0.
        254    2    1    2    0    0  0.29857010849E+02  0.59668284451E+03  0.60507243001E+03  0.12411459307E+04  0.90410658532E+03 0.  0.
         23    2    4    4    0    0 -0.32343895145E+03  0.62958808970E+03  0.35208093976E+03  0.79537158600E+03  0.87527445208E+02 0.  0.
         23    2    4    4    0    0  0.35329596230E+03 -0.32905245194E+02  0.25299149025E+03  0.44577434466E+03  0.93857765175E+02 0.  0.
          3    1    3    3  502    0  0.79847362121E+01 -0.92349067204E+01  0.14797383449E+02  0.19183380084E+02  0.00000000000E+00 0. -1.
         -4    1    3    3    0  502 -0.37841747061E+02 -0.58744793779E+03  0.27454676430E+03  0.64954060937E+03  0.00000000000E+00 0.  1.
         13    1    5    5    0    0 -0.28359201551E+03  0.47192447310E+03  0.27222827508E+03  0.61420303917E+03  0.00000000000E+00 0. -1.
        -13    1    5    5    0    0 -0.39846935935E+02  0.15766361661E+03  0.79852664680E+02  0.18116854683E+03  0.00000000000E+00 0.  1.
          1    1    6    6  503    0  0.32687846651E+03 -0.53266267680E+02  0.24358125526E+03  0.41111878461E+03  0.00000000000E+00 0. -1.
         -1    1    6    6    0  503  0.26417495789E+02  0.20361022485E+02  0.94102349869E+01  0.34655560058E+02  0.00000000000E+00 0.  1.
<mgrwt>
<rscale>  0 0.16874899E+04</rscale>
<asrwt>0</asrwt>
<pdfrwt beam="1">  1        1 0.78111796E-01 0.16874899E+04</pdfrwt>
<pdfrwt beam="2">  1       -2 0.21571434E+00 0.16874899E+04</pdfrwt>
<totfact> 0.38030106E+00</totfact>
</mgrwt>
</event>
<event>
12    5  0.5029243E-008  0.1149001E+04  0.7818608E-02  0.9158705E-01
         -2   -1    0    0    0  501 -0.00000000000E+00  0.00000000000E+00  0.18412463817E+03  0.18412463817E+03  0.00000000000E+00 0.  1.
          1   -1    0    0  501    0  0.00000000000E+00 -0.00000000000E+00 -0.17925408467E+04  0.17925408467E+04  0.00000000000E+00 0. -1.
        -24    2    1    2    0    0  0.20197945615E+02  0.41723052492E+02  0.38134455909E+02  0.99586006286E+02  0.79462983862E+02 0.  0.
        254    2    1    2    0    0 -0.20197945615E+02 -0.41723052492E+02 -0.16465506644E+04  0.18770794786E+04  0.90008305629E+03 0.  0.
         23    2    4    4    0    0  0.53512144132E+02 -0.27671675283E+03 -0.10708884106E+03  0.31532323284E+03  0.92330983021E+02 0.  0.
         23    2    4    4    0    0 -0.73710089747E+02  0.23499370034E+03 -0.15394618234E+04  0.15617562457E+04  0.92112154006E+02 0.  0.
          1    1    3    3  502    0 -0.23915681135E+02 -0.39114970507E+00 -0.55648511959E+01  0.24557694742E+02  0.00000000000E+00 0. -1.
         -2    1    3    3    0  502  0.44113626750E+02  0.42114202197E+02  0.43699307105E+02  0.75028311544E+02  0.00000000000E+00 0.  1.
         13    1    5    5    0    0 -0.25636941357E+02 -0.64615199178E+02 -0.34330768354E+02  0.77530499694E+02  0.00000000000E+00 0.  1.
        -13    1    5    5    0    0  0.79149085489E+02 -0.21210155365E+03 -0.72758072702E+02  0.23779273315E+03  0.00000000000E+00 0. -1.
          1    1    6    6  503    0 -0.45211268303E+02  0.32089426541E+02 -0.24631825265E+03  0.25248063622E+03  0.00000000000E+00 0. -1.
         -1    1    6    6    0  503 -0.28498821443E+02  0.20290427380E+03 -0.12931435707E+04  0.13092756095E+04  0.00000000000E+00 0.  1.
<mgrwt>
<rscale>  0 0.11490012E+04</rscale>
<asrwt>0</asrwt>
<pdfrwt beam="1">  1        1 0.27577552E+00 0.11490012E+04</pdfrwt>
<pdfrwt beam="2">  1       -2 0.28326867E-01 0.11490012E+04</pdfrwt>
<totfact> 0.41040289E+01</totfact>
</mgrwt>
</event>
<event>
12    5  0.5029243E-008  0.2350037E+04  0.7818608E-02  0.8458449E-01
          1   -1    0    0  501    0  0.00000000000E+00  0.00000000000E+00  0.29612093101E+04  0.29612093101E+04  0.00000000000E+00 0. -1.
         -2   -1    0    0    0  501 -0.00000000000E+00 -0.00000000000E+00 -0.46625150470E+03  0.46625150470E+03  0.00000000000E+00 0.  1.
        -24    2    1    2    0    0 -0.92525056981E+03 -0.32757369079E+03  0.77233660682E+03  0.12517314573E+04  0.83274648746E+02 0.  0.
        254    2    1    2    0    0  0.92525056981E+03  0.32757369079E+03  0.17226211986E+04  0.21757293575E+04  0.89609224050E+03 0.  0.
         23    2    4    4    0    0  0.68820173584E+03  0.59980510846E+03  0.14403127221E+04  0.17076420777E+04  0.90293582204E+02 0.  0.
         23    2    4    4    0    0  0.23704883397E+03 -0.27223141767E+03  0.28230847653E+03  0.46808727977E+03  0.95422906668E+02 0.  0.
          3    1    3    3  502    0 -0.60853084531E+02 -0.97804690811E+01  0.71706850748E+02  0.94554893668E+02  0.00000000000E+00 0. -1.
         -4    1    3    3    0  502 -0.86439748527E+03 -0.31779322171E+03  0.70062975607E+03  0.11571765636E+04  0.00000000000E+00 0.  1.
         13    1    5    5    0    0  0.36604675988E+03  0.31725284688E+03  0.67997034037E+03  0.83486481723E+03  0.00000000000E+00 0. -1.
        -13    1    5    5    0    0  0.32215497596E+03  0.28255226158E+03  0.76034238169E+03  0.87277726051E+03  0.00000000000E+00 0.  1.
          3    1    6    6  503    0  0.18123762464E+03 -0.21521487657E+03  0.16486504925E+03  0.32610581740E+03  0.00000000000E+00 0. -1.
         -3    1    6    6    0  503  0.55811209329E+02 -0.57016541096E+02  0.11744342728E+03  0.14198146237E+03  0.00000000000E+00 0.  1.
<mgrwt>
<rscale>  0 0.23500368E+04</rscale>
<asrwt>0</asrwt>
<pdfrwt beam="1">  1        1 0.45557065E+00 0.23500368E+04</pdfrwt>
<pdfrwt beam="2">  1       -2 0.71731003E-01 0.23500368E+04</pdfrwt>
<totfact> 0.88957903E-01</totfact>
</mgrwt>
</event>
<event>
12    5  0.5029243E-008  0.1930116E+04  0.7818608E-02  0.8640009E-01
          1   -1    0    0  501    0  0.00000000000E+00  0.00000000000E+00  0.10431629284E+04  0.10431629284E+04  0.00000000000E+00 0. -1.
         -2   -1    0    0    0  501 -0.00000000000E+00 -0.00000000000E+00 -0.89280109551E+03  0.89280109551E+03  0.00000000000E+00 0.  1.
        -24    2    1    2    0    0  0.74249336108E+03  0.11836198985E+03  0.71845166124E+02  0.75952457681E+03  0.80061869715E+02 0.  0.
        254    2    1    2    0    0 -0.74249336108E+03 -0.11836198985E+03  0.78516666740E+02  0.11764394471E+04  0.90140942629E+03 0.  0.
         23    2    4    4    0    0 -0.49033212318E+03 -0.48976477924E+03 -0.49450143923E+02  0.70101614854E+03  0.93183656176E+02 0.  0.
         23    2    4    4    0    0 -0.25216123791E+03  0.37140278939E+03  0.12796681066E+03  0.47542329854E+03  0.90147025991E+02 0.  0.
          1    1    3    3  502    0  0.24457891863E+03  0.20409393316E+02  0.56429273268E+02  0.25183259053E+03  0.00000000000E+00 0. -1.
         -2    1    3    3    0  502  0.49791444246E+03  0.97952596535E+02  0.15415892857E+02  0.50769198628E+03  0.00000000000E+00 0.  1.
         13    1    5    5    0    0 -0.17155957058E+03 -0.13419122160E+03 -0.49995871068E+02  0.22347160297E+03  0.00000000000E+00 0. -1.
        -13    1    5    5    0    0 -0.31877255260E+03 -0.35557355765E+03  0.54572714544E+00  0.47754454557E+03  0.00000000000E+00 0.  1.
          1    1    6    6  503    0 -0.21513517799E+03  0.27420867332E+03  0.12835645246E+03  0.37141475498E+03  0.00000000000E+00 0. -1.
         -1    1    6    6    0  503 -0.37026059917E+02  0.97194116076E+02 -0.38964179739E+00  0.10400854356E+03  0.00000000000E+00 0.  1.
<mgrwt>
<rscale>  0 0.19301161E+04</rscale>
<asrwt>0</asrwt>
<pdfrwt beam="1">  1        1 0.16048660E+00 0.19301161E+04</pdfrwt>
<pdfrwt beam="2">  1       -2 0.13735402E+00 0.19301161E+04</pdfrwt>
<totfact> 0.43250841E+00</totfact>
</mgrwt>
</event>
<event>
12    5  0.5029243E-008  0.1432681E+04  0.7818608E-02  0.8930496E-01
         -2   -1    0    0    0  501 -0.00000000000E+00  0.00000000000E+00  0.95132080360E+03  0.95132080360E+03  0.00000000000E+00 0.  1.
          1   -1    0    0  501    0  0.00000000000E+00 -0.00000000000E+00 -0.53940147081E+03  0.53940147081E+03  0.00000000000E+00 0. -1.
        -24    2    1    2    0    0  0.20019913392E+03  0.35082041346E+03 -0.30339938455E+02  0.41244414357E+03  0.77685288065E+02 0.  0.
        254    2    1    2    0    0 -0.20019913392E+03 -0.35082041346E+03  0.44225927125E+03  0.10782781308E+04  0.89662467551E+03 0.  0.
         23    2    4    4    0    0  0.15450240070E+03 -0.27611689085E+03 -0.16361231467E+03  0.36752551203E+03  0.90523385084E+02 0.  0.
         23    2    4    4    0    0 -0.35470153462E+03 -0.74703522601E+02  0.60587158592E+03  0.71075261881E+03  0.81823661459E+02 0.  0.
          1    1    3    3  502    0  0.54150850853E+02  0.81342076523E+02  0.25263282023E+02  0.10093107292E+03  0.00000000000E+00 0. -1.
         -2    1    3    3    0  502  0.14604828307E+03  0.26947833693E+03 -0.55603220477E+02  0.31151307066E+03  0.00000000000E+00 0.  1.
         13    1    5    5    0    0  0.14802349323E+03 -0.27839105784E+03 -0.16994794632E+03  0.35818269094E+03  0.00000000000E+00 0. -1.
        -13    1    5    5    0    0  0.64789074677E+01  0.22741669821E+01  0.63356316556E+01  0.93428210896E+01  0.00000000000E+00 0.  1.
          1    1    6    6  503    0 -0.33914182173E+03 -0.88505098974E+02  0.57812560176E+03  0.67607657791E+03  0.00000000000E+00 0. -1.
         -1    1    6    6    0  503 -0.15559712896E+02  0.13801576373E+02  0.27745984153E+02  0.34676040898E+02  0.00000000000E+00 0.  1.
<mgrwt>
<rscale>  0 0.14326812E+04</rscale>
<asrwt>0</asrwt>
<pdfrwt beam="1">  1        1 0.82984842E-01 0.14326812E+04</pdfrwt>
<pdfrwt beam="2">  1       -2 0.14635705E+00 0.14326812E+04</pdfrwt>
<totfact> 0.10838056E+01</totfact>
</mgrwt>
</event>
<event>
12    5  0.5029243E-008  0.2051109E+04  0.7818608E-02  0.8583092E-01
          1   -1    0    0  501    0  0.00000000000E+00  0.00000000000E+00  0.11806142780E+04  0.11806142780E+04  0.00000000000E+00 0. -1.
         -2   -1    0    0    0  501 -0.00000000000E+00 -0.00000000000E+00 -0.89085972814E+03  0.89085972814E+03  0.00000000000E+00 0.  1.
        -24    2    1    2    0    0  0.57548719408E+03 -0.43796885650E+03 -0.29255248924E+03  0.78409884013E+03  0.78878402177E+02 0.  0.
        254    2    1    2    0    0 -0.57548719408E+03  0.43796885650E+03  0.58230703915E+03  0.12873751661E+04  0.89176852407E+03 0.  0.
         23    2    4    4    0    0  0.15360290665E+03 -0.96161323959E+02  0.24534072914E+03  0.31836809724E+03  0.91243185005E+02 0.  0.
         23    2    4    4    0    0 -0.72909010072E+03  0.53413018046E+03  0.33696631001E+03  0.96900706881E+03  0.92525567683E+02 0.  0.
          3    1    3    3  502    0  0.11884370486E+02 -0.39636175129E+01 -0.17297533794E+02  0.21357743350E+02  0.00000000000E+00 0. -1.
         -4    1    3    3    0  502  0.56360282359E+03 -0.43400523899E+03 -0.27525495544E+03  0.76274109678E+03  0.00000000000E+00 0.  1.
         13    1    5    5    0    0  0.14999863092E+03 -0.62371755793E+02  0.22871980166E+03  0.28053978839E+03  0.00000000000E+00 0.  1.
        -13    1    5    5    0    0  0.36042757322E+01 -0.33789568167E+02  0.16620927481E+02  0.37828308854E+02  0.00000000000E+00 0. -1.
          3    1    6    6  503    0 -0.53943547901E+02  0.20923612169E+02  0.40484938892E+02  0.70616812328E+02  0.00000000000E+00 0. -1.
         -3    1    6    6    0  503 -0.67514655282E+03  0.51320656829E+03  0.29648137112E+03  0.89839025648E+03  0.00000000000E+00 0.  1.
<mgrwt>
<rscale>  0 0.20511087E+04</rscale>
<asrwt>0</asrwt>
<pdfrwt beam="1">  1        1 0.18163297E+00 0.20511087E+04</pdfrwt>
<pdfrwt beam="2">  1       -2 0.13705534E+00 0.20511087E+04</pdfrwt>
<totfact> 0.33948123E+00</totfact>
</mgrwt>
</event>
<event>
12    5  0.5029243E-008  0.1063783E+04  0.7818608E-02  0.9241229E-01
         -2   -1    0    0    0  501 -0.00000000000E+00  0.00000000000E+00  0.27822062696E+04  0.27822062696E+04  0.00000000000E+00 0.  1.
          1   -1    0    0  501    0  0.00000000000E+00 -0.00000000000E+00 -0.10168492977E+03  0.10168492977E+03  0.00000000000E+00 0. -1.
        -24    2    1    2    0    0 -0.10114147263E+03 -0.66546039693E+02  0.63274024173E+03  0.65068081859E+03  0.91473172559E+02 0.  0.
        254    2    1    2    0    0  0.10114147263E+03  0.66546039693E+02  0.20477810981E+04  0.22332103808E+04  0.88270221829E+03 0.  0.
         23    2    4    4    0    0  0.29287663156E+03  0.19945227453E+03  0.31471392527E+03  0.48215165482E+03  0.88698547673E+02 0.  0.
         23    2    4    4    0    0 -0.19173515893E+03 -0.13290623483E+03  0.17330671728E+04  0.17510587259E+04  0.90875727138E+02 0.  0.
          1    1    3    3  502    0 -0.18029584034E+02 -0.40003406346E+01  0.13783034507E+02  0.23044319600E+02  0.00000000000E+00 0. -1.
         -2    1    3    3    0  502 -0.83111888596E+02 -0.62545699058E+02  0.61895720722E+03  0.62763649899E+03  0.00000000000E+00 0.  1.
         13    1    5    5    0    0  0.20966465484E+03  0.18232930336E+03  0.26363484841E+03  0.38302294403E+03  0.00000000000E+00 0. -1.
        -13    1    5    5    0    0  0.83211976716E+02  0.17122971166E+02  0.51079076857E+02  0.99128710791E+02  0.00000000000E+00 0.  1.
          2    1    6    6  503    0 -0.12636809203E+03 -0.13226726079E+03  0.13692182458E+04  0.13813841347E+04  0.00000000000E+00 0. -1.
         -2    1    6    6    0  503 -0.65367066898E+02 -0.63897404329E+00  0.36384892703E+03  0.36967459126E+03  0.00000000000E+00 0.  1.
<mgrwt>
<rscale>  0 0.10637828E+04</rscale>
<asrwt>0</asrwt>
<pdfrwt beam="1">  1        1 0.15643837E-01 0.10637828E+04</pdfrwt>
<pdfrwt beam="2">  1       -2 0.42803168E+00 0.10637828E+04</pdfrwt>
<totfact> 0.15793026E+00</totfact>
</mgrwt>
</event>
<event>
12    5  0.5029243E-008  0.1250155E+04  0.7818608E-02  0.9070054E-01
          1   -1    0    0  501    0  0.00000000000E+00  0.00000000000E+00  0.10819440112E+04  0.10819440112E+04  0.00000000000E+00 0. -1.
         -2   -1    0    0    0  501 -0.00000000000E+00 -0.00000000000E+00 -0.36112936375E+03  0.36112936375E+03  0.00000000000E+00 0.  1.
        -24    2    1    2    0    0  0.15285508008E+02 -0.22802934364E+02 -0.19012224316E+03  0.20780238663E+03  0.79257453753E+02 0.  0.
        254    2    1    2    0    0 -0.15285508008E+02  0.22802934364E+02  0.91093689064E+03  0.12352709884E+04  0.83386736077E+03 0.  0.
         23    2    4    4    0    0 -0.22979978776E+03  0.29338468499E+03  0.75125403928E+03  0.84360338629E+03  0.91659838480E+02 0.  0.
         23    2    4    4    0    0  0.21451427975E+03 -0.27058175063E+03  0.15968285136E+03  0.39166760206E+03  0.93134512899E+02 0.  0.
          1    1    3    3  502    0 -0.14808588527E+02 -0.33978975925E+02 -0.41029589496E+02  0.55292787172E+02  0.00000000000E+00 0. -1.
         -2    1    3    3    0  502  0.30094096534E+02  0.11176041561E+02 -0.14909265366E+03  0.15250959946E+03  0.00000000000E+00 0.  1.
         13    1    5    5    0    0 -0.14616907814E+03  0.24068618063E+03  0.60171127065E+03  0.66434305158E+03  0.00000000000E+00 0.  1.
        -13    1    5    5    0    0 -0.83630709620E+02  0.52698504362E+02  0.14954276863E+03  0.17926033472E+03  0.00000000000E+00 0. -1.
          3    1    6    6  503    0 -0.63568671692E+01  0.20528743150E+01  0.41588720913E+01  0.78689433999E+01  0.00000000000E+00 0. -1.
         -3    1    6    6    0  503  0.22087114692E+03 -0.27263462494E+03  0.15552397927E+03  0.38379865866E+03  0.00000000000E+00 0.  1.
<mgrwt>
<rscale>  0 0.12501548E+04</rscale>
<asrwt>0</asrwt>
<pdfrwt beam="1">  1        1 0.16645292E+00 0.12501548E+04</pdfrwt>
<pdfrwt beam="2">  1       -2 0.55558364E-01 0.12501548E+04</pdfrwt>
<totfact> 0.34439582E+01</totfact>
</mgrwt>
</event>
<event>
12    5  0.5029243E-008  0.1065280E+04  0.7818608E-02  0.9239710E-01
          1   -1    0    0  501    0  0.00000000000E+00  0.00000000000E+00  0.14077186752E+04  0.14077186752E+04  0.00000000000E+00 0. -1.
         -2   -1    0    0    0  501 -0.00000000000E+00 -0.00000000000E+00 -0.20153536961E+03  0.20153536961E+03  0.00000000000E+00 0.  1.
        -24    2    1    2    0    0  0.12016072961E+03 -0.27864936836E+02  0.96178032747E+02  0.17520403258E+03  0.78937845207E+02 0.  0.
        254    2    1    2    0    0 -0.12016072961E+03  0.27864936836E+02  0.11100052728E+04  0.14340500122E+04  0.89954025823E+03 0.  0.
         23    2    4    4    0    0  0.25839873917E+03 -0.20535607756E+03  0.15110426857E+03  0.37413170636E+03  0.90559409917E+02 0.  0.
         23    2    4    4    0    0 -0.37855946878E+03  0.23322101439E+03  0.95890100427E+03  0.10599183059E+04  0.78970666470E+02 0.  0.
          1    1    3    3  502    0  0.12645825365E+03 -0.22992878175E+02  0.10300713780E+03  0.16471439767E+03  0.00000000000E+00 0. -1.
         -2    1    3    3    0  502 -0.62975240407E+01 -0.48720586612E+01 -0.68291050578E+01  0.10489634909E+02  0.00000000000E+00 0.  1.
         13    1    5    5    0    0  0.23527518638E+03 -0.15593319598E+03  0.14981201357E+03  0.31955158323E+03  0.00000000000E+00 0. -1.
        -13    1    5    5    0    0  0.23123552796E+02 -0.49422881582E+02  0.12922549963E+01  0.54580123129E+02  0.00000000000E+00 0.  1.
          1    1    6    6  503    0 -0.37791105118E+03  0.21790427302E+03  0.92410716522E+03  0.10218968087E+04  0.00000000000E+00 0. -1.
         -1    1    6    6    0  503 -0.64841760488E+00  0.15316741371E+02  0.34793839056E+02  0.38021497181E+02  0.00000000000E+00 0.  1.
<mgrwt>
<rscale>  0 0.10652795E+04</rscale>
<asrwt>0</asrwt>
<pdfrwt beam="1">  1        1 0.21657210E+00 0.10652795E+04</pdfrwt>
<pdfrwt beam="2">  1       -2 0.31005442E-01 0.10652795E+04</pdfrwt>
<totfact> 0.64072216E+01</totfact>
</mgrwt>
</event>
<event>
12    5  0.5029243E-008  0.2453272E+04  0.7818608E-02  0.8419824E-01
          1   -1    0    0  501    0  0.00000000000E+00  0.00000000000E+00  0.93053737326E+03  0.93053737326E+03  0.00000000000E+00 0. -1.
         -2   -1    0    0    0  501 -0.00000000000E+00 -0.00000000000E+00 -0.16169533822E+04  0.16169533822E+04  0.00000000000E+00 0.  1.
        -24    2    1    2    0    0 -0.90401182705E+01 -0.17777380271E+03  0.78112600621E+03  0.80522905292E+03  0.80936650617E+02 0.  0.
        254    2    1    2    0    0  0.90401182705E+01  0.17777380271E+03 -0.14675420152E+04  0.17422617026E+04  0.92201465566E+03 0.  0.
         23    2    4    4    0    0  0.37021689099E+03  0.31902741513E+03 -0.54588914046E+03  0.73833862355E+03  0.91158825004E+02 0.  0.
         23    2    4    4    0    0 -0.36117677272E+03 -0.14125361242E+03 -0.92165287471E+03  0.10039230790E+04  0.89533697186E+02 0.  0.
          3    1    3    3  502    0  0.24919602074E+01 -0.16825975189E+03  0.59027043732E+03  0.61378884248E+03  0.00000000000E+00 0. -1.
         -4    1    3    3    0  502 -0.11532078478E+02 -0.95140508135E+01  0.19085556889E+03  0.19144021044E+03  0.00000000000E+00 0.  1.
         13    1    5    5    0    0  0.16059520058E+03  0.19180266174E+03 -0.24449587047E+03  0.34979609800E+03  0.00000000000E+00 0. -1.
        -13    1    5    5    0    0  0.20962169042E+03  0.12722475339E+03 -0.30139326999E+03  0.38854252555E+03  0.00000000000E+00 0.  1.
          3    1    6    6  503    0 -0.64347543393E+02 -0.48415232425E+02 -0.27186758086E+03  0.28354298192E+03  0.00000000000E+00 0. -1.
         -3    1    6    6    0  503 -0.29682922933E+03 -0.92838379994E+02 -0.64978529385E+03  0.72038009710E+03  0.00000000000E+00 0.  1.
<mgrwt>
<rscale>  0 0.24532717E+04</rscale>
<asrwt>0</asrwt>
<pdfrwt beam="1">  1        1 0.14315960E+00 0.24532717E+04</pdfrwt>
<pdfrwt beam="2">  1       -2 0.24876206E+00 0.24532717E+04</pdfrwt>
<totfact> 0.87894330E-01</totfact>
</mgrwt>
</event>
<event>
12    5  0.5029243E-008  0.1510497E+04  0.7818608E-02  0.8877502E-01
         -2   -1    0    0    0  501 -0.00000000000E+00  0.00000000000E+00  0.71597298869E+03  0.71597298869E+03  0.00000000000E+00 0.  1.
          1   -1    0    0  501    0  0.00000000000E+00 -0.00000000000E+00 -0.79667837460E+03  0.79667837460E+03  0.00000000000E+00 0. -1.
        -24    2    1    2    0    0 -0.10439399133E+03  0.26899373333E+03  0.36049116182E+03  0.46863114905E+03  0.80034630753E+02 0.  0.
        254    2    1    2    0    0  0.10439399133E+03 -0.26899373333E+03 -0.44119654773E+03  0.10440202142E+04  0.90114820092E+03 0.  0.
         23    2    4    4    0    0  0.21994925155E+03 -0.56642801179E+03 -0.30703063700E+03  0.68702528926E+03  0.92290683340E+02 0.  0.
         23    2    4    4    0    0 -0.11555526022E+03  0.29743427846E+03 -0.13416591073E+03  0.35699492498E+03  0.87319623754E+02 0.  0.
          1    1    3    3  502    0 -0.75538189903E+02  0.94028185078E+02  0.12332387985E+03  0.17249955671E+03  0.00000000000E+00 0. -1.
         -2    1    3    3    0  502 -0.28855801431E+02  0.17496554825E+03  0.23716728197E+03  0.29613159235E+03  0.00000000000E+00 0.  1.
         13    1    5    5    0    0 -0.81040421829E+00 -0.74588258343E+02 -0.49813097981E+02  0.89696208215E+02  0.00000000000E+00 0.  1.
        -13    1    5    5    0    0  0.22075965577E+03 -0.49183975345E+03 -0.25721753902E+03  0.59732908105E+03  0.00000000000E+00 0. -1.
          3    1    6    6  503    0 -0.46126979098E+02  0.46961692273E+02 -0.30930700593E+01  0.65898906093E+02  0.00000000000E+00 0. -1.
         -3    1    6    6    0  503 -0.69428281119E+02  0.25047258619E+03 -0.13107284067E+03  0.29109601889E+03  0.00000000000E+00 0.  1.
<mgrwt>
<rscale>  0 0.15104969E+04</rscale>
<asrwt>0</asrwt>
<pdfrwt beam="1">  1        1 0.12256590E+00 0.15104969E+04</pdfrwt>
<pdfrwt beam="2">  1       -2 0.11014969E+00 0.15104969E+04</pdfrwt>
<totfact> 0.12340391E+01</totfact>
</mgrwt>
</event>
<event>
12    5  0.5029243E-008  0.1334810E+04  0.7818608E-02  0.9002407E-01
         -2   -1    0    0    0  501 -0.00000000000E+00  0.00000000000E+00  0.32194907465E+03  0.32194907465E+03  0.00000000000E+00 0.  1.
          1   -1    0    0  501    0  0.00000000000E+00 -0.00000000000E+00 -0.13835390524E+04  0.13835390524E+04  0.00000000000E+00 0. -1.
        -24    2    1    2    0    0 -0.77204281348E+02  0.26967873879E+03 -0.51572060129E+01  0.28742329283E+03  0.62437402824E+02 0.  0.
        254    2    1    2    0    0  0.77204281348E+02 -0.26967873879E+03 -0.10564327717E+04  0.14180648342E+04  0.90342157913E+03 0.  0.
         23    2    4    4    0    0  0.30108244697E+03 -0.34549614272E+03 -0.17193847487E+03  0.49808188814E+03  0.92219865772E+02 0.  0.
         23    2    4    4    0    0 -0.22387816562E+03  0.75817403934E+02 -0.88449429688E+03  0.91998294608E+03  0.90381126894E+02 0.  0.
          1    1    3    3  502    0 -0.79134662656E+02  0.26266069010E+03 -0.15518092340E+02  0.27476124935E+03  0.00000000000E+00 0. -1.
         -2    1    3    3    0  502  0.19303813077E+01  0.70180486922E+01  0.10360886327E+02  0.12662043473E+02  0.00000000000E+00 0.  1.
         13    1    5    5    0    0  0.15891437759E+03 -0.16243891787E+03 -0.13225803995E+03  0.26293035308E+03  0.00000000000E+00 0. -1.
        -13    1    5    5    0    0  0.14216806939E+03 -0.18305722485E+03 -0.39680434921E+02  0.23515153506E+03  0.00000000000E+00 0.  1.
          4    1    6    6  503    0 -0.14193155752E+03  0.37481696335E+02 -0.69047517071E+03  0.70590750523E+03  0.00000000000E+00 0. -1.
         -4    1    6    6    0  503 -0.81946608104E+02  0.38335707599E+02 -0.19401912617E+03  0.21407544085E+03  0.00000000000E+00 0.  1.
<mgrwt>
<rscale>  0 0.13348095E+04</rscale>
<asrwt>0</asrwt>
<pdfrwt beam="1">  1        1 0.21285216E+00 0.13348095E+04</pdfrwt>
<pdfrwt beam="2">  1       -2 0.49530628E-01 0.13348095E+04</pdfrwt>
<totfact> 0.26168473E+01</totfact>
</mgrwt>
</event>
<event>
12    5  0.5029243E-008  0.1214216E+04  0.7818608E-02  0.9100504E-01
          1   -1    0    0  501    0  0.00000000000E+00  0.00000000000E+00  0.11071235088E+03  0.11071235088E+03  0.00000000000E+00 0. -1.
         -2   -1    0    0    0  501 -0.00000000000E+00 -0.00000000000E+00 -0.33291669013E+04  0.33291669013E+04  0.00000000000E+00 0.  1.
        -24    2    1    2    0    0  0.65225003161E+02 -0.35997266962E+02 -0.13353848290E+02  0.11443182417E+03  0.85826644191E+02 0.  0.
        254    2    1    2    0    0 -0.65225003161E+02  0.35997266962E+02 -0.32051007022E+04  0.33254474280E+04  0.88339118251E+03 0.  0.
         23    2    4    4    0    0 -0.16473964479E+03 -0.28826649978E+03 -0.26242852395E+04  0.26468096797E+04  0.92150618250E+02 0.  0.
         23    2    4    4    0    0  0.99514641624E+02  0.32426376674E+03 -0.58081546263E+03  0.67863774837E+03  0.90290849876E+02 0.  0.
          1    1    3    3  502    0  0.60352329078E+02 -0.44163837690E+01  0.24155419238E+02  0.65156675401E+02  0.00000000000E+00 0. -1.
         -2    1    3    3    0  502  0.48726740831E+01 -0.31580883193E+02 -0.37509267528E+02  0.49275148772E+02  0.00000000000E+00 0.  1.
         13    1    5    5    0    0 -0.14159294177E+03 -0.19292272604E+03 -0.20833067790E+04  0.20970061695E+04  0.00000000000E+00 0.  1.
        -13    1    5    5    0    0 -0.23146703017E+02 -0.95343773739E+02 -0.54097846054E+03  0.54980351019E+03  0.00000000000E+00 0. -1.
          3    1    6    6  503    0  0.27791151372E+02  0.16724285148E+03 -0.36358502919E+03  0.40116903285E+03  0.00000000000E+00 0. -1.
         -3    1    6    6    0  503  0.71723490252E+02  0.15702091526E+03 -0.21723043344E+03  0.27746871552E+03  0.00000000000E+00 0.  1.
<mgrwt>
<rscale>  0 0.12142156E+04</rscale>
<asrwt>0</asrwt>
<pdfrwt beam="1">  1        1 0.17032671E-01 0.12142156E+04</pdfrwt>
<pdfrwt beam="2">  1       -2 0.51217946E+00 0.12142156E+04</pdfrwt>
<totfact> 0.39266212E-01</totfact>
</mgrwt>
</event>
<event>
12    5  0.5029243E-008  0.1076908E+04  0.7818608E-02  0.9227996E-01
          1   -1    0    0  501    0  0.00000000000E+00  0.00000000000E+00  0.20562358875E+03  0.20562358875E+03  0.00000000000E+00 0. -1.
         -2   -1    0    0    0  501 -0.00000000000E+00 -0.00000000000E+00 -0.14100174790E+04  0.14100174790E+04  0.00000000000E+00 0.  1.
        -24    2    1    2    0    0  0.11566357918E+03 -0.42433753951E+02 -0.72120491508E+02  0.16335204493E+03  0.79396714431E+02 0.  0.
        254    2    1    2    0    0 -0.11566357918E+03  0.42433753951E+02 -0.11322733987E+04  0.14522890228E+04  0.90106696160E+03 0.  0.
         23    2    4    4    0    0 -0.11964378827E+03  0.14323191467E+03 -0.12514207220E+04  0.12687654731E+04  0.94244282551E+02 0.  0.
         23    2    4    4    0    0  0.39802090841E+01 -0.10079816072E+03  0.11914732331E+03  0.18352354969E+03  0.96481590833E+02 0.  0.
          1    1    3    3  502    0  0.10386632104E+03 -0.34197271173E+01 -0.39608892919E+02  0.11121497911E+03  0.00000000000E+00 0. -1.
         -2    1    3    3    0  502  0.11797258146E+02 -0.39014026834E+02 -0.32511598589E+02  0.52137065820E+02  0.00000000000E+00 0.  1.
         13    1    5    5    0    0 -0.37163221658E+02 -0.41711372099E+01 -0.15735869094E+03  0.16174133993E+03  0.00000000000E+00 0. -1.
        -13    1    5    5    0    0 -0.82480566609E+02  0.14740305188E+03 -0.10940620311E+04  0.11070241332E+04  0.00000000000E+00 0.  1.
          4    1    6    6  503    0  0.33766706821E+02 -0.98144577593E+01  0.66202860697E+01  0.35781870526E+02  0.00000000000E+00 0. -1.
         -4    1    6    6    0  503 -0.29786497737E+02 -0.90983702962E+02  0.11252703724E+03  0.14774167917E+03  0.00000000000E+00 0.  1.
<mgrwt>
<rscale>  0 0.10769083E+04</rscale>
<asrwt>0</asrwt>
<pdfrwt beam="1">  1        1 0.31634399E-01 0.10769083E+04</pdfrwt>
<pdfrwt beam="2">  1       -2 0.21692576E+00 0.10769083E+04</pdfrwt>
<totfact> 0.12917048E+01</totfact>
</mgrwt>
</event>
<event>
12    5  0.5029243E-008  0.1547427E+04  0.7818608E-02  0.8853513E-01
         -2   -1    0    0    0  501 -0.00000000000E+00  0.00000000000E+00  0.10096893007E+04  0.10096893007E+04  0.00000000000E+00 0.  1.
          1   -1    0    0  501    0  0.00000000000E+00 -0.00000000000E+00 -0.59288764527E+03  0.59288764527E+03  0.00000000000E+00 0. -1.
        -24    2    1    2    0    0  0.29646587122E+03 -0.22119704488E+03 -0.21905372688E+03  0.43725391800E+03  0.79914379725E+02 0.  0.
        254    2    1    2    0    0 -0.29646587122E+03  0.22119704488E+03  0.63585538235E+03  0.11653230280E+04  0.90379508015E+03 0.  0.
         23    2    4    4    0    0  0.50021746716E+02  0.50615129504E+03  0.38037036060E+03  0.64114661642E+03  0.87727213008E+02 0.  0.
         23    2    4    4    0    0 -0.34648761794E+03 -0.28495425016E+03  0.25548502175E+03  0.52417641160E+03  0.90750868148E+02 0.  0.
          3    1    3    3  502    0  0.18116287240E+03 -0.17638611371E+03 -0.16714513737E+03  0.30309989177E+03  0.00000000000E+00 0. -1.
         -4    1    3    3    0  502  0.11530299882E+03 -0.44810931171E+02 -0.51908589510E+02  0.13415402623E+03  0.00000000000E+00 0.  1.
         13    1    5    5    0    0  0.36800469300E+02  0.19543432027E+03  0.19795755092E+03  0.28059942987E+03  0.00000000000E+00 0.  1.
        -13    1    5    5    0    0  0.13221277416E+02  0.31071697477E+03  0.18241280969E+03  0.36054718655E+03  0.00000000000E+00 0. -1.
          3    1    6    6  503    0 -0.17557175097E+03 -0.18167139804E+03  0.18205028310E+03  0.31140366437E+03  0.00000000000E+00 0. -1.
         -3    1    6    6    0  503 -0.17091586697E+03 -0.10328285212E+03  0.73434738648E+02  0.21277274723E+03  0.00000000000E+00 0.  1.
<mgrwt>
<rscale>  0 0.15474267E+04</rscale>
<asrwt>0</asrwt>
<pdfrwt beam="1">  1        1 0.91213484E-01 0.15474267E+04</pdfrwt>
<pdfrwt beam="2">  1       -2 0.15533682E+00 0.15474267E+04</pdfrwt>
<totfact> 0.80135853E+00</totfact>
</mgrwt>
</event>
<event>
12    5  0.5029243E-008  0.2019521E+04  0.7818608E-02  0.8597548E-01
         -2   -1    0    0    0  501 -0.00000000000E+00  0.00000000000E+00  0.34622140267E+03  0.34622140267E+03  0.00000000000E+00 0.  1.
          1   -1    0    0  501    0  0.00000000000E+00 -0.00000000000E+00 -0.29449842978E+04  0.29449842978E+04  0.00000000000E+00 0. -1.
        -24    2    1    2    0    0  0.71664006683E+03  0.92446640042E+02 -0.44913899911E+03  0.85453373736E+03  0.79891808888E+02 0.  0.
        254    2    1    2    0    0 -0.71664006683E+03 -0.92446640042E+02 -0.21496238960E+04  0.24366719631E+04  0.89127324365E+03 0.  0.
         23    2    4    4    0    0 -0.12687187836E+03 -0.16979239659E+03 -0.16167414477E+04  0.16332593372E+04  0.93580031879E+02 0.  0.
         23    2    4    4    0    0 -0.58976818847E+03  0.77345756545E+02 -0.53288244835E+03  0.80341262595E+03  0.87745436274E+02 0.  0.
          1    1    3    3  502    0  0.40373891635E+03  0.75740484494E+02 -0.29202339398E+03  0.50400336924E+03  0.00000000000E+00 0. -1.
         -2    1    3    3    0  502  0.31290115047E+03  0.16706155548E+02 -0.15711560512E+03  0.35053036812E+03  0.00000000000E+00 0.  1.
         13    1    5    5    0    0 -0.37743905767E+02 -0.12641291191E+03 -0.98277227148E+03  0.99158769874E+03  0.00000000000E+00 0.  1.
        -13    1    5    5    0    0 -0.89127972594E+02 -0.43379484681E+02 -0.63396917620E+03  0.64167163843E+03  0.00000000000E+00 0. -1.
          4    1    6    6  503    0 -0.56726682472E+02 -0.15976181677E+02 -0.38187884364E+02  0.70224421660E+02  0.00000000000E+00 0. -1.
         -4    1    6    6    0  503 -0.53304150600E+03  0.93321938222E+02 -0.49469456399E+03  0.73318820429E+03  0.00000000000E+00 0.  1.
<mgrwt>
<rscale>  0 0.20195213E+04</rscale>
<asrwt>0</asrwt>
<pdfrwt beam="1">  1        1 0.45307450E+00 0.20195213E+04</pdfrwt>
<pdfrwt beam="2">  1       -2 0.53264832E-01 0.20195213E+04</pdfrwt>
<totfact> 0.17749937E+00</totfact>
</mgrwt>
</event>
<event>
12    5  0.5029243E-008  0.1858803E+04  0.7818608E-02  0.8675639E-01
          1   -1    0    0  501    0  0.00000000000E+00  0.00000000000E+00  0.29121546963E+04  0.29121546963E+04  0.00000000000E+00 0. -1.
         -2   -1    0    0    0  501 -0.00000000000E+00 -0.00000000000E+00 -0.29661448342E+03  0.29661448342E+03  0.00000000000E+00 0.  1.
        -24    2    1    2    0    0  0.73947344045E+02  0.38014306845E+03 -0.14407492818E+02  0.39531660526E+03  0.78042811117E+02 0.  0.
        254    2    1    2    0    0 -0.73947344045E+02 -0.38014306845E+03  0.26299477057E+04  0.28134525745E+04  0.92136501553E+03 0.  0.
         23    2    4    4    0    0 -0.60667084652E+02 -0.57380589590E+03  0.91783014034E+03  0.10879593238E+04  0.91157130128E+02 0.  0.
         23    2    4    4    0    0 -0.13280259393E+02  0.19366282746E+03  0.17121175654E+04  0.17254932507E+04  0.91097444876E+02 0.  0.
          3    1    3    3  502    0  0.79963290149E+02  0.27098397256E+03  0.12205566588E+02  0.28279925214E+03  0.00000000000E+00 0. -1.
         -4    1    3    3    0  502 -0.60159461036E+01  0.10915909589E+03 -0.26613059406E+02  0.11251735313E+03  0.00000000000E+00 0.  1.
         13    1    5    5    0    0 -0.64203571623E+02 -0.57340762810E+03  0.91813789408E+03  0.10843871998E+04  0.00000000000E+00 0. -1.
        -13    1    5    5    0    0  0.35364869708E+01 -0.39826780147E+00 -0.30775374090E+00  0.35721239762E+01  0.00000000000E+00 0.  1.
          1    1    6    6  503    0 -0.46888417561E+01  0.12743811882E+03  0.14257784130E+04  0.14314700634E+04  0.00000000000E+00 0. -1.
         -1    1    6    6    0  503 -0.85914176367E+01  0.66224708640E+02  0.28633915233E+03  0.29402318726E+03  0.00000000000E+00 0.  1.
<mgrwt>
<rscale>  0 0.18588031E+04</rscale>
<asrwt>0</asrwt>
<pdfrwt beam="1">  1        1 0.44802378E+00 0.18588031E+04</pdfrwt>
<pdfrwt beam="2">  1       -2 0.45632999E-01 0.18588031E+04</pdfrwt>
<totfact> 0.26062441E+00</totfact>
</mgrwt>
</event>
<event>
12    5  0.5049969E-008  0.1834889E+04  0.7818608E-02  0.8687963E-01
         -2   -1    0    0    0  501 -0.00000000000E+00  0.00000000000E+00  0.73040601911E+03  0.73040601911E+03  0.00000000000E+00 0.  1.
          1   -1    0    0  501    0  0.00000000000E+00 -0.00000000000E+00 -0.11523791054E+04  0.11523791054E+04  0.00000000000E+00 0. -1.
        -24    2    1    2    0    0  0.30212169610E+03  0.16285240600E+02 -0.78239603181E+03  0.84281346561E+03  0.81536856093E+02 0.  0.
        254    2    1    2    0    0 -0.30212169610E+03 -0.16285240600E+02  0.36042294555E+03  0.10399716589E+04  0.92741232646E+03 0.  0.
         23    2    4    4    0    0  0.26717589264E+03 -0.22624664117E+03  0.11421443512E+03  0.37888610284E+03  0.89102421345E+02 0.  0.
         23    2    4    4    0    0 -0.56929758874E+03  0.20996140057E+03  0.24620851042E+03  0.66108555603E+03  0.90730080582E+02 0.  0.
          3    1    3    3  502    0  0.24887028910E+03 -0.17992119592E+02 -0.60403329471E+03  0.65354139753E+03  0.00000000000E+00 0. -1.
         -4    1    3    3    0  502  0.53251406993E+02  0.34277360192E+02 -0.17836273709E+03  0.18927206807E+03  0.00000000000E+00 0.  1.
         13    1    5    5    0    0  0.22397032336E+03 -0.14334755503E+03  0.67340074693E+02  0.27430988488E+03  0.00000000000E+00 0. -1.
        -13    1    5    5    0    0  0.43205569277E+02 -0.82899086134E+02  0.46874360432E+02  0.10457621797E+03  0.00000000000E+00 0.  1.
          3    1    6    6  503    0 -0.50491264428E+03  0.15400715468E+03  0.21956664375E+03  0.57172064253E+03  0.00000000000E+00 0. -1.
         -3    1    6    6    0  503 -0.64384944452E+02  0.55954245890E+02  0.26641866669E+02  0.89364913500E+02  0.00000000000E+00 0.  1.
<mgrwt>
<rscale>  0 0.18348892E+04</rscale>
<asrwt>0</asrwt>
<pdfrwt beam="1">  1        1 0.17728909E+00 0.18348892E+04</pdfrwt>
<pdfrwt beam="2">  1       -2 0.11237016E+00 0.18348892E+04</pdfrwt>
<totfact> 0.59637471E+00</totfact>
</mgrwt>
</event>
<event>
12    5  0.5029243E-008  0.2914882E+04  0.7818608E-02  0.8268463E-01
         -4   -1    0    0    0  501 -0.00000000000E+00  0.00000000000E+00  0.13569879670E+04  0.13569879670E+04  0.00000000000E+00 0.  1.
          1   -1    0    0  501    0  0.00000000000E+00 -0.00000000000E+00 -0.15653299524E+04  0.15653299524E+04  0.00000000000E+00 0. -1.
        -24    2    1    2    0    0 -0.52879667224E+03 -0.26818223340E+03 -0.12721142363E+04  0.14055814486E+04  0.76399917717E+02 0.  0.
        254    2    1    2    0    0  0.52879667224E+03  0.26818223340E+03  0.10637722509E+04  0.15167364708E+04  0.90406332152E+03 0.  0.
         23    2    4    4    0    0 -0.82260128747E+02 -0.23893840675E+03  0.37713488146E+03  0.46295026323E+03  0.90741040403E+02 0.  0.
         23    2    4    4    0    0  0.61105680099E+03  0.50712064014E+03  0.68663736945E+03  0.10537862076E+04  0.91829932706E+02 0.  0.
          3    1    3    3  502    0 -0.50239400455E+03 -0.25938801051E+03 -0.12416337874E+04  0.13643080069E+04  0.00000000000E+00 0. -1.
         -4    1    3    3    0  502 -0.26402667688E+02 -0.87942228822E+01 -0.30480448946E+02  0.41273441643E+02  0.00000000000E+00 0.  1.
         13    1    5    5    0    0 -0.60393326358E+02 -0.22378638732E+03  0.28667770644E+03  0.36866218736E+03  0.00000000000E+00 0. -1.
        -13    1    5    5    0    0 -0.21866802390E+02 -0.15152019426E+02  0.90457175018E+02  0.94288075872E+02  0.00000000000E+00 0.  1.
          3    1    6    6  503    0  0.37900341908E+03  0.35565106142E+03  0.48699996162E+03  0.71225011883E+03  0.00000000000E+00 0. -1.
         -3    1    6    6    0  503  0.23205338191E+03  0.15146957872E+03  0.19963740784E+03  0.34153608878E+03  0.00000000000E+00 0.  1.
<mgrwt>
<rscale>  0 0.29148818E+04</rscale>
<asrwt>0</asrwt>
<pdfrwt beam="1">  1        1 0.24081999E+00 0.29148818E+04</pdfrwt>
<pdfrwt beam="2">  1       -4 0.20876738E+00 0.29148818E+04</pdfrwt>
<totfact> 0.28281113E-01</totfact>
</mgrwt>
</event>
<event>
12    5  0.5029243E-008  0.3005518E+04  0.7818608E-02  0.8242157E-01
         -2   -1    0    0    0  501 -0.00000000000E+00  0.00000000000E+00  0.81848354781E+03  0.81848354781E+03  0.00000000000E+00 0.  1.
          1   -1    0    0  501    0  0.00000000000E+00 -0.00000000000E+00 -0.27591080608E+04  0.27591080608E+04  0.00000000000E+00 0. -1.
        -24    2    1    2    0    0  0.35611225136E+03  0.77885905086E+02 -0.24541959985E+04  0.24823618143E+04  0.78485847411E+02 0.  0.
        254    2    1    2    0    0 -0.35611225136E+03 -0.77885905086E+02  0.51357148551E+03  0.10952297943E+04  0.89604156257E+03 0.  0.
         23    2    4    4    0    0 -0.33002434055E+03 -0.10137576536E+03  0.75483099057E+03  0.83491500773E+03  0.90111789769E+02 0.  0.
         23    2    4    4    0    0 -0.26087910810E+02  0.23489860272E+02 -0.24125950506E+03  0.26031478659E+03  0.91243009089E+02 0.  0.
          3    1    3    3  502    0  0.21257464385E+03  0.83355186387E+02 -0.15894545473E+04  0.16057714110E+04  0.00000000000E+00 0. -1.
         -4    1    3    3    0  502  0.14353760751E+03 -0.54692813015E+01 -0.86474145116E+03  0.87659040330E+03  0.00000000000E+00 0.  1.
         13    1    5    5    0    0 -0.19642668177E+03 -0.61894559247E+02  0.54913433325E+03  0.58648349826E+03  0.00000000000E+00 0. -1.
        -13    1    5    5    0    0 -0.13359765878E+03 -0.39481206110E+02  0.20569665732E+03  0.24843150947E+03  0.00000000000E+00 0.  1.
          3    1    6    6  503    0 -0.17891855429E+02  0.33318102485E+01 -0.23754296373E+03  0.23823912161E+03  0.00000000000E+00 0. -1.
         -3    1    6    6    0  503 -0.81960553806E+01  0.20158050023E+02 -0.37165413320E+01  0.22075664973E+02  0.00000000000E+00 0.  1.
<mgrwt>
<rscale>  0 0.30055180E+04</rscale>
<asrwt>0</asrwt>
<pdfrwt beam="1">  1        1 0.42447816E+00 0.30055180E+04</pdfrwt>
<pdfrwt beam="2">  1       -2 0.12592055E+00 0.30055180E+04</pdfrwt>
<totfact> 0.31384368E-01</totfact>
</mgrwt>
</event>
<event>
12    5  0.5029243E-008  0.1188170E+04  0.7818608E-02  0.9123275E-01
         -4   -1    0    0    0  501 -0.00000000000E+00  0.00000000000E+00  0.30345181123E+03  0.30345181123E+03  0.00000000000E+00 0.  1.
          3   -1    0    0  501    0  0.00000000000E+00 -0.00000000000E+00 -0.11630733838E+04  0.11630733838E+04  0.00000000000E+00 0. -1.
        -24    2    1    2    0    0 -0.22169603570E+02 -0.11688939870E+03  0.64644018664E+02  0.16020389580E+03  0.85626025410E+02 0.  0.
        254    2    1    2    0    0  0.22169603570E+02  0.11688939870E+03 -0.92426559126E+03  0.13063212993E+04  0.91545280100E+03 0.  0.
         23    2    4    4    0    0 -0.31751875135E+03 -0.52825040714E+02 -0.37149040553E+02  0.33650266597E+03  0.90803912921E+02 0.  0.
         23    2    4    4    0    0  0.33968835492E+03  0.16971443942E+03 -0.88711655070E+03  0.96981863329E+03  0.96856788759E+02 0.  0.
          1    1    3    3  502    0 -0.19905093898E+02  0.71506871670E+01  0.20581311072E+01  0.21250435141E+02  0.00000000000E+00 0. -1.
         -2    1    3    3    0  502 -0.22645096723E+01 -0.12404008587E+03  0.62585887557E+02  0.13895346065E+03  0.00000000000E+00 0.  1.
         13    1    5    5    0    0 -0.15549911215E+03 -0.71436686676E+02 -0.12684053191E+02  0.17159271339E+03  0.00000000000E+00 0. -1.
        -13    1    5    5    0    0 -0.16201963921E+03  0.18611645961E+02 -0.24464987362E+02  0.16490995258E+03  0.00000000000E+00 0.  1.
          1    1    6    6  503    0  0.19985724048E+03  0.48768811132E+02 -0.50620310670E+03  0.54640909468E+03  0.00000000000E+00 0. -1.
         -1    1    6    6    0  503  0.13983111444E+03  0.12094562828E+03 -0.38091344400E+03  0.42340953861E+03  0.00000000000E+00 0.  1.
<mgrwt>
<rscale>  0 0.11881696E+04</rscale>
<asrwt>0</asrwt>
<pdfrwt beam="1">  1        3 0.17893437E+00 0.11881696E+04</pdfrwt>
<pdfrwt beam="2">  1       -4 0.46684894E-01 0.11881696E+04</pdfrwt>
<totfact> 0.20322034E+00</totfact>
</mgrwt>
</event>
<event>
12    5  0.5029243E-008  0.2277635E+04  0.7818608E-02  0.8486792E-01
          1   -1    0    0  501    0  0.00000000000E+00  0.00000000000E+00  0.81684023209E+03  0.81684023209E+03  0.00000000000E+00 0. -1.
         -2   -1    0    0    0  501 -0.00000000000E+00 -0.00000000000E+00 -0.15877096081E+04  0.15877096081E+04  0.00000000000E+00 0.  1.
        -24    2    1    2    0    0 -0.28945323890E+02  0.69983287819E+03  0.36703699655E+03  0.79493809640E+03  0.81280570250E+02 0.  0.
        254    2    1    2    0    0  0.28945323890E+02 -0.69983287819E+03 -0.11379063726E+04  0.16096117438E+04  0.89744925420E+03 0.  0.
         23    2    4    4    0    0 -0.21250955823E+03 -0.12633460352E+03  0.48077127795E+02  0.26738752518E+03  0.89799409912E+02 0.  0.
         23    2    4    4    0    0  0.24145488212E+03 -0.57349827467E+03 -0.11859835003E+04  0.13422242186E+04  0.88364352337E+02 0.  0.
          3    1    3    3  502    0 -0.12994660582E+02  0.39506970556E+03  0.25209774870E+03  0.46883068197E+03  0.00000000000E+00 0. -1.
         -4    1    3    3    0  502 -0.15950663308E+02  0.30476317263E+03  0.11493924785E+03  0.32610741443E+03  0.00000000000E+00 0.  1.
         13    1    5    5    0    0 -0.11342213469E+03 -0.93733373781E+02 -0.10921567513E+02  0.14754594754E+03  0.00000000000E+00 0. -1.
        -13    1    5    5    0    0 -0.99087423536E+02 -0.32601229738E+02  0.58998695307E+02  0.11984157764E+03  0.00000000000E+00 0.  1.
          3    1    6    6  503    0  0.20655616367E+03 -0.38652208605E+03 -0.82003094106E+03  0.92979326522E+03  0.00000000000E+00 0. -1.
         -3    1    6    6    0  503  0.34898718452E+02 -0.18697618862E+03 -0.36595255928E+03  0.41243095338E+03  0.00000000000E+00 0.  1.
<mgrwt>
<rscale>  0 0.22776348E+04</rscale>
<asrwt>0</asrwt>
<pdfrwt beam="1">  1        1 0.12566773E+00 0.22776348E+04</pdfrwt>
<pdfrwt beam="2">  1       -2 0.24426302E+00 0.22776348E+04</pdfrwt>
<totfact> 0.11827826E+00</totfact>
</mgrwt>
</event>
<event>
12    5  0.5029243E-008  0.1706909E+04  0.7818608E-02  0.8757434E-01
          1   -1    0    0  501    0  0.00000000000E+00  0.00000000000E+00  0.11292379113E+04  0.11292379113E+04  0.00000000000E+00 0. -1.
         -2   -1    0    0    0  501 -0.00000000000E+00 -0.00000000000E+00 -0.64502314015E+03  0.64502314015E+03  0.00000000000E+00 0.  1.
        -24    2    1    2    0    0 -0.32526143992E+03 -0.40562694883E+03  0.50768611206E+03  0.73090452956E+03  0.78409291755E+02 0.  0.
        254    2    1    2    0    0  0.32526143992E+03  0.40562694883E+03 -0.23471340875E+02  0.10433565219E+04  0.90427523579E+03 0.  0.
         23    2    4    4    0    0  0.22699537660E+03 -0.17424790798E+03 -0.26539817722E+03  0.40093103233E+03  0.91762006205E+02 0.  0.
         23    2    4    4    0    0  0.98266063325E+02  0.57987485681E+03  0.24192683635E+03  0.64242548958E+03  0.90944195841E+02 0.  0.
          3    1    3    3  502    0 -0.22669512977E+03 -0.27597836988E+03  0.39690259192E+03  0.53393483682E+03  0.00000000000E+00 0. -1.
         -4    1    3    3    0  502 -0.98566310158E+02 -0.12964857895E+03  0.11078352015E+03  0.19696969274E+03  0.00000000000E+00 0.  1.
         13    1    5    5    0    0  0.11014155157E+03 -0.29608931332E+02 -0.89571399349E+02  0.14502029437E+03  0.00000000000E+00 0. -1.
        -13    1    5    5    0    0  0.11685382503E+03 -0.14463897665E+03 -0.17582677787E+03  0.25591073797E+03  0.00000000000E+00 0.  1.
          4    1    6    6  503    0  0.44752580851E+02  0.28343018766E+03  0.16703929011E+03  0.33202046505E+03  0.00000000000E+00 0. -1.
         -4    1    6    6    0  503  0.53513482474E+02  0.29644466915E+03  0.74887546235E+02  0.31040502454E+03  0.00000000000E+00 0.  1.
<mgrwt>
<rscale>  0 0.17069090E+04</rscale>
<asrwt>0</asrwt>
<pdfrwt beam="1">  1        1 0.17372891E+00 0.17069090E+04</pdfrwt>
<pdfrwt beam="2">  1       -2 0.99234329E-01 0.17069090E+04</pdfrwt>
<totfact> 0.84569707E+00</totfact>
</mgrwt>
</event>
<event>
12    5  0.5029243E-008  0.1765431E+04  0.7818608E-02  0.8724902E-01
         -2   -1    0    0    0  501 -0.00000000000E+00  0.00000000000E+00  0.52112358132E+03  0.52112358132E+03  0.00000000000E+00 0.  1.
          1   -1    0    0  501    0  0.00000000000E+00 -0.00000000000E+00 -0.14952046604E+04  0.14952046604E+04  0.00000000000E+00 0. -1.
        -24    2    1    2    0    0 -0.30475777036E+03  0.53078873660E+03 -0.58466958903E+03  0.85010257657E+03  0.78878900047E+02 0.  0.
        254    2    1    2    0    0  0.30475777036E+03 -0.53078873660E+03 -0.38941149008E+03  0.11662256652E+04  0.91314128808E+03 0.  0.
         23    2    4    4    0    0  0.53626002976E+02 -0.44261613277E+03 -0.64321462695E+03  0.78776997903E+03  0.89842608810E+02 0.  0.
         23    2    4    4    0    0  0.25113176738E+03 -0.88172603829E+02  0.25380313687E+03  0.37845568614E+03  0.89281025016E+02 0.  0.
          3    1    3    3  502    0 -0.16349218737E+03  0.21904172608E+03 -0.28947979936E+03  0.39813003822E+03  0.00000000000E+00 0. -1.
         -4    1    3    3    0  502 -0.14126558299E+03  0.31174701052E+03 -0.29518978966E+03  0.45197253835E+03  0.00000000000E+00 0.  1.
         13    1    5    5    0    0  0.52552753343E+02 -0.14195514914E+03 -0.25776939289E+03  0.29892827929E+03  0.00000000000E+00 0.  1.
        -13    1    5    5    0    0  0.10732496338E+01 -0.30066098363E+03 -0.38544523407E+03  0.48884169974E+03  0.00000000000E+00 0. -1.
          2    1    6    6  503    0  0.14332301577E+03 -0.91949822825E+01  0.16102273663E+03  0.21576458528E+03  0.00000000000E+00 0. -1.
         -2    1    6    6    0  503  0.10780875161E+03 -0.78977621547E+02  0.92780400248E+02  0.16269110086E+03  0.00000000000E+00 0.  1.
<mgrwt>
<rscale>  0 0.17654307E+04</rscale>
<asrwt>0</asrwt>
<pdfrwt beam="1">  1        1 0.23003148E+00 0.17654307E+04</pdfrwt>
<pdfrwt beam="2">  1       -2 0.80172860E-01 0.17654307E+04</pdfrwt>
<totfact> 0.75308326E+00</totfact>
</mgrwt>
</event>
<event>
12    5  0.5029243E-008  0.3654769E+04  0.7818608E-02  0.8078060E-01
          1   -1    0    0  501    0  0.00000000000E+00  0.00000000000E+00  0.15910964244E+04  0.15910964244E+04  0.00000000000E+00 0. -1.
         -2   -1    0    0    0  501 -0.00000000000E+00 -0.00000000000E+00 -0.20987624441E+04  0.20987624441E+04  0.00000000000E+00 0.  1.
        -24    2    1    2    0    0 -0.94423020728E+03 -0.26625978226E+03 -0.16510108258E+04  0.19222024582E+04  0.80997452993E+02 0.  0.
        254    2    1    2    0    0  0.94423020728E+03  0.26625978226E+03  0.11433448060E+04  0.17676564103E+04  0.92461174747E+03 0.  0.
         23    2    4    4    0    0  0.89245825998E+03  0.29735858161E+03  0.12786563471E+04  0.15902762112E+04  0.95459426139E+02 0.  0.
         23    2    4    4    0    0  0.51771947302E+02 -0.31098799354E+02 -0.13531154105E+03  0.17738019917E+03  0.97504113082E+02 0.  0.
          1    1    3    3  502    0 -0.26579549096E+03 -0.10924916926E+03 -0.45092111510E+03  0.53470784176E+03  0.00000000000E+00 0. -1.
         -2    1    3    3    0  502 -0.67843471632E+03 -0.15701061300E+03 -0.12000897107E+04  0.13874946164E+04  0.00000000000E+00 0.  1.
         13    1    5    5    0    0  0.14048078804E+03  0.41657701553E+02  0.14565145140E+03  0.20660242303E+03  0.00000000000E+00 0.  1.
        -13    1    5    5    0    0  0.75197747194E+03  0.25570088006E+03  0.11330048957E+04  0.13836737881E+04  0.00000000000E+00 0. -1.
          1    1    6    6  503    0  0.69591179146E+02 -0.29987990330E+02 -0.13975927203E+03  0.15898070920E+03  0.00000000000E+00 0. -1.
         -1    1    6    6    0  503 -0.17819231844E+02 -0.11108090236E+01  0.44477309844E+01  0.18399489969E+02  0.00000000000E+00 0.  1.
<mgrwt>
<rscale>  0 0.36547686E+04</rscale>
<asrwt>0</asrwt>
<pdfrwt beam="1">  1        1 0.24478407E+00 0.36547686E+04</pdfrwt>
<pdfrwt beam="2">  1       -2 0.32288653E+00 0.36547686E+04</pdfrwt>
<totfact> 0.91981931E-02</totfact>
</mgrwt>
</event>
<event>
12    5  0.5029243E-008  0.1746154E+04  0.7818608E-02  0.8735470E-01
         -2   -1    0    0    0  501 -0.00000000000E+00  0.00000000000E+00  0.41365855573E+03  0.41365855573E+03  0.00000000000E+00 0.  1.
          1   -1    0    0  501    0  0.00000000000E+00 -0.00000000000E+00 -0.18427367319E+04  0.18427367319E+04  0.00000000000E+00 0. -1.
        -24    2    1    2    0    0  0.22175822716E+03 -0.55006583385E+03 -0.19196945320E+03  0.62851000417E+03  0.80146250645E+02 0.  0.
        254    2    1    2    0    0 -0.22175822716E+03  0.55006583385E+03 -0.12371087229E+04  0.16278852834E+04  0.87625531140E+03 0.  0.
         23    2    4    4    0    0 -0.17262189108E+03  0.51550118989E+02  0.77786640350E+02  0.21845719546E+03  0.96005483077E+02 0.  0.
         23    2    4    4    0    0 -0.49136336081E+02  0.49851571486E+03 -0.13148953633E+04  0.14094280880E+04  0.81273743012E+02 0.  0.
          1    1    3    3  502    0 -0.11748127208E+00 -0.64755463496E+00 -0.80749144923E+01  0.81016895098E+01  0.00000000000E+00 0. -1.
         -2    1    3    3    0  502  0.22187570844E+03 -0.54941827921E+03 -0.18389453871E+03  0.62040831466E+03  0.00000000000E+00 0.  1.
         13    1    5    5    0    0 -0.49839783077E+02  0.43295118784E+02 -0.10709350830E+02  0.66881697668E+02  0.00000000000E+00 0. -1.
        -13    1    5    5    0    0 -0.12278210801E+03  0.82550002045E+01  0.88495991180E+02  0.15157549779E+03  0.00000000000E+00 0.  1.
          2    1    6    6  503    0 -0.51602262292E+02  0.16683911931E+03 -0.40919089635E+03  0.44489917382E+03  0.00000000000E+00 0. -1.
         -2    1    6    6    0  503  0.24659262111E+01  0.33167659555E+03 -0.90570446692E+03  0.96452891415E+03  0.00000000000E+00 0.  1.
<mgrwt>
<rscale>  0 0.17461544E+04</rscale>
<asrwt>0</asrwt>
<pdfrwt beam="1">  1        1 0.28349796E+00 0.17461544E+04</pdfrwt>
<pdfrwt beam="2">  1       -2 0.63639778E-01 0.17461544E+04</pdfrwt>
<totfact> 0.72448605E+00</totfact>
</mgrwt>
</event>
<event>
12    5  0.5029243E-008  0.1468817E+04  0.7818608E-02  0.8905458E-01
         -2   -1    0    0    0  501 -0.00000000000E+00  0.00000000000E+00  0.53474274803E+03  0.53474274803E+03  0.00000000000E+00 0.  1.
          1   -1    0    0  501    0  0.00000000000E+00 -0.00000000000E+00 -0.10086272693E+04  0.10086272693E+04  0.00000000000E+00 0. -1.
        -24    2    1    2    0    0 -0.64284922188E+02  0.40660641864E+03  0.52416735704E+02  0.42263729037E+03  0.80083919317E+02 0.  0.
        254    2    1    2    0    0  0.64284922188E+02 -0.40660641864E+03 -0.52630125699E+03  0.11207327270E+04  0.89977080488E+03 0.  0.
         23    2    4    4    0    0  0.56423788314E+01 -0.31899773300E+03 -0.77124320647E+03  0.83932394896E+03  0.88640948125E+02 0.  0.
         23    2    4    4    0    0  0.58642543357E+02 -0.87608685639E+02  0.24494194947E+03  0.28140877802E+03  0.89889443439E+02 0.  0.
          3    1    3    3  502    0 -0.28008035798E+02  0.13630417920E+03 -0.19695476818E+02  0.14053893106E+03  0.00000000000E+00 0. -1.
         -4    1    3    3    0  502 -0.36276886390E+02  0.27030223944E+03  0.72112212523E+02  0.28209835932E+03  0.00000000000E+00 0.  1.
         13    1    5    5    0    0  0.26586576070E+02 -0.26042510593E+03 -0.68222813501E+03  0.73072793160E+03  0.00000000000E+00 0. -1.
        -13    1    5    5    0    0 -0.20944197238E+02 -0.58572627076E+02 -0.89015071456E+02  0.10859601736E+03  0.00000000000E+00 0.  1.
          3    1    6    6  503    0  0.65076940787E+02 -0.10293551096E+03  0.21122663610E+03  0.24381841489E+03  0.00000000000E+00 0. -1.
         -3    1    6    6    0  503 -0.64343974306E+01  0.15326825317E+02  0.33715313368E+02  0.37590363128E+02  0.00000000000E+00 0.  1.
<mgrwt>
<rscale>  0 0.14688174E+04</rscale>
<asrwt>0</asrwt>
<pdfrwt beam="1">  1        1 0.15517342E+00 0.14688174E+04</pdfrwt>
<pdfrwt beam="2">  1       -2 0.82268116E-01 0.14688174E+04</pdfrwt>
<totfact> 0.16437955E+01</totfact>
</mgrwt>
</event>
<event>
12    5  0.5029243E-008  0.1609681E+04  0.7818608E-02  0.8814623E-01
          1   -1    0    0  501    0  0.00000000000E+00  0.00000000000E+00  0.70872417496E+03  0.70872417496E+03  0.00000000000E+00 0. -1.
         -2   -1    0    0    0  501 -0.00000000000E+00 -0.00000000000E+00 -0.91399209077E+03  0.91399209077E+03  0.00000000000E+00 0.  1.
        -24    2    1    2    0    0 -0.14302019849E+03 -0.47523527013E+03  0.15823864062E+03  0.52857832940E+03  0.89734295461E+02 0.  0.
        254    2    1    2    0    0  0.14302019849E+03  0.47523527013E+03 -0.36350655643E+03  0.10941379363E+04  0.90481902499E+03 0.  0.
         23    2    4    4    0    0  0.34066549398E+02 -0.16473998661E+03  0.16358924774E+03  0.25274595836E+03  0.93911045740E+02 0.  0.
         23    2    4    4    0    0  0.10895364909E+03  0.63997525674E+03 -0.52709580417E+03  0.84139197797E+03  0.93119530291E+02 0.  0.
          3    1    3    3  502    0 -0.76893369145E+02 -0.37390411840E+03  0.10183505622E+03  0.39507880056E+03  0.00000000000E+00 0. -1.
         -4    1    3    3    0  502 -0.66126829342E+02 -0.10133115173E+03  0.56403584394E+02  0.13349952885E+03  0.00000000000E+00 0.  1.
         13    1    5    5    0    0 -0.13915817598E+02  0.59134924486E+01  0.94246104494E+01  0.17816920455E+02  0.00000000000E+00 0. -1.
        -13    1    5    5    0    0  0.47982366996E+02 -0.17065347906E+03  0.15416463729E+03  0.23492903790E+03  0.00000000000E+00 0.  1.
          2    1    6    6  503    0  0.10004659015E+02  0.19149271073E+02 -0.42355264221E+02  0.47547409938E+02  0.00000000000E+00 0. -1.
         -2    1    6    6    0  503  0.98948990074E+02  0.62082598567E+03 -0.48474053995E+03  0.79384456803E+03  0.00000000000E+00 0.  1.
<mgrwt>
<rscale>  0 0.16096811E+04</rscale>
<asrwt>0</asrwt>
<pdfrwt beam="1">  1        1 0.10903449E+00 0.16096811E+04</pdfrwt>
<pdfrwt beam="2">  1       -2 0.14061417E+00 0.16096811E+04</pdfrwt>
<totfact> 0.79661434E+00</totfact>
</mgrwt>
</event>
<event>
12    5  0.5029243E-008  0.1606618E+04  0.7818608E-02  0.8816493E-01
         -4   -1    0    0    0  501 -0.00000000000E+00  0.00000000000E+00  0.20180609237E+03  0.20180609237E+03  0.00000000000E+00 0.  1.
          3   -1    0    0  501    0  0.00000000000E+00 -0.00000000000E+00 -0.31976501638E+04  0.31976501638E+04  0.00000000000E+00 0. -1.
        -24    2    1    2    0    0 -0.34174580868E+03  0.38796144178E+03 -0.14063325068E+04  0.15005592446E+04  0.81256683225E+02 0.  0.
        254    2    1    2    0    0  0.34174580868E+03 -0.38796144178E+03 -0.15895115646E+04  0.18988970116E+04  0.90108743677E+03 0.  0.
         23    2    4    4    0    0  0.19993881681E+02 -0.47894539999E+03 -0.32110831965E+03  0.58412588626E+03  0.91126541571E+02 0.  0.
         23    2    4    4    0    0  0.32175192700E+03  0.90983958209E+02 -0.12684032449E+04  0.13147711254E+04  0.89296904253E+02 0.  0.
          3    1    3    3  502    0 -0.53832107819E+02  0.64072801286E+02 -0.15254754086E+03  0.17399417209E+03  0.00000000000E+00 0. -1.
         -4    1    3    3    0  502 -0.28791370087E+03  0.32388864050E+03 -0.12537849660E+04  0.13265650725E+04  0.00000000000E+00 0.  1.
         13    1    5    5    0    0  0.53602195474E+02 -0.36597576692E+03 -0.25067480906E+03  0.44682134823E+03  0.00000000000E+00 0. -1.
        -13    1    5    5    0    0 -0.33608313793E+02 -0.11296963307E+03 -0.70433510583E+02  0.13730453804E+03  0.00000000000E+00 0.  1.
          1    1    6    6  503    0  0.23787466430E+02 -0.89258072029E+01 -0.18404318210E+03  0.18578860694E+03  0.00000000000E+00 0. -1.
         -1    1    6    6    0  503  0.29796446057E+03  0.99909765412E+02 -0.10843600628E+04  0.11289825184E+04  0.00000000000E+00 0.  1.
<mgrwt>
<rscale>  0 0.16066179E+04</rscale>
<asrwt>0</asrwt>
<pdfrwt beam="1">  1        3 0.49194614E+00 0.16066179E+04</pdfrwt>
<pdfrwt beam="2">  1       -4 0.31047094E-01 0.16066179E+04</pdfrwt>
<totfact> 0.84049185E-02</totfact>
</mgrwt>
</event>
<event>
12    5  0.5029243E-008  0.2723986E+04  0.7818608E-02  0.8327264E-01
         -2   -1    0    0    0  501 -0.00000000000E+00  0.00000000000E+00  0.21158321492E+04  0.21158321492E+04  0.00000000000E+00 0.  1.
          1   -1    0    0  501    0  0.00000000000E+00 -0.00000000000E+00 -0.87673552019E+03  0.87673552019E+03  0.00000000000E+00 0. -1.
        -24    2    1    2    0    0  0.11982138373E+04 -0.50994453779E+02  0.33684011701E+03  0.12482296987E+04  0.79368016357E+02 0.  0.
        254    2    1    2    0    0 -0.11982138373E+04  0.50994453779E+02  0.90225651198E+03  0.17443379707E+04  0.88900579768E+03 0.  0.
         23    2    4    4    0    0 -0.39091199710E+03 -0.15291239548E+02 -0.13833602938E+03  0.42270834103E+03  0.80619309511E+02 0.  0.
         23    2    4    4    0    0 -0.80730184020E+03  0.66285693327E+02  0.10405925414E+04  0.13216296296E+04  0.87988558787E+02 0.  0.
          1    1    3    3  502    0  0.41753779315E+02 -0.10047570466E+02  0.25290877106E+02  0.49839344139E+02  0.00000000000E+00 0. -1.
         -2    1    3    3    0  502  0.11564600580E+04 -0.40946883313E+02  0.31154923990E+03  0.11983903545E+04  0.00000000000E+00 0.  1.
         13    1    5    5    0    0 -0.12424638179E+03  0.53930620934E+01 -0.83172028045E+02  0.14961228144E+03  0.00000000000E+00 0.  1.
        -13    1    5    5    0    0 -0.26666561531E+03 -0.20684301641E+02 -0.55164001339E+02  0.27309605959E+03  0.00000000000E+00 0. -1.
          4    1    6    6  503    0 -0.13359453530E+03  0.30432435838E+02  0.22159455301E+03  0.26053364261E+03  0.00000000000E+00 0. -1.
         -4    1    6    6    0  503 -0.67370730491E+03  0.35853257489E+02  0.81899798836E+03  0.10610959870E+04  0.00000000000E+00 0.  1.
<mgrwt>
<rscale>  0 0.27239862E+04</rscale>
<asrwt>0</asrwt>
<pdfrwt beam="1">  1        1 0.13488239E+00 0.27239862E+04</pdfrwt>
<pdfrwt beam="2">  1       -2 0.32551264E+00 0.27239862E+04</pdfrwt>
<totfact> 0.32178213E-01</totfact>
</mgrwt>
</event>
<event>
12    5  0.5029243E-008  0.1478599E+04  0.7818608E-02  0.8898810E-01
         -4   -1    0    0    0  501 -0.00000000000E+00  0.00000000000E+00  0.16487242507E+04  0.16487242507E+04  0.00000000000E+00 0.  1.
          3   -1    0    0  501    0  0.00000000000E+00 -0.00000000000E+00 -0.33150703993E+03  0.33150703993E+03  0.00000000000E+00 0. -1.
        -24    2    1    2    0    0 -0.15587638752E+03  0.43311578311E+03  0.33478001091E+03  0.57466988602E+03  0.79253343297E+02 0.  0.
        254    2    1    2    0    0  0.15587638752E+03 -0.43311578311E+03  0.98243719985E+03  0.14055614046E+04  0.89360689383E+03 0.  0.
         23    2    4    4    0    0  0.53725550164E+02 -0.21010192356E+03 -0.12548280376E+03  0.26698218411E+03  0.92218759312E+02 0.  0.
         23    2    4    4    0    0  0.10215083735E+03 -0.22301385955E+03  0.11079200036E+04  0.11385792205E+04  0.93305583075E+02 0.  0.
          3    1    3    3  502    0 -0.92068256792E+02  0.21336269373E+03  0.21407668011E+03  0.31595731982E+03  0.00000000000E+00 0. -1.
         -4    1    3    3    0  502 -0.63808130725E+02  0.21975308938E+03  0.12070333080E+03  0.25871256620E+03  0.00000000000E+00 0.  1.
         13    1    5    5    0    0  0.12818701540E+02 -0.36359470945E+02 -0.70258856957E+02  0.80141357722E+02  0.00000000000E+00 0. -1.
        -13    1    5    5    0    0  0.40906848624E+02 -0.17374245262E+03 -0.55223946800E+02  0.18684082639E+03  0.00000000000E+00 0.  1.
          2    1    6    6  503    0 -0.10206093263E+02 -0.70306447094E+02  0.24590299897E+03  0.25595985182E+03  0.00000000000E+00 0. -1.
         -2    1    6    6    0  503  0.11235693062E+03 -0.15270741246E+03  0.86201700464E+03  0.88261936867E+03  0.00000000000E+00 0.  1.
<mgrwt>
<rscale>  0 0.14785989E+04</rscale>
<asrwt>0</asrwt>
<pdfrwt beam="1">  1        3 0.51001084E-01 0.14785989E+04</pdfrwt>
<pdfrwt beam="2">  1       -4 0.25364988E+00 0.14785989E+04</pdfrwt>
<totfact> 0.50656128E-01</totfact>
</mgrwt>
</event>
<event>
12    5  0.5029243E-008  0.2119590E+04  0.7818608E-02  0.8552662E-01
         -2   -1    0    0    0  501 -0.00000000000E+00  0.00000000000E+00  0.78810278431E+03  0.78810278431E+03  0.00000000000E+00 0.  1.
          1   -1    0    0  501    0  0.00000000000E+00 -0.00000000000E+00 -0.14251515808E+04  0.14251515808E+04  0.00000000000E+00 0. -1.
        -24    2    1    2    0    0 -0.70476157754E+03 -0.29428614355E+03  0.16536073327E+03  0.78541265450E+03  0.78966133772E+02 0.  0.
        254    2    1    2    0    0  0.70476157754E+03  0.29428614355E+03 -0.80240952972E+03  0.14278417106E+04  0.90087606340E+03 0.  0.
         23    2    4    4    0    0  0.22968344764E+03  0.49547718607E+03 -0.70422777472E+03  0.89591519685E+03  0.92060595346E+02 0.  0.
         23    2    4    4    0    0  0.47507812989E+03 -0.20119104252E+03 -0.98181754996E+02  0.53192651372E+03  0.84433961744E+02 0.  0.
          1    1    3    3  502    0 -0.18464982468E+03 -0.40314962091E+02  0.40113455507E+02  0.19320958371E+03  0.00000000000E+00 0. -1.
         -2    1    3    3    0  502 -0.52011175285E+03 -0.25397118146E+03  0.12524727776E+03  0.59220307079E+03  0.00000000000E+00 0.  1.
         13    1    5    5    0    0  0.27720471223E+01  0.73319519351E+02 -0.74703560958E+02  0.10470939873E+03  0.00000000000E+00 0. -1.
        -13    1    5    5    0    0  0.22691140052E+03  0.42215766672E+03 -0.62952421376E+03  0.79120579811E+03  0.00000000000E+00 0.  1.
          4    1    6    6  503    0  0.35524882602E+03 -0.11764469167E+03 -0.93722132528E+02  0.38577952251E+03  0.00000000000E+00 0.  1.
         -4    1    6    6    0  503  0.11982930388E+03 -0.83546350849E+02 -0.44596224680E+01  0.14614699121E+03  0.00000000000E+00 0. -1.
<mgrwt>
<rscale>  0 0.21195905E+04</rscale>
<asrwt>0</asrwt>
<pdfrwt beam="1">  1        1 0.21925408E+00 0.21195905E+04</pdfrwt>
<pdfrwt beam="2">  1       -2 0.12124658E+00 0.21195905E+04</pdfrwt>
<totfact> 0.30764127E+00</totfact>
</mgrwt>
</event>
<event>
12    5  0.5029243E-008  0.2565789E+04  0.7818608E-02  0.8379915E-01
         -2   -1    0    0    0  501 -0.00000000000E+00  0.00000000000E+00  0.58774918486E+03  0.58774918486E+03  0.00000000000E+00 0.  1.
          1   -1    0    0  501    0  0.00000000000E+00 -0.00000000000E+00 -0.28002061530E+04  0.28002061530E+04  0.00000000000E+00 0. -1.
        -24    2    1    2    0    0  0.34477442597E+03 -0.10648767006E+04 -0.91746205463E+03  0.14496230960E+04  0.82696472798E+02 0.  0.
        254    2    1    2    0    0 -0.34477442597E+03  0.10648767006E+04 -0.12949949135E+04  0.19383322418E+04  0.90955388048E+03 0.  0.
         23    2    4    4    0    0  0.64542926531E+01 -0.93603441017E+02 -0.42565735450E+03  0.44521560355E+03  0.90716526291E+02 0.  0.
         23    2    4    4    0    0 -0.35122871863E+03  0.11584801416E+04 -0.86933755896E+03  0.14931166382E+04  0.90618170184E+02 0.  0.
          1    1    3    3  502    0  0.31567211477E+03 -0.10137117488E+04 -0.84974898983E+03  0.13599021065E+04  0.00000000000E+00 0. -1.
         -2    1    3    3    0  502  0.29102311203E+02 -0.51164951794E+02 -0.67713064798E+02  0.89720989483E+02  0.00000000000E+00 0.  1.
         13    1    5    5    0    0  0.27206457839E+02  0.55331427993E+01 -0.66832793710E+02  0.72370085895E+02  0.00000000000E+00 0. -1.
        -13    1    5    5    0    0 -0.20752165186E+02 -0.99136583816E+02 -0.35882456079E+03  0.37284551766E+03  0.00000000000E+00 0.  1.
          3    1    6    6  503    0 -0.10209511254E+03  0.28871504106E+03 -0.17553918242E+03  0.35297845756E+03  0.00000000000E+00 0. -1.
         -3    1    6    6    0  503 -0.24913360609E+03  0.86976510052E+03 -0.69379837654E+03  0.11401381807E+04  0.00000000000E+00 0.  1.
<mgrwt>
<rscale>  0 0.25657895E+04</rscale>
<asrwt>0</asrwt>
<pdfrwt beam="1">  1        1 0.43080095E+00 0.25657895E+04</pdfrwt>
<pdfrwt beam="2">  1       -2 0.90422951E-01 0.25657895E+04</pdfrwt>
<totfact> 0.67637572E-01</totfact>
</mgrwt>
</event>
<event>
12    5  0.5029243E-008  0.1590199E+04  0.7818608E-02  0.8826592E-01
         -2   -1    0    0    0  501 -0.00000000000E+00  0.00000000000E+00  0.18860993758E+03  0.18860993758E+03  0.00000000000E+00 0.  1.
          1   -1    0    0  501    0  0.00000000000E+00 -0.00000000000E+00 -0.33518021161E+04  0.33518021161E+04  0.00000000000E+00 0. -1.
        -24    2    1    2    0    0 -0.34162067933E+03 -0.38741047285E+03 -0.74478232518E+03  0.90983656906E+03  0.79437443852E+02 0.  0.
        254    2    1    2    0    0  0.34162067933E+03  0.38741047285E+03 -0.24184098533E+04  0.26305754846E+04  0.89689999361E+03 0.  0.
         23    2    4    4    0    0  0.17317968147E+03  0.60893023200E+03 -0.21115764616E+04  0.22064748244E+04  0.94809114363E+02 0.  0.
         23    2    4    4    0    0  0.16844099786E+03 -0.22151975915E+03 -0.30683339174E+03  0.42410066018E+03  0.90946502012E+02 0.  0.
          3    1    3    3  502    0 -0.10882068281E+02 -0.12213065182E+02 -0.57789257460E+02  0.60059775633E+02  0.00000000000E+00 0. -1.
         -4    1    3    3    0  502 -0.33073861105E+03 -0.37519740767E+03 -0.68699306772E+03  0.84977679343E+03  0.00000000000E+00 0.  1.
         13    1    5    5    0    0  0.14523976279E+03  0.35957831136E+03 -0.13528601843E+04  0.14073456679E+04  0.00000000000E+00 0.  1.
        -13    1    5    5    0    0  0.27939918681E+02  0.24935192064E+03 -0.75871627726E+03  0.79912915649E+03  0.00000000000E+00 0. -1.
          4    1    6    6  503    0  0.99993486623E+02 -0.16236737522E+03 -0.14828352750E+03  0.24155717011E+03  0.00000000000E+00 0.  1.
         -4    1    6    6    0  503  0.68447511239E+02 -0.59152383935E+02 -0.15854986424E+03  0.18254349008E+03  0.00000000000E+00 0. -1.
<mgrwt>
<rscale>  0 0.15901990E+04</rscale>
<asrwt>0</asrwt>
<pdfrwt beam="1">  1        1 0.51566189E+00 0.15901990E+04</pdfrwt>
<pdfrwt beam="2">  1       -2 0.29016912E-01 0.15901990E+04</pdfrwt>
<totfact> 0.30243762E+00</totfact>
</mgrwt>
</event>
<event>
12    5  0.5029243E-008  0.2362603E+04  0.7818608E-02  0.8453639E-01
         -2   -1    0    0    0  501 -0.00000000000E+00  0.00000000000E+00  0.10866568920E+04  0.10866568920E+04  0.00000000000E+00 0.  1.
          1   -1    0    0  501    0  0.00000000000E+00 -0.00000000000E+00 -0.12841895131E+04  0.12841895131E+04  0.00000000000E+00 0. -1.
        -24    2    1    2    0    0  0.90052542576E+03  0.15666549578E+03 -0.51394193618E+03  0.10516894020E+04  0.80150886064E+02 0.  0.
        254    2    1    2    0    0 -0.90052542576E+03 -0.15666549578E+03  0.31640931510E+03  0.13191570031E+04  0.89697838560E+03 0.  0.
         23    2    4    4    0    0  0.10288606573E+03 -0.21574758670E+03 -0.15726308542E+02  0.25666428086E+03  0.92177397457E+02 0.  0.
         23    2    4    4    0    0 -0.10034114915E+04  0.59082090923E+02  0.33213562364E+03  0.10624927223E+04  0.90837204253E+02 0.  0.
          1    1    3    3  502    0  0.88781727864E+03  0.14711770170E+03 -0.51275170103E+03  0.10357497021E+04  0.00000000000E+00 0. -1.
         -2    1    3    3    0  502  0.12708147121E+02  0.95477940776E+01 -0.11902351507E+01  0.15939699957E+02  0.00000000000E+00 0.  1.
         13    1    5    5    0    0  0.10694950684E+03 -0.18956350743E+03  0.12421679305E+02  0.21800646431E+03  0.00000000000E+00 0.  1.
        -13    1    5    5    0    0 -0.40634411144E+01 -0.26184079271E+02 -0.28147987847E+02  0.38657816555E+02  0.00000000000E+00 0. -1.
          4    1    6    6  503    0 -0.11083353006E+03  0.33207801139E+02  0.26650995686E+02  0.11873123015E+03  0.00000000000E+00 0. -1.
         -4    1    6    6    0  503 -0.89257796142E+03  0.25874289784E+02  0.30548462795E+03  0.94376149212E+03  0.00000000000E+00 0.  1.
<mgrwt>
<rscale>  0 0.23626031E+04</rscale>
<asrwt>0</asrwt>
<pdfrwt beam="1">  1        1 0.19756762E+00 0.23626031E+04</pdfrwt>
<pdfrwt beam="2">  1       -2 0.16717798E+00 0.23626031E+04</pdfrwt>
<totfact> 0.16355888E+00</totfact>
</mgrwt>
</event>
<event>
12    5  0.5029243E-008  0.2460837E+04  0.7818608E-02  0.8417072E-01
          1   -1    0    0  501    0  0.00000000000E+00  0.00000000000E+00  0.18740950330E+04  0.18740950330E+04  0.00000000000E+00 0. -1.
         -2   -1    0    0    0  501 -0.00000000000E+00 -0.00000000000E+00 -0.80781899806E+03  0.80781899806E+03  0.00000000000E+00 0.  1.
        -24    2    1    2    0    0 -0.56434513261E+03  0.89758588834E+03  0.42846311094E+03  0.11465467057E+04  0.82721552829E+02 0.  0.
        254    2    1    2    0    0  0.56434513261E+03 -0.89758588834E+03  0.63781292400E+03  0.15353673253E+04  0.90906635734E+03 0.  0.
         23    2    4    4    0    0  0.46284365788E+02 -0.70489742733E+03  0.66728331611E+03  0.97603414524E+03  0.91394765382E+02 0.  0.
         23    2    4    4    0    0  0.51806076682E+03 -0.19268846101E+03 -0.29470392108E+02  0.55933318010E+03  0.80431966439E+02 0.  0.
          1    1    3    3  502    0 -0.54175895891E+03  0.86509133060E+03  0.39420296018E+03  0.10942037076E+04  0.00000000000E+00 0. -1.
         -2    1    3    3    0  502 -0.22586173699E+02  0.32494557737E+02  0.34260150756E+02  0.52342998144E+02  0.00000000000E+00 0.  1.
         13    1    5    5    0    0  0.43521457647E+01 -0.35838535323E+03  0.39485619542E+03  0.53326392869E+03  0.00000000000E+00 0.  1.
        -13    1    5    5    0    0  0.41932220024E+02 -0.34651207410E+03  0.27242712069E+03  0.44277021655E+03  0.00000000000E+00 0. -1.
          2    1    6    6  503    0  0.40858864445E+01 -0.13506116756E+02  0.11667848947E+01  0.14158779780E+02  0.00000000000E+00 0. -1.
         -2    1    6    6    0  503  0.51397488038E+03 -0.17918234425E+03 -0.30637177003E+02  0.54517440032E+03  0.00000000000E+00 0.  1.
<mgrwt>
<rscale>  0 0.24608369E+04</rscale>
<asrwt>0</asrwt>
<pdfrwt beam="1">  1        1 0.28832231E+00 0.24608369E+04</pdfrwt>
<pdfrwt beam="2">  1       -2 0.12427985E+00 0.24608369E+04</pdfrwt>
<totfact> 0.13823359E+00</totfact>
</mgrwt>
</event>
<event>
12    5  0.5029243E-008  0.1934412E+04  0.7818608E-02  0.8637914E-01
          1   -1    0    0  501    0  0.00000000000E+00  0.00000000000E+00  0.35411188853E+04  0.35411188853E+04  0.00000000000E+00 0. -1.
         -2   -1    0    0    0  501 -0.00000000000E+00 -0.00000000000E+00 -0.26417861608E+03  0.26417861608E+03  0.00000000000E+00 0.  1.
        -24    2    1    2    0    0 -0.42483539366E+03 -0.78620916883E+02  0.25618972811E+04  0.25993459818E+04  0.81335689333E+02 0.  0.
        254    2    1    2    0    0  0.42483539366E+03  0.78620916883E+02  0.71504298811E+03  0.12059515195E+04  0.86969318282E+03 0.  0.
         23    2    4    4    0    0  0.49400883260E+02 -0.36186411128E+03  0.20079137660E+03  0.42643411571E+03  0.90237441383E+02 0.  0.
         23    2    4    4    0    0  0.37543451040E+03  0.44048502816E+03  0.51425161151E+03  0.77951740378E+03  0.90634051076E+02 0.  0.
          1    1    3    3  502    0 -0.14266323273E+03 -0.60611901269E+02  0.10254488549E+04  0.10370978520E+04  0.00000000000E+00 0. -1.
         -2    1    3    3    0  502 -0.28217216093E+03 -0.18009015614E+02  0.15364484262E+04  0.15622481299E+04  0.00000000000E+00 0.  1.
         13    1    5    5    0    0 -0.20689974256E+02 -0.17060922775E+03  0.79428918948E+02  0.18932653484E+03  0.00000000000E+00 0. -1.
        -13    1    5    5    0    0  0.70090857516E+02 -0.19125488353E+03  0.12136245765E+03  0.23710758088E+03  0.00000000000E+00 0.  1.
          1    1    6    6  503    0  0.29544541938E+03  0.28272796736E+03  0.36193450179E+03  0.54609493950E+03  0.00000000000E+00 0. -1.
         -1    1    6    6    0  503  0.79989091018E+02  0.15775706081E+03  0.15231710972E+03  0.23342246428E+03  0.00000000000E+00 0.  1.
<mgrwt>
<rscale>  0 0.19344125E+04</rscale>
<asrwt>0</asrwt>
<pdfrwt beam="1">  1        1 0.54478749E+00 0.19344125E+04</pdfrwt>
<pdfrwt beam="2">  1       -2 0.40642866E-01 0.19344125E+04</pdfrwt>
<totfact> 0.10949491E+00</totfact>
</mgrwt>
</event>
<event>
12    5  0.5029243E-008  0.2532308E+04  0.7818608E-02  0.8391565E-01
          1   -1    0    0  501    0  0.00000000000E+00  0.00000000000E+00  0.78826696630E+03  0.78826696630E+03  0.00000000000E+00 0. -1.
         -2   -1    0    0    0  501 -0.00000000000E+00 -0.00000000000E+00 -0.20337604120E+04  0.20337604120E+04  0.00000000000E+00 0.  1.
        -24    2    1    2    0    0 -0.62060125943E+03  0.67454767391E+03  0.14413644320E+03  0.93105974000E+03  0.77048280939E+02 0.  0.
        254    2    1    2    0    0  0.62060125943E+03 -0.67454767391E+03 -0.13896298889E+04  0.18909676383E+04  0.89695423151E+03 0.  0.
         23    2    4    4    0    0  0.79951552286E+03 -0.62660053259E+03 -0.13253436937E+04  0.16722984725E+04  0.90515059663E+02 0.  0.
         23    2    4    4    0    0 -0.17891426342E+03 -0.47947141315E+02 -0.64286195233E+02  0.21866916581E+03  0.96820695945E+02 0.  0.
          3    1    3    3  502    0 -0.40954017063E+03  0.44279935187E+03  0.13166122157E+03  0.61735653770E+03  0.00000000000E+00 0. -1.
         -4    1    3    3    0  502 -0.21106108881E+03  0.23174832203E+03  0.12475221623E+02  0.31370320229E+03  0.00000000000E+00 0.  1.
         13    1    5    5    0    0  0.28672922594E+03 -0.23308397521E+03 -0.55406722992E+03  0.66598219479E+03  0.00000000000E+00 0. -1.
        -13    1    5    5    0    0  0.51278629692E+03 -0.39351655738E+03 -0.77127646378E+03  0.10063162777E+04  0.00000000000E+00 0.  1.
          3    1    6    6  503    0 -0.10120714476E+01  0.18292190461E+02 -0.23725482152E+00  0.18321703259E+02  0.00000000000E+00 0. -1.
         -3    1    6    6    0  503 -0.17790219198E+03 -0.66239331776E+02 -0.64048940412E+02  0.20034746255E+03  0.00000000000E+00 0.  1.
<mgrwt>
<rscale>  0 0.25323082E+04</rscale>
<asrwt>0</asrwt>
<pdfrwt beam="1">  1        1 0.12127184E+00 0.25323082E+04</pdfrwt>
<pdfrwt beam="2">  1       -2 0.31288622E+00 0.25323082E+04</pdfrwt>
<totfact> 0.46594092E-01</totfact>
</mgrwt>
</event>
<event>
12    5  0.5029243E-008  0.1537670E+04  0.7818608E-02  0.8859782E-01
          3   -1    0    0  501    0  0.00000000000E+00  0.00000000000E+00  0.49566621003E+03  0.49566621003E+03  0.00000000000E+00 0. -1.
         -4   -1    0    0    0  501 -0.00000000000E+00 -0.00000000000E+00 -0.11925511724E+04  0.11925511724E+04  0.00000000000E+00 0.  1.
        -24    2    1    2    0    0  0.39631021020E+03  0.14315020821E+03  0.69885187546E+02  0.43454682635E+03  0.79957739072E+02 0.  0.
        254    2    1    2    0    0 -0.39631021020E+03 -0.14315020821E+03 -0.76677014994E+03  0.12536705561E+04  0.89788620412E+03 0.  0.
         23    2    4    4    0    0 -0.77643057460E+02 -0.22258404957E+03 -0.86311058500E+03  0.89938911704E+03  0.91481136989E+02 0.  0.
         23    2    4    4    0    0 -0.31866715274E+03  0.79433841352E+02  0.96340435062E+02  0.35428143905E+03  0.91517043447E+02 0.  0.
          1    1    3    3  502    0  0.68614600458E+01  0.13256991769E+01  0.14885857005E+02  0.16444629854E+02  0.00000000000E+00 0. -1.
         -2    1    3    3    0  502  0.38944875015E+03  0.14182450904E+03  0.54999330541E+02  0.41810219650E+03  0.00000000000E+00 0.  1.
         13    1    5    5    0    0 -0.20964610216E+02  0.21601265253E+01 -0.74047766430E+02  0.76988653329E+02  0.00000000000E+00 0. -1.
        -13    1    5    5    0    0 -0.56678447245E+02 -0.22474417609E+03 -0.78906281857E+03  0.82240046371E+03  0.00000000000E+00 0.  1.
          2    1    6    6  503    0 -0.43804654473E+02  0.26014430180E+02  0.48264508250E+02  0.70178779469E+02  0.00000000000E+00 0. -1.
         -2    1    6    6    0  503 -0.27486249826E+03  0.53419411171E+02  0.48075926812E+02  0.28410265958E+03  0.00000000000E+00 0.  1.
<mgrwt>
<rscale>  0 0.15376701E+04</rscale>
<asrwt>0</asrwt>
<pdfrwt beam="1">  1        3 0.76256342E-01 0.15376701E+04</pdfrwt>
<pdfrwt beam="2">  1       -4 0.18346941E+00 0.15376701E+04</pdfrwt>
<totfact> 0.60660182E-01</totfact>
</mgrwt>
</event>
<event>
12    5  0.5029243E-008  0.1722172E+04  0.7818608E-02  0.8748819E-01
         -2   -1    0    0    0  501 -0.00000000000E+00  0.00000000000E+00  0.37052200621E+03  0.37052200621E+03  0.00000000000E+00 0.  1.
          1   -1    0    0  501    0  0.00000000000E+00 -0.00000000000E+00 -0.20011470083E+04  0.20011470083E+04  0.00000000000E+00 0. -1.
        -24    2    1    2    0    0  0.48553268080E+03  0.11590950122E+02 -0.11450640689E+04  0.12461477526E+04  0.76394798245E+02 0.  0.
        254    2    1    2    0    0 -0.48553268080E+03 -0.11590950122E+02 -0.48556093317E+03  0.11255212619E+04  0.89171315841E+03 0.  0.
         23    2    4    4    0    0  0.15590508912E+03 -0.59443182678E+02 -0.43151619536E+03  0.47347690362E+03  0.10066907484E+03 0.  0.
         23    2    4    4    0    0 -0.64143776992E+03  0.47852232555E+02 -0.54044737815E+02  0.65204435826E+03  0.92242954284E+02 0.  0.
          3    1    3    3  502    0  0.38239722304E+03 -0.16567220010E+02 -0.84627061610E+03  0.92880356623E+03  0.00000000000E+00 0. -1.
         -2    1    3    3    0  502  0.10313545777E+03  0.28158170133E+02 -0.29879345283E+03  0.31734418641E+03  0.00000000000E+00 0.  1.
         13    1    5    5    0    0  0.61072994989E+02 -0.76703064526E+02 -0.20182929422E+03  0.22438434622E+03  0.00000000000E+00 0.  1.
        -13    1    5    5    0    0  0.94832094128E+02  0.17259881848E+02 -0.22968690114E+03  0.24909255741E+03  0.00000000000E+00 0. -1.
          2    1    6    6  503    0 -0.37951258594E+03 -0.16869620560E+02 -0.37519434702E+02  0.38173563492E+03  0.00000000000E+00 0. -1.
         -2    1    6    6    0  503 -0.26192518398E+03  0.64721853115E+02 -0.16525303113E+02  0.27030872334E+03  0.00000000000E+00 0.  1.
<mgrwt>
<rscale>  0 0.17221719E+04</rscale>
<asrwt>0</asrwt>
<pdfrwt beam="1">  1        1 0.30786878E+00 0.17221719E+04</pdfrwt>
<pdfrwt beam="2">  1       -2 0.57003385E-01 0.17221719E+04</pdfrwt>
<totfact> 0.71589193E+00</totfact>
</mgrwt>
</event>
<event>
12    5  0.5029243E-008  0.1292243E+04  0.7818608E-02  0.9035739E-01
          1   -1    0    0  501    0  0.00000000000E+00  0.00000000000E+00  0.17771396821E+04  0.17771396821E+04  0.00000000000E+00 0. -1.
         -2   -1    0    0    0  501 -0.00000000000E+00 -0.00000000000E+00 -0.23491293931E+03  0.23491293931E+03  0.00000000000E+00 0.  1.
        -24    2    1    2    0    0 -0.13303468959E+02 -0.22032571372E+03  0.21134496751E+02  0.23490788591E+03  0.77554145581E+02 0.  0.
        254    2    1    2    0    0  0.13303468959E+02  0.22032571372E+03  0.15210922460E+04  0.17771447355E+04  0.89207700762E+03 0.  0.
         23    2    4    4    0    0  0.30979083172E+03  0.33587794799E+03  0.41986281939E+03  0.62708642840E+03  0.90378350396E+02 0.  0.
         23    2    4    4    0    0 -0.29648736276E+03 -0.11555223427E+03  0.11012294266E+04  0.11500583071E+04  0.93117047212E+02 0.  0.
          3    1    3    3  502    0 -0.81109356792E+01 -0.23822012637E+02  0.28725095887E+02  0.38189091340E+02  0.00000000000E+00 0. -1.
         -4    1    3    3    0  502 -0.51925332800E+01 -0.19650370109E+03 -0.75905991364E+01  0.19671879457E+03  0.00000000000E+00 0.  1.
         13    1    5    5    0    0  0.17902169566E+02  0.57606049372E+02  0.76578001663E+02  0.97484024015E+02  0.00000000000E+00 0.  1.
        -13    1    5    5    0    0  0.29188866215E+03  0.27827189862E+03  0.34328481772E+03  0.52960240439E+03  0.00000000000E+00 0. -1.
          2    1    6    6  503    0 -0.24095735964E+03 -0.12947110433E+03  0.93861673628E+03  0.97766282206E+03  0.00000000000E+00 0. -1.
         -2    1    6    6    0  503 -0.55530003119E+02  0.13918870062E+02  0.16261269036E+03  0.17239548502E+03  0.00000000000E+00 0.  1.
<mgrwt>
<rscale>  0 0.12922432E+04</rscale>
<asrwt>0</asrwt>
<pdfrwt beam="1">  1        1 0.27340610E+00 0.12922432E+04</pdfrwt>
<pdfrwt beam="2">  1       -2 0.36140453E-01 0.12922432E+04</pdfrwt>
<totfact> 0.26257295E+01</totfact>
</mgrwt>
</event>
<event>
12    5  0.5029243E-008  0.2823674E+04  0.7818608E-02  0.8295956E-01
          1   -1    0    0  501    0  0.00000000000E+00  0.00000000000E+00  0.26011157634E+04  0.26011157634E+04  0.00000000000E+00 0. -1.
         -2   -1    0    0    0  501 -0.00000000000E+00 -0.00000000000E+00 -0.76631893062E+03  0.76631893062E+03  0.00000000000E+00 0.  1.
        -24    2    1    2    0    0  0.42787746017E+03 -0.90288890830E+03  0.17573539382E+04  0.20232434581E+04  0.83268992416E+02 0.  0.
        254    2    1    2    0    0 -0.42787746017E+03  0.90288890830E+03  0.77442894578E+02  0.13441912359E+04  0.89586001979E+03 0.  0.
         23    2    4    4    0    0 -0.24074609597E+03  0.46265904860E+03 -0.39894655450E+03  0.66294229934E+03  0.91225330545E+02 0.  0.
         23    2    4    4    0    0 -0.18713136420E+03  0.44022985970E+03  0.47638944908E+03  0.68124893655E+03  0.91283785585E+02 0.  0.
          1    1    3    3  502    0  0.20693722637E+03 -0.39178948029E+03  0.70536020134E+03  0.83297960728E+03  0.00000000000E+00 0. -1.
         -2    1    3    3    0  502  0.22094023380E+03 -0.51109942801E+03  0.10519937368E+04  0.11902638508E+04  0.00000000000E+00 0.  1.
         13    1    5    5    0    0 -0.15354959255E+03  0.25821177857E+03 -0.17623170792E+03  0.34829357565E+03  0.00000000000E+00 0.  1.
        -13    1    5    5    0    0 -0.87196503423E+02  0.20444727002E+03 -0.22271484658E+03  0.31464872369E+03  0.00000000000E+00 0. -1.
          2    1    6    6  503    0 -0.14554317242E+03  0.23390838743E+03  0.29177281484E+03  0.40128210056E+03  0.00000000000E+00 0. -1.
         -2    1    6    6    0  503 -0.41588191781E+02  0.20632147227E+03  0.18461663424E+03  0.27996683599E+03  0.00000000000E+00 0.  1.
<mgrwt>
<rscale>  0 0.28236744E+04</rscale>
<asrwt>0</asrwt>
<pdfrwt beam="1">  1        1 0.40017165E+00 0.28236744E+04</pdfrwt>
<pdfrwt beam="2">  1       -2 0.11789522E+00 0.28236744E+04</pdfrwt>
<totfact> 0.48544592E-01</totfact>
</mgrwt>
</event>
<event>
12    5  0.5029243E-008  0.1564916E+04  0.7818608E-02  0.8842396E-01
         -2   -1    0    0    0  501 -0.00000000000E+00  0.00000000000E+00  0.66234559887E+03  0.66234559887E+03  0.00000000000E+00 0.  1.
          1   -1    0    0  501    0  0.00000000000E+00 -0.00000000000E+00 -0.92435158816E+03  0.92435158816E+03  0.00000000000E+00 0. -1.
        -24    2    1    2    0    0 -0.45178763192E+03 -0.55407839713E+02 -0.34347408022E+03  0.57581545541E+03  0.80043124913E+02 0.  0.
        254    2    1    2    0    0  0.45178763192E+03  0.55407839713E+02  0.81468090929E+02  0.10108817316E+04  0.89892309594E+03 0.  0.
         23    2    4    4    0    0  0.61496652641E+03  0.27869736747E+03 -0.65291681003E+02  0.68443827497E+03  0.91305516798E+02 0.  0.
         23    2    4    4    0    0 -0.16317889449E+03 -0.22328952775E+03  0.14675977193E+03  0.32644345665E+03  0.92419342773E+02 0.  0.
          1    1    3    3  502    0 -0.15921455565E+03 -0.47295390513E+02 -0.15846899067E+03  0.22956164684E+03  0.00000000000E+00 0. -1.
         -2    1    3    3    0  502 -0.29257307627E+03 -0.81124492002E+01 -0.18500508955E+03  0.34625380857E+03  0.00000000000E+00 0.  1.
         13    1    5    5    0    0  0.46495409485E+03  0.24217703900E+03 -0.75759183192E+02  0.52968998705E+03  0.00000000000E+00 0. -1.
        -13    1    5    5    0    0  0.15001243156E+03  0.36520328465E+02  0.10467502189E+02  0.15474828792E+03  0.00000000000E+00 0.  1.
          4    1    6    6  503    0 -0.16555718844E+03 -0.19088564352E+03  0.10523218108E+03  0.27371577134E+03  0.00000000000E+00 0. -1.
         -4    1    6    6    0  503  0.23782939523E+01 -0.32403884239E+02  0.41527590854E+02  0.52727685309E+02  0.00000000000E+00 0.  1.
<mgrwt>
<rscale>  0 0.15649156E+04</rscale>
<asrwt>0</asrwt>
<pdfrwt beam="1">  1        1 0.14220794E+00 0.15649156E+04</pdfrwt>
<pdfrwt beam="2">  1       -2 0.10189932E+00 0.15649156E+04</pdfrwt>
<totfact> 0.11578775E+01</totfact>
</mgrwt>
</event>
<event>
12    5  0.5029243E-008  0.1301345E+04  0.7818608E-02  0.9028499E-01
          1   -1    0    0  501    0  0.00000000000E+00  0.00000000000E+00  0.11957307940E+04  0.11957307940E+04  0.00000000000E+00 0. -1.
         -2   -1    0    0    0  501 -0.00000000000E+00 -0.00000000000E+00 -0.35407215746E+03  0.35407215746E+03  0.00000000000E+00 0.  1.
        -24    2    1    2    0    0 -0.22052114316E+03  0.22506808051E+03  0.89279318576E+02  0.33721642063E+03  0.80367295413E+02 0.  0.
        254    2    1    2    0    0  0.22052114316E+03 -0.22506808051E+03  0.75237931801E+03  0.12125865309E+04  0.89722140035E+03 0.  0.
         23    2    4    4    0    0  0.12971554811E+03  0.24163027226E+03 -0.32322370680E+02  0.29027492625E+03  0.89462200241E+02 0.  0.
         23    2    4    4    0    0  0.90805595052E+02 -0.46669835277E+03  0.78470168869E+03  0.92231160462E+03  0.94068842927E+02 0.  0.
          1    1    3    3  502    0 -0.12937816887E+03  0.14522156636E+03  0.93861705037E+02  0.21595840708E+03  0.00000000000E+00 0. -1.
         -2    1    3    3    0  502 -0.91142974291E+02  0.79846514148E+02 -0.45823864604E+01  0.12125801355E+03  0.00000000000E+00 0.  1.
         13    1    5    5    0    0  0.82430222738E+02  0.14556303728E+03  0.24485261846E+02  0.16906468434E+03  0.00000000000E+00 0.  1.
        -13    1    5    5    0    0  0.47285325371E+02  0.96067234977E+02 -0.56807632526E+02  0.12121024191E+03  0.00000000000E+00 0. -1.
          3    1    6    6  503    0  0.16810503190E+02 -0.84306522503E+02  0.22109263169E+03  0.23721748364E+03  0.00000000000E+00 0. -1.
         -3    1    6    6    0  503  0.73995091863E+02 -0.38239183027E+03  0.56360905700E+03  0.68509412098E+03  0.00000000000E+00 0.  1.
<mgrwt>
<rscale>  0 0.13013454E+04</rscale>
<asrwt>0</asrwt>
<pdfrwt beam="1">  1        1 0.18395858E+00 0.13013454E+04</pdfrwt>
<pdfrwt beam="2">  1       -2 0.54472640E-01 0.13013454E+04</pdfrwt>
<totfact> 0.29413053E+01</totfact>
</mgrwt>
</event>
<event>
12    5  0.5029243E-008  0.1589065E+04  0.7818608E-02  0.8827294E-01
          3   -1    0    0  501    0  0.00000000000E+00  0.00000000000E+00  0.24114928527E+04  0.24114928527E+04  0.00000000000E+00 0. -1.
         -4   -1    0    0    0  501 -0.00000000000E+00 -0.00000000000E+00 -0.26178060846E+03  0.26178060846E+03  0.00000000000E+00 0.  1.
        -24    2    1    2    0    0 -0.22670792327E+03 -0.11600829979E+02 -0.75512824353E+02  0.25248247078E+03  0.80710282365E+02 0.  0.
        254    2    1    2    0    0  0.22670792327E+03  0.11600829979E+02  0.22252250686E+04  0.24207909904E+04  0.92578148150E+03 0.  0.
         23    2    4    4    0    0 -0.34727238407E+03  0.65019063860E+02  0.95001818983E+03  0.10183203477E+04  0.98062133977E+02 0.  0.
         23    2    4    4    0    0  0.57398030734E+03 -0.53418233881E+02  0.12752068788E+04  0.14024706427E+04  0.92002277254E+02 0.  0.
          3    1    3    3  502    0 -0.11986182274E+03  0.90452328216E+00  0.20137642105E+01  0.11988215029E+03  0.00000000000E+00 0. -1.
         -4    1    3    3    0  502 -0.10684610054E+03 -0.12505353261E+02 -0.77526588564E+02  0.13260032049E+03  0.00000000000E+00 0.  1.
         13    1    5    5    0    0 -0.15726576331E+03  0.59638232689E-01  0.31111686810E+03  0.34860612371E+03  0.00000000000E+00 0.  1.
        -13    1    5    5    0    0 -0.19000662076E+03  0.64959425627E+02  0.63890132173E+03  0.66971422399E+03  0.00000000000E+00 0. -1.
          3    1    6    6  503    0  0.50916730020E+03 -0.63384633207E+02  0.10628548296E+04  0.11802242754E+04  0.00000000000E+00 0. -1.
         -3    1    6    6    0  503  0.64813007138E+02  0.99663993256E+01  0.21235204914E+03  0.22224636732E+03  0.00000000000E+00 0.  1.
<mgrwt>
<rscale>  0 0.15890652E+04</rscale>
<asrwt>0</asrwt>
<pdfrwt beam="1">  1        3 0.37099888E+00 0.15890652E+04</pdfrwt>
<pdfrwt beam="2">  1       -4 0.40273941E-01 0.15890652E+04</pdfrwt>
<totfact> 0.21202263E-01</totfact>
</mgrwt>
</event>
<event>
12    5  0.5029243E-008  0.1323017E+04  0.7818608E-02  0.9011509E-01
          1   -1    0    0  501    0  0.00000000000E+00  0.00000000000E+00  0.20556086396E+04  0.20556086396E+04  0.00000000000E+00 0. -1.
         -2   -1    0    0    0  501 -0.00000000000E+00 -0.00000000000E+00 -0.21287790456E+03  0.21287790456E+03  0.00000000000E+00 0.  1.
        -24    2    1    2    0    0 -0.25433998944E+03  0.15795705533E+03  0.78092960316E+03  0.84017349221E+03  0.80007439447E+02 0.  0.
        254    2    1    2    0    0  0.25433998944E+03 -0.15795705533E+03  0.10618011319E+04  0.14283130520E+04  0.90720299228E+03 0.  0.
         23    2    4    4    0    0  0.11774526104E+03  0.12727815575E+03  0.10807901391E+04  0.10982720577E+04  0.89613127666E+02 0.  0.
         23    2    4    4    0    0  0.13659472840E+03 -0.28523521108E+03 -0.18989007133E+02  0.33004099428E+03  0.92462046535E+02 0.  0.
          1    1    3    3  502    0 -0.16980089558E+03  0.14286389295E+03  0.51659110158E+03  0.56223553986E+03  0.00000000000E+00 0. -1.
         -2    1    3    3    0  502 -0.84539093857E+02  0.15093162386E+02  0.26433850158E+03  0.27793795235E+03  0.00000000000E+00 0.  1.
         13    1    5    5    0    0 -0.10618958677E+02 -0.42045073744E+01  0.61705213186E+02  0.62753274815E+02  0.00000000000E+00 0.  1.
        -13    1    5    5    0    0  0.12836421971E+03  0.13148266312E+03  0.10190849259E+04  0.10355187829E+04  0.00000000000E+00 0. -1.
          4    1    6    6  503    0  0.14007206891E+03 -0.20207221318E+03 -0.72311114001E+01  0.24597896820E+03  0.00000000000E+00 0. -1.
         -4    1    6    6    0  503 -0.34773405017E+01 -0.83162997902E+02 -0.11757895733E+02  0.84062026082E+02  0.00000000000E+00 0.  1.
<mgrwt>
<rscale>  0 0.13230172E+04</rscale>
<asrwt>0</asrwt>
<pdfrwt beam="1">  1        1 0.31624747E+00 0.13230172E+04</pdfrwt>
<pdfrwt beam="2">  1       -2 0.32750448E-01 0.13230172E+04</pdfrwt>
<totfact> 0.20481208E+01</totfact>
</mgrwt>
</event>
<event>
12    5  0.5029243E-008  0.1767808E+04  0.7818608E-02  0.8723608E-01
          1   -1    0    0  501    0  0.00000000000E+00  0.00000000000E+00  0.15393333006E+04  0.15393333006E+04  0.00000000000E+00 0. -1.
         -2   -1    0    0    0  501 -0.00000000000E+00 -0.00000000000E+00 -0.50754876965E+03  0.50754876965E+03  0.00000000000E+00 0.  1.
        -24    2    1    2    0    0  0.63167718715E+03 -0.83211087206E+02  0.20079119291E+03  0.67278266704E+03  0.79870270557E+02 0.  0.
        254    2    1    2    0    0 -0.63167718715E+03  0.83211087206E+02  0.83099333802E+03  0.13740994032E+04  0.88975226227E+03 0.  0.
         23    2    4    4    0    0 -0.31488773121E+03  0.34816424252E+03  0.44463291935E+02  0.48103256665E+03  0.95093232240E+02 0.  0.
         23    2    4    4    0    0 -0.31678945594E+03 -0.26495315531E+03  0.78653004608E+03  0.89306683654E+03  0.91559419089E+02 0.  0.
          3    1    3    3  502    0  0.29406881112E+02  0.89434412516E+01 -0.15687959246E+01  0.30776791886E+02  0.00000000000E+00 0. -1.
         -4    1    3    3    0  502  0.60227030604E+03 -0.92154528457E+02  0.20235998883E+03  0.64200587516E+03  0.00000000000E+00 0.  1.
         13    1    5    5    0    0 -0.27394409430E+03  0.33323604622E+03  0.21853965490E+02  0.43193659848E+03  0.00000000000E+00 0. -1.
        -13    1    5    5    0    0 -0.40943636912E+02  0.14928196294E+02  0.22609326445E+02  0.49095968169E+02  0.00000000000E+00 0.  1.
          2    1    6    6  503    0 -0.29025300724E+03 -0.20577011288E+03  0.69641893498E+03  0.78204058755E+03  0.00000000000E+00 0. -1.
         -2    1    6    6    0  503 -0.26536448701E+02 -0.59183042431E+02  0.90111111100E+02  0.11102624899E+03  0.00000000000E+00 0.  1.
<mgrwt>
<rscale>  0 0.17678085E+04</rscale>
<asrwt>0</asrwt>
<pdfrwt beam="1">  1        1 0.23682051E+00 0.17678085E+04</pdfrwt>
<pdfrwt beam="2">  1       -2 0.78084427E-01 0.17678085E+04</pdfrwt>
<totfact> 0.74465632E+00</totfact>
</mgrwt>
</event>
<event>
12    5  0.5029243E-008  0.1968279E+04  0.7818608E-02  0.8621597E-01
         -2   -1    0    0    0  501 -0.00000000000E+00  0.00000000000E+00  0.12915204903E+04  0.12915204903E+04  0.00000000000E+00 0.  1.
          1   -1    0    0  501    0  0.00000000000E+00 -0.00000000000E+00 -0.74991482363E+03  0.74991482363E+03  0.00000000000E+00 0. -1.
        -24    2    1    2    0    0  0.65994284639E+02 -0.72478350397E+03 -0.54468011605E+02  0.73409638850E+03  0.79147773818E+02 0.  0.
        254    2    1    2    0    0 -0.65994284639E+02  0.72478350397E+03  0.59607367824E+03  0.13073389254E+04  0.90783526189E+03 0.  0.
         23    2    4    4    0    0  0.18986556126E+02  0.48296911258E+03  0.81932197691E+03  0.95549730923E+03  0.89816218306E+02 0.  0.
         23    2    4    4    0    0 -0.84980840765E+02  0.24181439138E+03 -0.22324829867E+03  0.35184161617E+03  0.90866808189E+02 0.  0.
          1    1    3    3  502    0 -0.49461893686E+01 -0.50268286194E+02  0.13995780081E+02  0.52414189360E+02  0.00000000000E+00 0. -1.
         -2    1    3    3    0  502  0.70940474008E+02 -0.67451521777E+03 -0.68463791686E+02  0.68168219914E+03  0.00000000000E+00 0.  1.
         13    1    5    5    0    0 -0.69086415160E+01  0.28226092423E+03  0.55406180690E+03  0.62185484202E+03  0.00000000000E+00 0.  1.
        -13    1    5    5    0    0  0.25895197642E+02  0.20070818835E+03  0.26526017001E+03  0.33364246721E+03  0.00000000000E+00 0. -1.
          3    1    6    6  503    0 -0.99098382539E+02  0.15574878452E+03 -0.14662143476E+03  0.23574566472E+03  0.00000000000E+00 0. -1.
         -3    1    6    6    0  503  0.14117541774E+02  0.86065606868E+02 -0.76626863906E+02  0.11609595145E+03  0.00000000000E+00 0.  1.
<mgrwt>
<rscale>  0 0.19682788E+04</rscale>
<asrwt>0</asrwt>
<pdfrwt beam="1">  1        1 0.11537151E+00 0.19682788E+04</pdfrwt>
<pdfrwt beam="2">  1       -2 0.19869546E+00 0.19682788E+04</pdfrwt>
<totfact> 0.27064139E+00</totfact>
</mgrwt>
</event>
<event>
12    5  0.5029243E-008  0.1959710E+04  0.7818608E-02  0.8625693E-01
         -2   -1    0    0    0  501 -0.00000000000E+00  0.00000000000E+00  0.42271386628E+03  0.42271386628E+03  0.00000000000E+00 0.  1.
          1   -1    0    0  501    0  0.00000000000E+00 -0.00000000000E+00 -0.22713138015E+04  0.22713138015E+04  0.00000000000E+00 0. -1.
        -24    2    1    2    0    0 -0.74510981310E+02 -0.46439159571E+00 -0.17271761166E+04  0.17306456284E+04  0.80279830082E+02 0.  0.
        254    2    1    2    0    0  0.74510981310E+02  0.46439159571E+00 -0.12142381855E+03  0.96338203938E+03  0.95279017003E+03 0.  0.
         23    2    4    4    0    0  0.79402586585E+02  0.24024049178E+03 -0.46356028129E+03  0.53584616676E+03  0.90679189427E+02 0.  0.
         23    2    4    4    0    0 -0.48916052748E+01 -0.23977610019E+03  0.34213646274E+03  0.42753587262E+03  0.90625919143E+02 0.  0.
          3    1    3    3  502    0 -0.83310305135E+02  0.13758281637E+02 -0.16174182218E+04  0.16196208202E+04  0.00000000000E+00 0. -1.
         -4    1    3    3    0  502  0.87993238248E+01 -0.14222673233E+02 -0.10975789489E+03  0.11102480815E+03  0.00000000000E+00 0.  1.
         13    1    5    5    0    0  0.56063653356E+01 -0.69777697315E+01 -0.67364175092E+01  0.11202674840E+02  0.00000000000E+00 0. -1.
        -13    1    5    5    0    0  0.73796221249E+02  0.24721826151E+03 -0.45682386378E+03  0.52464349192E+03  0.00000000000E+00 0.  1.
          1    1    6    6  503    0  0.71637884082E+01 -0.25990676919E+02  0.39303956178E+01  0.27244874027E+02  0.00000000000E+00 0. -1.
         -1    1    6    6    0  503 -0.12055393683E+02 -0.21378542327E+03  0.33820606712E+03  0.40029099859E+03  0.00000000000E+00 0.  1.
<mgrwt>
<rscale>  0 0.19597100E+04</rscale>
<asrwt>0</asrwt>
<pdfrwt beam="1">  1        1 0.34943289E+00 0.19597100E+04</pdfrwt>
<pdfrwt beam="2">  1       -2 0.65032903E-01 0.19597100E+04</pdfrwt>
<totfact> 0.34728762E+00</totfact>
</mgrwt>
</event>
<event>
12    5  0.5029243E-008  0.1441373E+04  0.7818608E-02  0.8924403E-01
          1   -1    0    0  501    0  0.00000000000E+00  0.00000000000E+00  0.19993160355E+04  0.19993160355E+04  0.00000000000E+00 0. -1.
         -2   -1    0    0    0  501 -0.00000000000E+00 -0.00000000000E+00 -0.25978350911E+03  0.25978350911E+03  0.00000000000E+00 0.  1.
        -24    2    1    2    0    0  0.34661185774E+03 -0.11235495693E+03  0.17765610461E+03  0.41315218735E+03  0.79809912527E+02 0.  0.
        254    2    1    2    0    0 -0.34661185774E+03  0.11235495693E+03  0.15618764218E+04  0.18459473573E+04  0.91394763118E+03 0.  0.
         23    2    4    4    0    0 -0.33840591415E+03 -0.26707658877E+03  0.13089040204E+04  0.13810677165E+04  0.90938638907E+02 0.  0.
         23    2    4    4    0    0 -0.82059435877E+01  0.37943154570E+03  0.25297240142E+03  0.46487964074E+03  0.89902219740E+02 0.  0.
          1    1    3    3  502    0  0.18150462270E+03 -0.53360851267E+02  0.13584374460E+03  0.23290519843E+03  0.00000000000E+00 0. -1.
         -2    1    3    3    0  502  0.16510723504E+03 -0.58994105663E+02  0.41812360003E+02  0.18024698892E+03  0.00000000000E+00 0.  1.
         13    1    5    5    0    0 -0.33173079104E+03 -0.27054482794E+03  0.13029752264E+04  0.13714897966E+04  0.00000000000E+00 0.  1.
        -13    1    5    5    0    0 -0.66751231080E+01  0.34682391688E+01  0.59287939937E+01  0.95779199025E+01  0.00000000000E+00 0. -1.
          4    1    6    6  503    0 -0.29179012950E+01  0.30565757816E+03  0.15676252624E+03  0.34352519393E+03  0.00000000000E+00 0.  1.
         -4    1    6    6    0  503 -0.52880422927E+01  0.73773967542E+02  0.96209875182E+02  0.12135444681E+03  0.00000000000E+00 0. -1.
<mgrwt>
<rscale>  0 0.14413734E+04</rscale>
<asrwt>0</asrwt>
<pdfrwt beam="1">  1        1 0.30758707E+00 0.14413734E+04</pdfrwt>
<pdfrwt beam="2">  1       -2 0.39966695E-01 0.14413734E+04</pdfrwt>
<totfact> 0.15089971E+01</totfact>
</mgrwt>
</event>
<event>
12    5  0.5029243E-008  0.1965594E+04  0.7818608E-02  0.8622878E-01
          1   -1    0    0  501    0  0.00000000000E+00  0.00000000000E+00  0.30550631099E+03  0.30550631099E+03  0.00000000000E+00 0. -1.
         -2   -1    0    0    0  501 -0.00000000000E+00 -0.00000000000E+00 -0.31616040282E+04  0.31616040282E+04  0.00000000000E+00 0.  1.
        -24    2    1    2    0    0 -0.47184962320E+03  0.24551056622E+02 -0.21843098540E+04  0.22365948644E+04  0.88894475521E+02 0.  0.
        254    2    1    2    0    0  0.47184962320E+03 -0.24551056622E+02 -0.67178786313E+03  0.12305154747E+04  0.91631030727E+03 0.  0.
         23    2    4    4    0    0  0.20929908245E+03 -0.44318430551E+03 -0.48254564172E+03  0.69361070737E+03  0.89593986802E+02 0.  0.
         23    2    4    4    0    0  0.26255054075E+03  0.41863324889E+03 -0.18924222141E+03  0.53690476736E+03  0.90925944184E+02 0.  0.
          1    1    3    3  502    0 -0.35794110862E+02  0.64753387757E+01 -0.85959484669E+02  0.93339066790E+02  0.00000000000E+00 0. -1.
         -2    1    3    3    0  502 -0.43605551233E+03  0.18075717846E+02 -0.20983503694E+04  0.21432557976E+04  0.00000000000E+00 0.  1.
         13    1    5    5    0    0  0.21586774028E+03 -0.42511264681E+03 -0.47483116552E+03  0.67289247248E+03  0.00000000000E+00 0.  1.
        -13    1    5    5    0    0 -0.65686578306E+01 -0.18071658701E+02 -0.77144761964E+01  0.20718234888E+02  0.00000000000E+00 0. -1.
          4    1    6    6  503    0  0.25887208195E+03  0.35900656687E+03 -0.17020431576E+03  0.47420457502E+03  0.00000000000E+00 0.  1.
         -4    1    6    6    0  503  0.36784588030E+01  0.59626682018E+02 -0.19037905644E+02  0.62700192336E+02  0.00000000000E+00 0. -1.
<mgrwt>
<rscale>  0 0.19655940E+04</rscale>
<asrwt>0</asrwt>
<pdfrwt beam="1">  1        1 0.47000969E-01 0.19655940E+04</pdfrwt>
<pdfrwt beam="2">  1       -2 0.48640064E+00 0.19655940E+04</pdfrwt>
<totfact> 0.13975364E-01</totfact>
</mgrwt>
</event>
<event>
12    5  0.5029243E-008  0.2918448E+04  0.7818608E-02  0.8267410E-01
         -4   -1    0    0    0  501 -0.00000000000E+00  0.00000000000E+00  0.79931680456E+03  0.79931680456E+03  0.00000000000E+00 0.  1.
          1   -1    0    0  501    0  0.00000000000E+00 -0.00000000000E+00 -0.26639441573E+04  0.26639441573E+04  0.00000000000E+00 0. -1.
        -24    2    1    2    0    0  0.11734137801E+04  0.57931197658E+03 -0.99977689569E+03  0.16486884436E+04  0.78214304084E+02 0.  0.
        254    2    1    2    0    0 -0.11734137801E+04 -0.57931197658E+03 -0.86485045703E+03  0.18145725182E+04  0.91225262145E+03 0.  0.
         23    2    4    4    0    0 -0.12397248555E+04 -0.38690164892E+03 -0.51419409018E+03  0.13997726261E+04  0.91417936534E+02 0.  0.
         23    2    4    4    0    0  0.66311075404E+02 -0.19241032766E+03 -0.35065636684E+03  0.41479989212E+03  0.87636579032E+02 0.  0.
          3    1    3    3  502    0  0.10315899818E+04  0.52127529090E+03 -0.91027569923E+03  0.14712265862E+04  0.00000000000E+00 0. -1.
         -4    1    3    3    0  502  0.14182379830E+03  0.58036685681E+02 -0.89501196456E+02  0.17746185736E+03  0.00000000000E+00 0.  1.
         13    1    5    5    0    0 -0.10524699710E+04 -0.29361183908E+03 -0.43582697898E+03  0.11763698855E+04  0.00000000000E+00 0.  1.
        -13    1    5    5    0    0 -0.18725488449E+03 -0.93289809842E+02 -0.78367111207E+02  0.22340274059E+03  0.00000000000E+00 0. -1.
          2    1    6    6  503    0  0.53599340567E+02 -0.19045985989E+03 -0.34983782959E+03  0.40191336698E+03  0.00000000000E+00 0.  1.
         -2    1    6    6    0  503  0.12711734837E+02 -0.19504677642E+01 -0.81853725127E+00  0.12886525144E+02  0.00000000000E+00 0. -1.
<mgrwt>
<rscale>  0 0.29184484E+04</rscale>
<asrwt>0</asrwt>
<pdfrwt beam="1">  1        1 0.40983756E+00 0.29184484E+04</pdfrwt>
<pdfrwt beam="2">  1       -4 0.12297182E+00 0.29184484E+04</pdfrwt>
<totfact> 0.21881047E-01</totfact>
</mgrwt>
</event>
<event>
12    5  0.5029243E-008  0.1212129E+04  0.7818608E-02  0.9102306E-01
          1   -1    0    0  501    0  0.00000000000E+00  0.00000000000E+00  0.19979513713E+03  0.19979513713E+03  0.00000000000E+00 0. -1.
         -2   -1    0    0    0  501 -0.00000000000E+00 -0.00000000000E+00 -0.18384546169E+04  0.18384546169E+04  0.00000000000E+00 0.  1.
        -24    2    1    2    0    0 -0.22783036938E+03  0.69734832277E+02 -0.54574333889E+03  0.60065100365E+03  0.78588880887E+02 0.  0.
        254    2    1    2    0    0  0.22783036938E+03 -0.69734832277E+02 -0.10929161408E+04  0.14375987503E+04  0.90302538836E+03 0.  0.
         23    2    4    4    0    0  0.59620431802E+02  0.29435775676E+03 -0.52142248894E+02  0.31850756462E+03  0.92342675657E+02 0.  0.
         23    2    4    4    0    0  0.16820993758E+03 -0.36409258904E+03 -0.10407738919E+04  0.11190911857E+04  0.91086724086E+02 0.  0.
          1    1    3    3  502    0 -0.16349206417E+01  0.18923083730E+02 -0.45041713407E+02  0.48882635056E+02  0.00000000000E+00 0. -1.
         -2    1    3    3    0  502 -0.22619544874E+03  0.50811748546E+02 -0.50070162549E+03  0.55176836860E+03  0.00000000000E+00 0.  1.
         13    1    5    5    0    0  0.77169194423E+02  0.27760048073E+03 -0.57128880667E+02  0.29373597069E+03  0.00000000000E+00 0.  1.
        -13    1    5    5    0    0 -0.17548762621E+02  0.16757276028E+02  0.49866317731E+01  0.24771593930E+02  0.00000000000E+00 0. -1.
          2    1    6    6  503    0  0.88927669899E+02 -0.14199746992E+03 -0.54340680730E+03  0.56864960226E+03  0.00000000000E+00 0. -1.
         -2    1    6    6    0  503  0.79282267678E+02 -0.22209511912E+03 -0.49736708464E+03  0.55044158345E+03  0.00000000000E+00 0.  1.
<mgrwt>
<rscale>  0 0.12121292E+04</rscale>
<asrwt>0</asrwt>
<pdfrwt beam="1">  1        1 0.30737713E-01 0.12121292E+04</pdfrwt>
<pdfrwt beam="2">  1       -2 0.28283918E+00 0.12121292E+04</pdfrwt>
<totfact> 0.52275761E+00</totfact>
</mgrwt>
</event>
<event>
12    5  0.5029243E-008  0.1455150E+04  0.7818608E-02  0.8914838E-01
          1   -1    0    0  501    0  0.00000000000E+00  0.00000000000E+00  0.27143442092E+04  0.27143442092E+04  0.00000000000E+00 0. -1.
         -2   -1    0    0    0  501 -0.00000000000E+00 -0.00000000000E+00 -0.19502507034E+03  0.19502507034E+03  0.00000000000E+00 0.  1.
        -24    2    1    2    0    0 -0.10702267303E+03 -0.21727685262E+02 -0.82439340312E+02  0.15873800257E+03  0.80470887774E+02 0.  0.
        254    2    1    2    0    0  0.10702267303E+03  0.21727685262E+02  0.26017584791E+04  0.27506312769E+04  0.88594542330E+03 0.  0.
         23    2    4    4    0    0 -0.12762445696E+03  0.12089756578E+03  0.75324539275E+02  0.20977064571E+03  0.86172583577E+02 0.  0.
         23    2    4    4    0    0  0.23464712999E+03 -0.99169880514E+02  0.25264339399E+04  0.25408606312E+04  0.90611003848E+02 0.  0.
          3    1    3    3  502    0 -0.10352828348E+01  0.19260212951E+02 -0.17492348208E+01  0.19367174185E+02  0.00000000000E+00 0. -1.
         -4    1    3    3    0  502 -0.10598739019E+03 -0.40987898212E+02 -0.80690105491E+02  0.13937082838E+03  0.00000000000E+00 0.  1.
         13    1    5    5    0    0 -0.12871381100E+03  0.11843285099E+03  0.88707658464E+02  0.19611892822E+03  0.00000000000E+00 0. -1.
        -13    1    5    5    0    0  0.10893540416E+01  0.24647147861E+01 -0.13383119190E+02  0.13651717491E+02  0.00000000000E+00 0.  1.
          3    1    6    6  503    0  0.19176021950E+03 -0.11601191614E+03  0.20595732290E+04  0.20717317954E+04  0.00000000000E+00 0. -1.
         -3    1    6    6    0  503  0.42886910494E+02  0.16842035624E+02  0.46686071081E+03  0.46912883578E+03  0.00000000000E+00 0.  1.
<mgrwt>
<rscale>  0 0.14551497E+04</rscale>
<asrwt>0</asrwt>
<pdfrwt beam="1">  1        1 0.41759139E+00 0.14551497E+04</pdfrwt>
<pdfrwt beam="2">  1       -2 0.30003859E-01 0.14551497E+04</pdfrwt>
<totfact> 0.84166427E+00</totfact>
</mgrwt>
</event>
<event>
12    5  0.5344315E-008  0.1546952E+04  0.7818608E-02  0.8853817E-01
         -2   -1    0    0    0  501 -0.00000000000E+00  0.00000000000E+00  0.55923127266E+03  0.55923127266E+03  0.00000000000E+00 0.  1.
          1   -1    0    0  501    0  0.00000000000E+00 -0.00000000000E+00 -0.10697986204E+04  0.10697986204E+04  0.00000000000E+00 0. -1.
        -24    2    1    2    0    0 -0.20670420324E+03  0.48573371489E+02 -0.65487524786E+03  0.69276385197E+03  0.77292718133E+02 0.  0.
        254    2    1    2    0    0  0.20670420324E+03 -0.48573371489E+02  0.14430790009E+03  0.93626604111E+03  0.90037954756E+03 0.  0.
         23    2    4    4    0    0  0.17664956530E+03 -0.28681285127E+03  0.42861193606E+03  0.55303957175E+03  0.93155223255E+02 0.  0.
         23    2    4    4    0    0  0.30054637944E+02  0.23823947978E+03 -0.28430403597E+03  0.38322646936E+03  0.91500879570E+02 0.  0.
          1    1    3    3  502    0 -0.18526272161E+03  0.62039219694E+02 -0.51912924140E+03  0.55467676179E+03  0.00000000000E+00 0. -1.
         -2    1    3    3    0  502 -0.21441481636E+02 -0.13465848205E+02 -0.13574600646E+03  0.13808709017E+03  0.00000000000E+00 0.  1.
         13    1    5    5    0    0  0.16691697931E+02 -0.98742381565E+02  0.95263844110E+02  0.13821675257E+03  0.00000000000E+00 0. -1.
        -13    1    5    5    0    0  0.15995786737E+03 -0.18807046971E+03  0.33334809195E+03  0.41482281918E+03  0.00000000000E+00 0.  1.
          4    1    6    6  503    0  0.33259819382E+02  0.60943808821E+02 -0.36289531956E+02  0.78340880443E+02  0.00000000000E+00 0. -1.
         -4    1    6    6    0  503 -0.32051814376E+01  0.17729567096E+03 -0.24801450401E+03  0.30488558892E+03  0.00000000000E+00 0.  1.
<mgrwt>
<rscale>  0 0.15469516E+04</rscale>
<asrwt>0</asrwt>
<pdfrwt beam="1">  1        1 0.16458440E+00 0.15469516E+04</pdfrwt>
<pdfrwt beam="2">  1       -2 0.86035581E-01 0.15469516E+04</pdfrwt>
<totfact> 0.13236669E+01</totfact>
</mgrwt>
</event>
<event>
12    5  0.5029243E-008  0.1690743E+04  0.7818608E-02  0.8766661E-01
          1   -1    0    0  501    0  0.00000000000E+00  0.00000000000E+00  0.59784060874E+03  0.59784060874E+03  0.00000000000E+00 0. -1.
         -2   -1    0    0    0  501 -0.00000000000E+00 -0.00000000000E+00 -0.11953908190E+04  0.11953908190E+04  0.00000000000E+00 0.  1.
        -24    2    1    2    0    0  0.52631672934E+03 -0.20052797800E+03 -0.41847809916E+03  0.70629579024E+03  0.80678710250E+02 0.  0.
        254    2    1    2    0    0 -0.52631672934E+03  0.20052797800E+03 -0.17907211113E+03  0.10869356375E+04  0.91221789592E+03 0.  0.
         23    2    4    4    0    0 -0.71646807079E+03  0.16104830091E+02  0.50080578344E+02  0.72491767064E+03  0.97013931348E+02 0.  0.
         23    2    4    4    0    0  0.19015134145E+03  0.18442314791E+03 -0.22915268948E+03  0.36201796690E+03  0.91523893741E+02 0.  0.
          3    1    3    3  502    0  0.13727296267E+03 -0.64538658143E+02 -0.15651600139E+03  0.21795954525E+03  0.00000000000E+00 0. -1.
         -2    1    3    3    0  502  0.38904376667E+03 -0.13598931986E+03 -0.26196209778E+03  0.48833624499E+03  0.00000000000E+00 0.  1.
         13    1    5    5    0    0 -0.61415681601E+03 -0.20565506298E+02  0.42349697354E+02  0.61595862813E+03  0.00000000000E+00 0. -1.
        -13    1    5    5    0    0 -0.10231125477E+03  0.36670336389E+02  0.77308809901E+01  0.10895904251E+03  0.00000000000E+00 0.  1.
          4    1    6    6  503    0  0.50795548080E+02  0.35697516512E+02 -0.10895630304E+03  0.12540325499E+03  0.00000000000E+00 0.  1.
         -4    1    6    6    0  503  0.13935579337E+03  0.14872563140E+03 -0.12019638643E+03  0.23661471191E+03  0.00000000000E+00 0. -1.
<mgrwt>
<rscale>  0 0.16907432E+04</rscale>
<asrwt>0</asrwt>
<pdfrwt beam="1">  1        1 0.91975479E-01 0.16907432E+04</pdfrwt>
<pdfrwt beam="2">  1       -2 0.18390628E+00 0.16907432E+04</pdfrwt>
<totfact> 0.48874294E+00</totfact>
</mgrwt>
</event>
<event>
12    5  0.5029243E-008  0.2188615E+04  0.7818608E-02  0.8523182E-01
         -4   -1    0    0    0  501 -0.00000000000E+00  0.00000000000E+00  0.19889828539E+04  0.19889828539E+04  0.00000000000E+00 0.  1.
          3   -1    0    0  501    0  0.00000000000E+00 -0.00000000000E+00 -0.60207094188E+03  0.60207094188E+03  0.00000000000E+00 0. -1.
        -24    2    1    2    0    0  0.79352738721E+03  0.59481844610E+02  0.10959256601E+04  0.13570868238E+04  0.86068523361E+02 0.  0.
        254    2    1    2    0    0 -0.79352738721E+03 -0.59481844610E+02  0.29098625195E+03  0.12339669720E+04  0.89709402248E+03 0.  0.
         23    2    4    4    0    0 -0.29021887702E+02 -0.34394798312E+03 -0.16925205335E+02  0.35729372718E+03  0.90718574981E+02 0.  0.
         23    2    4    4    0    0 -0.76450549950E+03  0.28446613851E+03  0.30791145729E+03  0.87667324486E+03  0.91415917589E+02 0.  0.
          3    1    3    3  502    0  0.58416587689E+03  0.45090444895E+02  0.86829330590E+03  0.10474808757E+04  0.00000000000E+00 0. -1.
         -4    1    3    3    0  502  0.20936151031E+03  0.14391399716E+02  0.22763235419E+03  0.30960594804E+03  0.00000000000E+00 0.  1.
         13    1    5    5    0    0 -0.47645964142E+02 -0.17825200297E+03 -0.40481658872E+02  0.18889859494E+03  0.00000000000E+00 0. -1.
        -13    1    5    5    0    0  0.18624076440E+02 -0.16569598015E+03  0.23556453537E+02  0.16839513225E+03  0.00000000000E+00 0.  1.
          1    1    6    6  503    0 -0.37002640029E+03  0.17935394573E+03  0.17987354992E+03  0.44882275870E+03  0.00000000000E+00 0. -1.
         -1    1    6    6    0  503 -0.39447909921E+03  0.10511219279E+03  0.12803790736E+03  0.42785048616E+03  0.00000000000E+00 0.  1.
<mgrwt>
<rscale>  0 0.21886149E+04</rscale>
<asrwt>0</asrwt>
<pdfrwt beam="1">  1        3 0.92626299E-01 0.21886149E+04</pdfrwt>
<pdfrwt beam="2">  1       -4 0.30599736E+00 0.21886149E+04</pdfrwt>
<totfact> 0.61795513E-02</totfact>
</mgrwt>
</event>
<event>
12    5  0.5029243E-008  0.1714348E+04  0.7818608E-02  0.8753223E-01
          1   -1    0    0  501    0  0.00000000000E+00  0.00000000000E+00  0.20161768330E+04  0.20161768330E+04  0.00000000000E+00 0. -1.
         -2   -1    0    0    0  501 -0.00000000000E+00 -0.00000000000E+00 -0.36442597574E+03  0.36442597574E+03  0.00000000000E+00 0.  1.
        -24    2    1    2    0    0  0.10058318190E+03  0.27380068977E+03  0.14249018521E+04  0.14561406867E+04  0.70118593862E+02 0.  0.
        254    2    1    2    0    0 -0.10058318190E+03 -0.27380068977E+03  0.22684900516E+03  0.92446212202E+03  0.84739952189E+03 0.  0.
         23    2    4    4    0    0  0.21022157339E+03  0.16261304431E+03 -0.90453782032E+02  0.29514970562E+03  0.91078811704E+02 0.  0.
         23    2    4    4    0    0 -0.31080475530E+03 -0.43641373408E+03  0.31730278719E+03  0.62931241640E+03  0.91085209928E+02 0.  0.
          1    1    3    3  502    0  0.68729219156E+02  0.24015042446E+03  0.12750840772E+04  0.12993211057E+04  0.00000000000E+00 0. -1.
         -2    1    3    3    0  502  0.31853962748E+02  0.33650265312E+02  0.14981777493E+03  0.15681958099E+03  0.00000000000E+00 0.  1.
         13    1    5    5    0    0  0.20164657258E+03  0.11558508643E+03 -0.82826335777E+02  0.24674167531E+03  0.00000000000E+00 0. -1.
        -13    1    5    5    0    0  0.85750008140E+01  0.47027957883E+02 -0.76274462557E+01  0.48408030305E+02  0.00000000000E+00 0.  1.
          2    1    6    6  503    0 -0.13862764810E+03 -0.14025655005E+03  0.15177441411E+03  0.24884733760E+03  0.00000000000E+00 0.  1.
         -2    1    6    6    0  503 -0.17217710719E+03 -0.29615718403E+03  0.16552837308E+03  0.38046507880E+03  0.00000000000E+00 0. -1.
<mgrwt>
<rscale>  0 0.17143479E+04</rscale>
<asrwt>0</asrwt>
<pdfrwt beam="1">  1        1 0.31018104E+00 0.17143479E+04</pdfrwt>
<pdfrwt beam="2">  1       -2 0.56065536E-01 0.17143479E+04</pdfrwt>
<totfact> 0.72447801E+00</totfact>
</mgrwt>
</event>
<event>
12    5  0.5029243E-008  0.1623581E+04  0.7818608E-02  0.8806191E-01
         -2   -1    0    0    0  501 -0.00000000000E+00  0.00000000000E+00  0.82240729107E+03  0.82240729107E+03  0.00000000000E+00 0.  1.
          1   -1    0    0  501    0  0.00000000000E+00 -0.00000000000E+00 -0.80131090502E+03  0.80131090502E+03  0.00000000000E+00 0. -1.
        -24    2    1    2    0    0 -0.19144508008E+03 -0.21748035080E+03 -0.46669628285E+03  0.55604656362E+03  0.86217392777E+02 0.  0.
        254    2    1    2    0    0  0.19144508008E+03  0.21748035080E+03  0.48779266890E+03  0.10676716325E+04  0.90445127303E+03 0.  0.
         23    2    4    4    0    0 -0.13604259336E+03  0.38779846444E+03 -0.33508253032E+02  0.42266578601E+03  0.92888790525E+02 0.  0.
         23    2    4    4    0    0  0.32748767345E+03 -0.17031811364E+03  0.52130092193E+03  0.64500584647E+03  0.89562574094E+02 0.  0.
          3    1    3    3  502    0 -0.17739233143E+03 -0.17361143750E+03 -0.33795332894E+03  0.41931065217E+03  0.00000000000E+00 0. -1.
         -4    1    3    3    0  502 -0.14052748649E+02 -0.43868913297E+02 -0.12874295391E+03  0.13673591145E+03  0.00000000000E+00 0.  1.
         13    1    5    5    0    0 -0.61665242661E+02  0.29984400609E+03 -0.22118909152E+02  0.30691737696E+03  0.00000000000E+00 0. -1.
        -13    1    5    5    0    0 -0.74377350704E+02  0.87954458357E+02 -0.11389343880E+02  0.11574840905E+03  0.00000000000E+00 0.  1.
          3    1    6    6  503    0  0.12549458908E+03 -0.10364424559E+03  0.17843220281E+03  0.24151412492E+03  0.00000000000E+00 0. -1.
         -3    1    6    6    0  503  0.20199308437E+03 -0.66673868050E+02  0.34286871912E+03  0.40349172155E+03  0.00000000000E+00 0.  1.
<mgrwt>
<rscale>  0 0.16235811E+04</rscale>
<asrwt>0</asrwt>
<pdfrwt beam="1">  1        1 0.12327860E+00 0.16235811E+04</pdfrwt>
<pdfrwt beam="2">  1       -2 0.12652420E+00 0.16235811E+04</pdfrwt>
<totfact> 0.86019345E+00</totfact>
</mgrwt>
</event>
<event>
12    5  0.5029243E-008  0.2621033E+04  0.7818608E-02  0.8361092E-01
          1   -1    0    0  501    0  0.00000000000E+00  0.00000000000E+00  0.16415927383E+04  0.16415927383E+04  0.00000000000E+00 0. -1.
         -2   -1    0    0    0  501 -0.00000000000E+00 -0.00000000000E+00 -0.10462119444E+04  0.10462119444E+04  0.00000000000E+00 0.  1.
        -24    2    1    2    0    0  0.56162106285E+03 -0.32278918190E+03 -0.71557115593E+03  0.96857665402E+03  0.80545523259E+02 0.  0.
        254    2    1    2    0    0 -0.56162106285E+03  0.32278918190E+03  0.13109519498E+04  0.17192280287E+04  0.90417859183E+03 0.  0.
         23    2    4    4    0    0 -0.73092107233E+03  0.21788785531E+03  0.12818049212E+04  0.14944816336E+04  0.93438566361E+02 0.  0.
         23    2    4    4    0    0  0.16930000948E+03  0.10490132659E+03  0.29147028537E+02  0.22474639508E+03  0.99973052876E+02 0.  0.
          3    1    3    3  502    0  0.22184912882E+03 -0.82874845122E+02 -0.26067559400E+03  0.35218892830E+03  0.00000000000E+00 0. -1.
         -4    1    3    3    0  502  0.33977193404E+03 -0.23991433677E+03 -0.45489556193E+03  0.61638772572E+03  0.00000000000E+00 0.  1.
         13    1    5    5    0    0 -0.20639775553E+03  0.64475681438E+02  0.44933466043E+03  0.49865698034E+03  0.00000000000E+00 0. -1.
        -13    1    5    5    0    0 -0.52452331681E+03  0.15341217387E+03  0.83247026081E+03  0.99582465329E+03  0.00000000000E+00 0.  1.
          2    1    6    6  503    0  0.26173254851E+02  0.52532676269E+02 -0.23900728629E+02  0.63371651189E+02  0.00000000000E+00 0. -1.
         -2    1    6    6    0  503  0.14312675463E+03  0.52368650317E+02  0.53047757166E+02  0.16137474390E+03  0.00000000000E+00 0.  1.
<mgrwt>
<rscale>  0 0.26210333E+04</rscale>
<asrwt>0</asrwt>
<pdfrwt beam="1">  1        1 0.25255273E+00 0.26210333E+04</pdfrwt>
<pdfrwt beam="2">  1       -2 0.16095568E+00 0.26210333E+04</pdfrwt>
<totfact> 0.10000555E+00</totfact>
</mgrwt>
</event>
<event>
12    5  0.5029243E-008  0.1499040E+04  0.7818608E-02  0.8885092E-01
         -2   -1    0    0    0  501 -0.00000000000E+00  0.00000000000E+00  0.80830355829E+03  0.80830355829E+03  0.00000000000E+00 0.  1.
          3   -1    0    0  501    0  0.00000000000E+00 -0.00000000000E+00 -0.69501150985E+03  0.69501150985E+03  0.00000000000E+00 0. -1.
        -24    2    1    2    0    0 -0.21764957010E+03 -0.20929057610E+03  0.39068099977E+03  0.49952445828E+03  0.75625129655E+02 0.  0.
        254    2    1    2    0    0  0.21764957010E+03  0.20929057610E+03 -0.27738895133E+03  0.10037906099E+04  0.91622981697E+03 0.  0.
         23    2    4    4    0    0 -0.20405709684E+03 -0.20947143123E+03 -0.26018376959E+03  0.40222257028E+03  0.92573337512E+02 0.  0.
         23    2    4    4    0    0  0.42170666693E+03  0.41876200733E+03 -0.17205181742E+02  0.60156803957E+03  0.91596704299E+02 0.  0.
          3    1    3    3  502    0 -0.91151148927E+02 -0.13848346217E+03  0.22277874266E+03  0.27769870260E+03  0.00000000000E+00 0. -1.
         -4    1    3    3    0  502 -0.12649842117E+03 -0.70807113931E+02  0.16790225710E+03  0.22182575568E+03  0.00000000000E+00 0.  1.
         13    1    5    5    0    0 -0.17169923168E+03 -0.11860578676E+03 -0.15834800201E+03  0.26195810458E+03  0.00000000000E+00 0. -1.
        -13    1    5    5    0    0 -0.32357865157E+02 -0.90865644469E+02 -0.10183576757E+03  0.14026446570E+03  0.00000000000E+00 0.  1.
          2    1    6    6  503    0  0.16807384464E+03  0.22898091358E+03 -0.20412867895E+02  0.28477668657E+03  0.00000000000E+00 0.  1.
         -2    1    6    6    0  503  0.25363282229E+03  0.18978109375E+03  0.32076861538E+01  0.31679135300E+03  0.00000000000E+00 0. -1.
<mgrwt>
<rscale>  0 0.14990401E+04</rscale>
<asrwt>0</asrwt>
<pdfrwt beam="1">  1        3 0.10692485E+00 0.14990401E+04</pdfrwt>
<pdfrwt beam="2">  1       -2 0.12435439E+00 0.14990401E+04</pdfrwt>
<totfact> 0.14565139E+00</totfact>
</mgrwt>
</event>
<event>
12    5  0.5029243E-008  0.2551202E+04  0.7818608E-02  0.8384968E-01
          1   -1    0    0  501    0  0.00000000000E+00  0.00000000000E+00  0.16648087107E+04  0.16648087107E+04  0.00000000000E+00 0. -1.
         -2   -1    0    0    0  501 -0.00000000000E+00 -0.00000000000E+00 -0.97738430108E+03  0.97738430108E+03  0.00000000000E+00 0.  1.
        -24    2    1    2    0    0 -0.76466617651E+03  0.57127448685E+03  0.87719672812E+03  0.12987485430E+04  0.78770409526E+02 0.  0.
        254    2    1    2    0    0  0.76466617651E+03 -0.57127448685E+03 -0.18977231850E+03  0.13434444687E+04  0.92615366264E+03 0.  0.
         23    2    4    4    0    0  0.69637946618E+03  0.43174476164E+02 -0.13140387762E+03  0.71565679020E+03  0.89940346893E+02 0.  0.
         23    2    4    4    0    0  0.68286710329E+02 -0.61444896302E+03 -0.58368440883E+02  0.62778767851E+03  0.92194855837E+02 0.  0.
          1    1    3    3  502    0 -0.74951301315E+03  0.54258050775E+03  0.84812683180E+03  0.12551822525E+04  0.00000000000E+00 0. -1.
         -2    1    3    3    0  502 -0.15153163363E+02  0.28693979107E+02  0.29069896313E+02  0.43566290507E+02  0.00000000000E+00 0.  1.
         13    1    5    5    0    0  0.19800798620E+03 -0.25476190405E+02 -0.52512505546E+02  0.20643101054E+03  0.00000000000E+00 0.  1.
        -13    1    5    5    0    0  0.49837147999E+03  0.68650666569E+02 -0.78891372076E+02  0.50922577966E+03  0.00000000000E+00 0. -1.
          2    1    6    6  503    0  0.62376968390E+02 -0.41899207170E+03  0.37020397014E+00  0.42360993777E+03  0.00000000000E+00 0. -1.
         -2    1    6    6    0  503  0.59097419387E+01 -0.19545689132E+03 -0.58738644853E+02  0.20417774074E+03  0.00000000000E+00 0.  1.
<mgrwt>
<rscale>  0 0.25512020E+04</rscale>
<asrwt>0</asrwt>
<pdfrwt beam="1">  1        1 0.25612442E+00 0.25512020E+04</pdfrwt>
<pdfrwt beam="2">  1       -2 0.15036682E+00 0.25512020E+04</pdfrwt>
<totfact> 0.11650537E+00</totfact>
</mgrwt>
</event>
<event>
12    5  0.5984558E-008  0.1490091E+04  0.7818608E-02  0.8891069E-01
          1   -1    0    0  501    0  0.00000000000E+00  0.00000000000E+00  0.98494950516E+03  0.98494950516E+03  0.00000000000E+00 0. -1.
         -2   -1    0    0    0  501 -0.00000000000E+00 -0.00000000000E+00 -0.56357464122E+03  0.56357464122E+03  0.00000000000E+00 0.  1.
        -24    2    1    2    0    0 -0.25067434031E+03 -0.46308905515E+02  0.52768619027E+03  0.59143095751E+03  0.79722785210E+02 0.  0.
        254    2    1    2    0    0  0.25067434031E+03  0.46308905515E+02 -0.10631132632E+03  0.95709318887E+03  0.91637499663E+03 0.  0.
         23    2    4    4    0    0  0.39609885475E+03 -0.28854800332E+03  0.12528808189E+03  0.51515321058E+03  0.97629267915E+02 0.  0.
         23    2    4    4    0    0 -0.14542451444E+03  0.33485690883E+03 -0.23159940821E+03  0.44193997829E+03  0.91625431699E+02 0.  0.
          3    1    3    3  502    0 -0.23774772732E+03 -0.53508173363E+02  0.52103560952E+03  0.57520884281E+03  0.00000000000E+00 0. -1.
         -4    1    3    3    0  502 -0.12926612991E+02  0.71992678472E+01  0.66505807475E+01  0.16222114697E+02  0.00000000000E+00 0.  1.
         13    1    5    5    0    0  0.27167392289E+03 -0.19181314957E+03  0.37296407410E+02  0.33464910986E+03  0.00000000000E+00 0.  1.
        -13    1    5    5    0    0  0.12442493187E+03 -0.96734853748E+02  0.87991674479E+02  0.18050410072E+03  0.00000000000E+00 0. -1.
          1    1    6    6  503    0 -0.14754649571E+03  0.32317299691E+03 -0.23879202620E+03  0.42805652209E+03  0.00000000000E+00 0. -1.
         -1    1    6    6    0  503  0.21219812756E+01  0.11683911922E+02  0.71926179918E+01  0.13883456195E+02  0.00000000000E+00 0.  1.
<mgrwt>
<rscale>  0 0.14900907E+04</rscale>
<asrwt>0</asrwt>
<pdfrwt beam="1">  1        1 0.15153069E+00 0.14900907E+04</pdfrwt>
<pdfrwt beam="2">  1       -2 0.86703791E-01 0.14900907E+04</pdfrwt>
<totfact> 0.15195553E+01</totfact>
</mgrwt>
</event>
<event>
12    5  0.5029243E-008  0.1508586E+04  0.7818608E-02  0.8878763E-01
         -2   -1    0    0    0  501 -0.00000000000E+00  0.00000000000E+00  0.37483748187E+03  0.37483748187E+03  0.00000000000E+00 0.  1.
          1   -1    0    0  501    0  0.00000000000E+00 -0.00000000000E+00 -0.15178792702E+04  0.15178792702E+04  0.00000000000E+00 0. -1.
        -24    2    1    2    0    0  0.36477254245E+03 -0.59418856820E+02 -0.75187619275E+03  0.84176327150E+03  0.81596493543E+02 0.  0.
        254    2    1    2    0    0 -0.36477254245E+03  0.59418856820E+02 -0.39116559557E+03  0.10509534805E+04  0.90271982744E+03 0.  0.
         23    2    4    4    0    0 -0.28184757748E+03 -0.38556245485E+03 -0.32192586360E+03  0.58319760538E+03  0.91579046444E+02 0.  0.
         23    2    4    4    0    0 -0.82924964973E+02  0.44498131167E+03 -0.69239731971E+02  0.46775587517E+03  0.95480368251E+02 0.  0.
          1    1    3    3  502    0  0.36823006361E+03 -0.56892129079E+02 -0.73133813829E+03  0.82078350777E+03  0.00000000000E+00 0. -1.
         -2    1    3    3    0  502 -0.34575211616E+01 -0.25267277410E+01 -0.20538054455E+02  0.20979763737E+02  0.00000000000E+00 0.  1.
         13    1    5    5    0    0 -0.67528453867E+01  0.44493535697E+01 -0.12019059755E+01  0.81757107324E+01  0.00000000000E+00 0. -1.
        -13    1    5    5    0    0 -0.27509473209E+03 -0.39001180842E+03 -0.32072395762E+03  0.57502189465E+03  0.00000000000E+00 0.  1.
          3    1    6    6  503    0 -0.52847928545E+02  0.23516418301E+03  0.10584068971E+02  0.24126151587E+03  0.00000000000E+00 0. -1.
         -3    1    6    6    0  503 -0.30077036428E+02  0.20981712866E+03 -0.79823800942E+02  0.22649435930E+03  0.00000000000E+00 0.  1.
<mgrwt>
<rscale>  0 0.15085862E+04</rscale>
<asrwt>0</asrwt>
<pdfrwt beam="1">  1        1 0.23351988E+00 0.15085862E+04</pdfrwt>
<pdfrwt beam="2">  1       -2 0.57667306E-01 0.15085862E+04</pdfrwt>
<totfact> 0.15184989E+01</totfact>
</mgrwt>
</event>
<event>
12    5  0.5029243E-008  0.1872040E+04  0.7818608E-02  0.8668900E-01
          3   -1    0    0  501    0  0.00000000000E+00  0.00000000000E+00  0.51767501481E+03  0.51767501481E+03  0.00000000000E+00 0. -1.
         -4   -1    0    0    0  501 -0.00000000000E+00 -0.00000000000E+00 -0.16924395951E+04  0.16924395951E+04  0.00000000000E+00 0.  1.
        -24    2    1    2    0    0 -0.58113968279E+03 -0.58527033603E+02 -0.94053519852E+03  0.11100148022E+04  0.79860233934E+02 0.  0.
        254    2    1    2    0    0  0.58113968279E+03  0.58527033603E+02 -0.23422938175E+03  0.11000998077E+04  0.90233443853E+03 0.  0.
         23    2    4    4    0    0  0.60165596273E+03  0.39455716795E+03 -0.12615772402E+03  0.73497405204E+03  0.81276254670E+02 0.  0.
         23    2    4    4    0    0 -0.20516279940E+02 -0.33603013434E+03 -0.10807165773E+03  0.36512575562E+03  0.91105242905E+02 0.  0.
          1    1    3    3  502    0 -0.86173465339E+02  0.14083509359E+02 -0.10988019135E+03  0.14034909268E+03  0.00000000000E+00 0. -1.
         -2    1    3    3    0  502 -0.49496621745E+03 -0.72610542962E+02 -0.83065500717E+03  0.96966570956E+03  0.00000000000E+00 0.  1.
         13    1    5    5    0    0  0.52738583090E+02  0.12439374836E+02 -0.20102919918E+02  0.57794667417E+02  0.00000000000E+00 0. -1.
        -13    1    5    5    0    0  0.54891737964E+03  0.38211779311E+03 -0.10605480410E+03  0.67717938462E+03  0.00000000000E+00 0.  1.
          3    1    6    6  503    0  0.28019835962E+02 -0.47253593003E+02 -0.27396755656E+02  0.61388887264E+02  0.00000000000E+00 0. -1.
         -3    1    6    6    0  503 -0.48536115902E+02 -0.28877654134E+03 -0.80674902074E+02  0.30373686836E+03  0.00000000000E+00 0.  1.
<mgrwt>
<rscale>  0 0.18720403E+04</rscale>
<asrwt>0</asrwt>
<pdfrwt beam="1">  1        3 0.79642308E-01 0.18720403E+04</pdfrwt>
<pdfrwt beam="2">  1       -4 0.26037533E+00 0.18720403E+04</pdfrwt>
<totfact> 0.17171890E-01</totfact>
</mgrwt>
</event>
<event>
12    5  0.5029243E-008  0.1198355E+04  0.7818608E-02  0.9114297E-01
          1   -1    0    0  501    0  0.00000000000E+00  0.00000000000E+00  0.15553665052E+04  0.15553665052E+04  0.00000000000E+00 0. -1.
         -2   -1    0    0    0  501 -0.00000000000E+00 -0.00000000000E+00 -0.23082267975E+03  0.23082267975E+03  0.00000000000E+00 0.  1.
        -24    2    1    2    0    0  0.97774834763E+02  0.23709793974E+03  0.28594712264E+03  0.39226113119E+03  0.79546758290E+02 0.  0.
        254    2    1    2    0    0 -0.97774834763E+02 -0.23709793974E+03  0.10385967028E+04  0.13939280538E+04  0.89363133150E+03 0.  0.
         23    2    4    4    0    0 -0.12964462090E+03 -0.42833687651E+03  0.15032634097E+03  0.48125075638E+03  0.93402752757E+02 0.  0.
         23    2    4    4    0    0  0.31869786132E+02  0.19123893677E+03  0.88827036187E+03  0.91267729740E+03  0.79797238074E+02 0.  0.
          3    1    3    3  502    0  0.40247755402E+02  0.43217220617E+02  0.10703055235E+03  0.12224217402E+03  0.00000000000E+00 0. -1.
         -4    1    3    3    0  502  0.57527079362E+02  0.19388071912E+03  0.17891657030E+03  0.27001895718E+03  0.00000000000E+00 0.  1.
         13    1    5    5    0    0 -0.13789272315E+02 -0.18596019553E+03  0.84139962161E+02  0.20457485570E+03  0.00000000000E+00 0.  1.
        -13    1    5    5    0    0 -0.11585534858E+03 -0.24237668098E+03  0.66186378807E+02  0.27667590068E+03  0.00000000000E+00 0. -1.
          1    1    6    6  503    0  0.43144845538E+02  0.18912718119E+03  0.77831460134E+03  0.80212479517E+03  0.00000000000E+00 0. -1.
         -1    1    6    6    0  503 -0.11275059407E+02  0.21117555853E+01  0.10995576053E+03  0.11055250223E+03  0.00000000000E+00 0.  1.
<mgrwt>
<rscale>  0 0.11983553E+04</rscale>
<asrwt>0</asrwt>
<pdfrwt beam="1">  1        1 0.23928715E+00 0.11983553E+04</pdfrwt>
<pdfrwt beam="2">  1       -2 0.35511182E-01 0.11983553E+04</pdfrwt>
<totfact> 0.38761286E+01</totfact>
</mgrwt>
</event>
<event>
12    5  0.5029243E-008  0.1494926E+04  0.7818608E-02  0.8887834E-01
          1   -1    0    0  501    0  0.00000000000E+00  0.00000000000E+00  0.10789737625E+04  0.10789737625E+04  0.00000000000E+00 0. -1.
         -2   -1    0    0    0  501 -0.00000000000E+00 -0.00000000000E+00 -0.51780744684E+03  0.51780744684E+03  0.00000000000E+00 0.  1.
        -24    2    1    2    0    0 -0.44516986066E+02  0.10167149677E+01 -0.33056083696E+03  0.34278926111E+03  0.79064624471E+02 0.  0.
        254    2    1    2    0    0  0.44516986066E+02 -0.10167149677E+01  0.89172715267E+03  0.12539919483E+04  0.88053148483E+03 0.  0.
         23    2    4    4    0    0  0.64492923458E+02  0.24727902550E+03  0.94608121882E+03  0.98435760425E+03  0.92649699515E+02 0.  0.
         23    2    4    4    0    0 -0.19975937392E+02 -0.24829574046E+03 -0.54354066152E+02  0.26963434402E+03  0.87741108729E+02 0.  0.
          3    1    3    3  502    0 -0.43688701765E+02  0.48012838071E+01 -0.73075315944E+02  0.85274596384E+02  0.00000000000E+00 0. -1.
         -4    1    3    3    0  502 -0.82828430172E+00 -0.37845688394E+01 -0.25748552101E+03  0.25751466473E+03  0.00000000000E+00 0.  1.
         13    1    5    5    0    0  0.58568886683E+02  0.82055996963E+02  0.26585369229E+03  0.28432672549E+03  0.00000000000E+00 0.  1.
        -13    1    5    5    0    0  0.59240367751E+01  0.16522302853E+03  0.68022752653E+03  0.70003087876E+03  0.00000000000E+00 0. -1.
          4    1    6    6  503    0 -0.19777154836E+02 -0.17265489499E+03 -0.77855112590E+02  0.19042654010E+03  0.00000000000E+00 0. -1.
         -4    1    6    6    0  503 -0.19878255593E+00 -0.75640845476E+02  0.23501046438E+02  0.79207803924E+02  0.00000000000E+00 0.  1.
<mgrwt>
<rscale>  0 0.14949256E+04</rscale>
<asrwt>0</asrwt>
<pdfrwt beam="1">  1        1 0.16599596E+00 0.14949256E+04</pdfrwt>
<pdfrwt beam="2">  1       -2 0.79662684E-01 0.14949256E+04</pdfrwt>
<totfact> 0.15574596E+01</totfact>
</mgrwt>
</event>
<event>
12    5  0.5029243E-008  0.2365302E+04  0.7818608E-02  0.8452609E-01
         -2   -1    0    0    0  501 -0.00000000000E+00  0.00000000000E+00  0.96365255009E+03  0.96365255009E+03  0.00000000000E+00 0.  1.
          1   -1    0    0  501    0  0.00000000000E+00 -0.00000000000E+00 -0.14514187463E+04  0.14514187463E+04  0.00000000000E+00 0. -1.
        -24    2    1    2    0    0 -0.26614709717E+03  0.95653301500E+03 -0.12387635723E+03  0.10043108400E+04  0.86632703772E+02 0.  0.
        254    2    1    2    0    0  0.26614709717E+03 -0.95653301500E+03 -0.36388983897E+03  0.14107604564E+04  0.93383058648E+03 0.  0.
         23    2    4    4    0    0  0.26906390840E+03  0.84513229270E+02  0.20737136345E+02  0.29693429969E+03  0.90565317781E+02 0.  0.
         23    2    4    4    0    0 -0.29168112297E+01 -0.10410462443E+04 -0.38462697532E+03  0.11138261567E+04  0.94260313353E+02 0.  0.
          3    1    3    3  502    0 -0.28597591553E+02  0.23209453347E+03 -0.17035681014E+02  0.23446942047E+03  0.00000000000E+00 0. -1.
         -4    1    3    3    0  502 -0.23754950561E+03  0.72443848153E+03 -0.10684067621E+03  0.76984141954E+03  0.00000000000E+00 0.  1.
         13    1    5    5    0    0  0.22608584523E+02  0.73799636570E+01 -0.25184879031E+02  0.34639429694E+02  0.00000000000E+00 0. -1.
        -13    1    5    5    0    0  0.24645532387E+03  0.77133265613E+02  0.45922015375E+02  0.26229486999E+03  0.00000000000E+00 0.  1.
          4    1    6    6  503    0 -0.12641109259E+02 -0.29895049119E+03 -0.15483991409E+03  0.33690739502E+03  0.00000000000E+00 0.  1.
         -4    1    6    6    0  503  0.97242980294E+01 -0.74209575308E+03 -0.22978706123E+03  0.77691876166E+03  0.00000000000E+00 0. -1.
<mgrwt>
<rscale>  0 0.23653020E+04</rscale>
<asrwt>0</asrwt>
<pdfrwt beam="1">  1        1 0.22329519E+00 0.23653020E+04</pdfrwt>
<pdfrwt beam="2">  1       -2 0.14825424E+00 0.23653020E+04</pdfrwt>
<totfact> 0.17245282E+00</totfact>
</mgrwt>
</event>
<event>
12    5  0.5029243E-008  0.1544954E+04  0.7818608E-02  0.8855097E-01
         -4   -1    0    0    0  501 -0.00000000000E+00  0.00000000000E+00  0.11506573045E+04  0.11506573045E+04  0.00000000000E+00 0.  1.
          3   -1    0    0  501    0  0.00000000000E+00 -0.00000000000E+00 -0.51859128122E+03  0.51859128122E+03  0.00000000000E+00 0. -1.
        -24    2    1    2    0    0 -0.21134672140E+02 -0.12434816445E+02 -0.32617618241E+03  0.33681524951E+03  0.80326280278E+02 0.  0.
        254    2    1    2    0    0  0.21134672140E+02  0.12434816445E+02  0.95824220570E+03  0.13324333362E+04  0.92549941741E+03 0.  0.
         23    2    4    4    0    0  0.17304297111E+03 -0.57401489969E+02 -0.12086520132E+03  0.23637133084E+03  0.89577945097E+02 0.  0.
         23    2    4    4    0    0 -0.15190829897E+03  0.69836306414E+02  0.10791074070E+04  0.10960620054E+04  0.94476889912E+02 0.  0.
          1    1    3    3  502    0  0.29008997653E+02 -0.73711278845E+01 -0.17273962101E+03  0.17531352525E+03  0.00000000000E+00 0. -1.
         -2    1    3    3    0  502 -0.50143669793E+02 -0.50636885603E+01 -0.15343656141E+03  0.16150172426E+03  0.00000000000E+00 0.  1.
         13    1    5    5    0    0 -0.10812496337E+02 -0.12051072817E+01 -0.62732950076E+01  0.12558526619E+02  0.00000000000E+00 0. -1.
        -13    1    5    5    0    0  0.18385546745E+03 -0.56196382687E+02 -0.11459190632E+03  0.22381280422E+03  0.00000000000E+00 0.  1.
          3    1    6    6  503    0 -0.79084094286E+01  0.44220065223E+02  0.21217008132E+03  0.21687346660E+03  0.00000000000E+00 0. -1.
         -3    1    6    6    0  503 -0.14399988954E+03  0.25616241190E+02  0.86693732571E+03  0.87918853877E+03  0.00000000000E+00 0.  1.
<mgrwt>
<rscale>  0 0.15449542E+04</rscale>
<asrwt>0</asrwt>
<pdfrwt beam="1">  1        3 0.79783275E-01 0.15449542E+04</pdfrwt>
<pdfrwt beam="2">  1       -4 0.17702420E+00 0.15449542E+04</pdfrwt>
<totfact> 0.60806648E-01</totfact>
</mgrwt>
</event>
<event>
12    5  0.5029243E-008  0.2210515E+04  0.7818608E-02  0.8514064E-01
          1   -1    0    0  501    0  0.00000000000E+00  0.00000000000E+00  0.29850080081E+04  0.29850080081E+04  0.00000000000E+00 0. -1.
         -2   -1    0    0    0  501 -0.00000000000E+00 -0.00000000000E+00 -0.40924308566E+03  0.40924308566E+03  0.00000000000E+00 0.  1.
        -24    2    1    2    0    0  0.79039939770E+03 -0.48659355821E+03  0.12272418294E+04  0.15408054163E+04  0.80338809007E+02 0.  0.
        254    2    1    2    0    0 -0.79039939770E+03  0.48659355821E+03  0.13485230930E+04  0.18534456775E+04  0.86904651665E+03 0.  0.
         23    2    4    4    0    0 -0.21048683905E+03  0.11390684066E+03  0.10766455553E+04  0.11066831913E+04  0.91118365249E+02 0.  0.
         23    2    4    4    0    0 -0.57991255864E+03  0.37268671755E+03  0.27187753772E+03  0.74676248612E+03  0.92427539425E+02 0.  0.
          1    1    3    3  502    0  0.59177772879E+03 -0.33010014375E+03  0.85883733541E+03  0.10939691741E+04  0.00000000000E+00 0. -1.
         -2    1    3    3    0  502  0.19862166891E+03 -0.15649341446E+03  0.36840449399E+03  0.44683624217E+03  0.00000000000E+00 0.  1.
         13    1    5    5    0    0 -0.47896606996E+02  0.15366446482E+02  0.10272590380E+03  0.11438017289E+03  0.00000000000E+00 0. -1.
        -13    1    5    5    0    0 -0.16259023206E+03  0.98540394180E+02  0.97391965151E+03  0.99230301845E+03  0.00000000000E+00 0.  1.
          3    1    6    6  503    0 -0.33807320294E+03  0.24681661272E+03  0.20479325463E+03  0.46599593132E+03  0.00000000000E+00 0. -1.
         -3    1    6    6    0  503 -0.24183935570E+03  0.12587010482E+03  0.67084283090E+02  0.28076655480E+03  0.00000000000E+00 0.  1.
<mgrwt>
<rscale>  0 0.22105148E+04</rscale>
<asrwt>0</asrwt>
<pdfrwt beam="1">  1        1 0.45923199E+00 0.22105148E+04</pdfrwt>
<pdfrwt beam="2">  1       -2 0.62960477E-01 0.22105148E+04</pdfrwt>
<totfact> 0.11481042E+00</totfact>
</mgrwt>
</event>
<event>
12    5  0.5029243E-008  0.1779775E+04  0.7818608E-02  0.8717129E-01
         -2   -1    0    0    0  501 -0.00000000000E+00  0.00000000000E+00  0.48829599182E+03  0.48829599182E+03  0.00000000000E+00 0.  1.
          1   -1    0    0  501    0  0.00000000000E+00 -0.00000000000E+00 -0.16217624569E+04  0.16217624569E+04  0.00000000000E+00 0. -1.
        -24    2    1    2    0    0 -0.28088576567E+03 -0.16413286901E+03  0.25662807216E+03  0.42304616882E+03  0.85285880913E+02 0.  0.
        254    2    1    2    0    0  0.28088576567E+03  0.16413286901E+03 -0.13900945373E+04  0.16870122799E+04  0.89878317631E+03 0.  0.
         23    2    4    4    0    0  0.45512563910E+03  0.26839739254E+03 -0.13610357031E+04  0.14628324082E+04  0.91016270617E+02 0.  0.
         23    2    4    4    0    0 -0.17423987342E+03 -0.10426452353E+03 -0.29058834124E+02  0.22417987174E+03  0.90452057435E+02 0.  0.
          1    1    3    3  502    0 -0.13024295991E+03 -0.10950149360E+03  0.17151675835E+03  0.24160257470E+03  0.00000000000E+00 0. -1.
         -2    1    3    3    0  502 -0.15064280576E+03 -0.54631375405E+02  0.85111313811E+02  0.18144359412E+03  0.00000000000E+00 0.  1.
         13    1    5    5    0    0  0.75843343150E+02  0.10826702765E+02 -0.22919173531E+03  0.24165736431E+03  0.00000000000E+00 0. -1.
        -13    1    5    5    0    0  0.37928229595E+03  0.25757068977E+03 -0.11318439678E+04  0.12211750439E+04  0.00000000000E+00 0.  1.
          2    1    6    6  503    0 -0.96326234388E+01  0.15479623777E+02 -0.66036730488E+01  0.19391098069E+02  0.00000000000E+00 0. -1.
         -2    1    6    6    0  503 -0.16460724998E+03 -0.11974414731E+03 -0.22455161075E+02  0.20478877367E+03  0.00000000000E+00 0.  1.
<mgrwt>
<rscale>  0 0.17797754E+04</rscale>
<asrwt>0</asrwt>
<pdfrwt beam="1">  1        1 0.24950192E+00 0.17797754E+04</pdfrwt>
<pdfrwt beam="2">  1       -2 0.75122461E-01 0.17797754E+04</pdfrwt>
<totfact> 0.71163458E+00</totfact>
</mgrwt>
</event>
<event>
12    5  0.5029243E-008  0.1672912E+04  0.7818608E-02  0.8776966E-01
          1   -1    0    0  501    0  0.00000000000E+00  0.00000000000E+00  0.30673351570E+03  0.30673351570E+03  0.00000000000E+00 0. -1.
         -2   -1    0    0    0  501 -0.00000000000E+00 -0.00000000000E+00 -0.22809990519E+04  0.22809990519E+04  0.00000000000E+00 0.  1.
        -24    2    1    2    0    0  0.13347366522E+03  0.33618368149E+03  0.21082165192E+02  0.37098921655E+03  0.79711066309E+02 0.  0.
        254    2    1    2    0    0 -0.13347366522E+03 -0.33618368149E+03 -0.19953477014E+04  0.22167433511E+04  0.89537922020E+03 0.  0.
         23    2    4    4    0    0  0.31680308546E+02 -0.61341796813E+03 -0.11429136757E+04  0.13006911144E+04  0.90887069515E+02 0.  0.
         23    2    4    4    0    0 -0.16515397377E+03  0.27723428663E+03 -0.85243402569E+03  0.91605223665E+03  0.91505450017E+02 0.  0.
          3    1    3    3  502    0  0.61940273211E+02  0.11238751832E+03  0.42212279416E+02  0.13509044472E+03  0.00000000000E+00 0. -1.
         -4    1    3    3    0  502  0.71533392013E+02  0.22379616317E+03 -0.21130114224E+02  0.23589877183E+03  0.00000000000E+00 0.  1.
         13    1    5    5    0    0  0.43198123118E+02 -0.36692821598E+03 -0.76184040106E+03  0.84670135834E+03  0.00000000000E+00 0. -1.
        -13    1    5    5    0    0 -0.11517814572E+02 -0.24648975214E+03 -0.38107327467E+03  0.45398975609E+03  0.00000000000E+00 0.  1.
          2    1    6    6  503    0 -0.15548776973E+03  0.24508249923E+03 -0.66419500007E+03  0.72484265609E+03  0.00000000000E+00 0. -1.
         -2    1    6    6    0  503 -0.96662040412E+01  0.32151787405E+02 -0.18823902562E+03  0.19120958056E+03  0.00000000000E+00 0.  1.
<mgrwt>
<rscale>  0 0.16729123E+04</rscale>
<asrwt>0</asrwt>
<pdfrwt beam="1">  1        1 0.47189772E-01 0.16729123E+04</pdfrwt>
<pdfrwt beam="2">  1       -2 0.35092293E+00 0.16729123E+04</pdfrwt>
<totfact> 0.10949282E+00</totfact>
</mgrwt>
</event>
<event>
12    5  0.5029243E-008  0.1437245E+04  0.7818608E-02  0.8927291E-01
          3   -1    0    0  501    0  0.00000000000E+00  0.00000000000E+00  0.42279936735E+03  0.42279936735E+03  0.00000000000E+00 0. -1.
         -4   -1    0    0    0  501 -0.00000000000E+00 -0.00000000000E+00 -0.12214261499E+04  0.12214261499E+04  0.00000000000E+00 0.  1.
        -24    2    1    2    0    0 -0.14187718908E+03  0.12660404576E+03  0.19900078726E+03  0.28655208341E+03  0.79706097594E+02 0.  0.
        254    2    1    2    0    0  0.14187718908E+03 -0.12660404576E+03 -0.99762756986E+03  0.13576734339E+04  0.90103199929E+03 0.  0.
         23    2    4    4    0    0 -0.52307342019E+02 -0.48117578572E+03 -0.65754905113E+03  0.82149745201E+03  0.90670360200E+02 0.  0.
         23    2    4    4    0    0  0.19418453110E+03  0.35457173996E+03 -0.34007851872E+03  0.53617598187E+03  0.91665335542E+02 0.  0.
          3    1    3    3  502    0 -0.11052200784E+03  0.13032784491E+03  0.14552712624E+03  0.22445178959E+03  0.00000000000E+00 0. -1.
         -4    1    3    3    0  502 -0.31355181238E+02 -0.37237991492E+01  0.53473661017E+02  0.62100293825E+02  0.00000000000E+00 0.  1.
         13    1    5    5    0    0 -0.20581927699E+01 -0.13103370974E+01  0.27659769199E+01  0.36883287690E+01  0.00000000000E+00 0.  1.
        -13    1    5    5    0    0 -0.50249149249E+02 -0.47986544863E+03 -0.66031502805E+03  0.81780912324E+03  0.00000000000E+00 0. -1.
          3    1    6    6  503    0  0.18969215144E+03  0.30399407962E+03 -0.32353080438E+03  0.48277085056E+03  0.00000000000E+00 0. -1.
         -3    1    6    6    0  503  0.44923796557E+01  0.50577660341E+02 -0.16547714338E+02  0.53405131311E+02  0.00000000000E+00 0.  1.
<mgrwt>
<rscale>  0 0.14372449E+04</rscale>
<asrwt>0</asrwt>
<pdfrwt beam="1">  1        3 0.65046059E-01 0.14372449E+04</pdfrwt>
<pdfrwt beam="2">  1       -4 0.18791171E+00 0.14372449E+04</pdfrwt>
<totfact> 0.80528551E-01</totfact>
</mgrwt>
</event>
<event>
12    5  0.5029243E-008  0.1269094E+04  0.7818608E-02  0.9054440E-01
          1   -1    0    0  501    0  0.00000000000E+00  0.00000000000E+00  0.13174595682E+04  0.13174595682E+04  0.00000000000E+00 0. -1.
         -2   -1    0    0    0  501 -0.00000000000E+00 -0.00000000000E+00 -0.30562583389E+03  0.30562583389E+03  0.00000000000E+00 0.  1.
        -24    2    1    2    0    0 -0.12269919179E+03 -0.19467280559E+03 -0.90766157573E+01  0.24184911761E+03  0.73864861947E+02 0.  0.
        254    2    1    2    0    0  0.12269919179E+03  0.19467280559E+03  0.10209103500E+04  0.13812362845E+04  0.90144502759E+03 0.  0.
         23    2    4    4    0    0 -0.82959600985E+02  0.21412042696E+03 -0.78107001869E+02  0.25896588166E+03  0.90734621225E+02 0.  0.
         23    2    4    4    0    0  0.20565879278E+03 -0.19447621364E+02  0.10990173519E+04  0.11222704028E+04  0.94752140580E+02 0.  0.
          1    1    3    3  502    0 -0.34293130132E+02 -0.34243950063E+02  0.26524149152E+02  0.55246695633E+02  0.00000000000E+00 0. -1.
         -2    1    3    3    0  502 -0.88406061660E+02 -0.16042885553E+03 -0.35600764909E+02  0.18660242198E+03  0.00000000000E+00 0.  1.
         13    1    5    5    0    0  0.15856616175E+02  0.44138016437E+02 -0.32695933427E+02  0.57171853513E+02  0.00000000000E+00 0. -1.
        -13    1    5    5    0    0 -0.98816217160E+02  0.16998241052E+03 -0.45411068442E+02  0.20179402815E+03  0.00000000000E+00 0.  1.
          3    1    6    6  503    0  0.80236956250E+01 -0.31397588044E+01  0.25974458848E+03  0.25988745452E+03  0.00000000000E+00 0. -1.
         -3    1    6    6    0  503  0.19763509715E+03 -0.16307862559E+02  0.83927276344E+03  0.86238294827E+03  0.00000000000E+00 0.  1.
<mgrwt>
<rscale>  0 0.12690937E+04</rscale>
<asrwt>0</asrwt>
<pdfrwt beam="1">  1        1 0.20268608E+00 0.12690937E+04</pdfrwt>
<pdfrwt beam="2">  1       -2 0.47019360E-01 0.12690937E+04</pdfrwt>
<totfact> 0.32549522E+01</totfact>
</mgrwt>
</event>
<event>
12    5  0.5029243E-008  0.2199776E+04  0.7818608E-02  0.8518522E-01
          1   -1    0    0  501    0  0.00000000000E+00  0.00000000000E+00  0.64941098074E+03  0.64941098074E+03  0.00000000000E+00 0. -1.
         -2   -1    0    0    0  501 -0.00000000000E+00 -0.00000000000E+00 -0.18628467725E+04  0.18628467725E+04  0.00000000000E+00 0.  1.
        -24    2    1    2    0    0  0.79655629922E+03 -0.23544479059E+03 -0.77091167705E+02  0.83802252299E+03  0.80015708809E+02 0.  0.
        254    2    1    2    0    0 -0.79655629922E+03  0.23544479059E+03 -0.11363446240E+04  0.16742352302E+04  0.90655850023E+03 0.  0.
         23    2    4    4    0    0  0.23402536364E+02  0.26733860335E+03 -0.20394970498E+02  0.28593740877E+03  0.96574527518E+02 0.  0.
         23    2    4    4    0    0 -0.81995883558E+03 -0.31893812762E+02 -0.11159496535E+04  0.13882978215E+04  0.93153123925E+02 0.  0.
          1    1    3    3  502    0  0.14702895555E+03 -0.52146825038E+02  0.15646554887E+02  0.15678526657E+03  0.00000000000E+00 0. -1.
         -2    1    3    3    0  502  0.64952734367E+03 -0.18329796555E+03 -0.92737722592E+02  0.68123725642E+03  0.00000000000E+00 0.  1.
         13    1    5    5    0    0  0.60560421860E+02  0.15777660430E+03 -0.20556858521E+02  0.17024572239E+03  0.00000000000E+00 0. -1.
        -13    1    5    5    0    0 -0.37157885496E+02  0.10956199905E+03  0.16188802246E+00  0.11569168638E+03  0.00000000000E+00 0.  1.
          1    1    6    6  503    0 -0.14638150230E+03 -0.12743343316E+02 -0.26326037938E+03  0.30148957588E+03  0.00000000000E+00 0. -1.
         -1    1    6    6    0  503 -0.67357733328E+03 -0.19150469446E+02 -0.85268927415E+03  0.10868082456E+04  0.00000000000E+00 0.  1.
<mgrwt>
<rscale>  0 0.21997756E+04</rscale>
<asrwt>0</asrwt>
<pdfrwt beam="1">  1        1 0.99909384E-01 0.21997756E+04</pdfrwt>
<pdfrwt beam="2">  1       -2 0.28659180E+00 0.21997756E+04</pdfrwt>
<totfact> 0.93543028E-01</totfact>
</mgrwt>
</event>
<event>
12    5  0.5029243E-008  0.1946819E+04  0.7818608E-02  0.8631896E-01
          1   -1    0    0  501    0  0.00000000000E+00  0.00000000000E+00  0.17152094612E+04  0.17152094612E+04  0.00000000000E+00 0. -1.
         -2   -1    0    0    0  501 -0.00000000000E+00 -0.00000000000E+00 -0.55242589722E+03  0.55242589722E+03  0.00000000000E+00 0.  1.
        -24    2    1    2    0    0  0.27214719737E+03  0.44514589697E+02 -0.37182113789E+03  0.46993662834E+03  0.80893945037E+02 0.  0.
        254    2    1    2    0    0 -0.27214719737E+03 -0.44514589697E+02  0.15346047019E+04  0.17976987301E+04  0.89479801487E+03 0.  0.
         23    2    4    4    0    0 -0.51164635615E+03 -0.59486794105E+02  0.14282864153E+04  0.15210676096E+04  0.91235498373E+02 0.  0.
         23    2    4    4    0    0  0.23949915878E+03  0.14972204408E+02  0.10631828653E+03  0.27663112053E+03  0.87390988294E+02 0.  0.
          1    1    3    3  502    0  0.83545479258E+02  0.27225421575E+02 -0.18037295720E+03  0.20063766938E+03  0.00000000000E+00 0. -1.
         -2    1    3    3    0  502  0.18860171812E+03  0.17289168122E+02 -0.19144818069E+03  0.26929895896E+03  0.00000000000E+00 0.  1.
         13    1    5    5    0    0 -0.61641287379E+02  0.16339844084E+02  0.23494321645E+03  0.24344394379E+03  0.00000000000E+00 0. -1.
        -13    1    5    5    0    0 -0.45000506877E+03 -0.75826638189E+02  0.11933431989E+04  0.12776236658E+04  0.00000000000E+00 0.  1.
          1    1    6    6  503    0  0.19600695254E+03  0.80142963144E+00  0.46715343442E+02  0.20149861301E+03  0.00000000000E+00 0. -1.
         -1    1    6    6    0  503  0.43492206237E+02  0.14170774777E+02  0.59602943084E+02  0.75132507515E+02  0.00000000000E+00 0.  1.
<mgrwt>
<rscale>  0 0.19468191E+04</rscale>
<asrwt>0</asrwt>
<pdfrwt beam="1">  1        1 0.26387838E+00 0.19468191E+04</pdfrwt>
<pdfrwt beam="2">  1       -2 0.84988600E-01 0.19468191E+04</pdfrwt>
<totfact> 0.45884776E+00</totfact>
</mgrwt>
</event>
<event>
12    5  0.5029243E-008  0.1441172E+04  0.7818608E-02  0.8924543E-01
          1   -1    0    0  501    0  0.00000000000E+00  0.00000000000E+00  0.11629172499E+04  0.11629172499E+04  0.00000000000E+00 0. -1.
         -2   -1    0    0    0  501 -0.00000000000E+00 -0.00000000000E+00 -0.44650166419E+03  0.44650166419E+03  0.00000000000E+00 0.  1.
        -24    2    1    2    0    0 -0.15564139005E+03  0.23603166533E+02 -0.23045477657E+03  0.29014092384E+03  0.79315823613E+02 0.  0.
        254    2    1    2    0    0  0.15564139005E+03 -0.23603166533E+02  0.94687036229E+03  0.13192779903E+04  0.90506882658E+03 0.  0.
         23    2    4    4    0    0  0.43725010108E+03  0.23996619177E+03  0.64656495570E+03  0.82211387856E+03  0.95150214336E+02 0.  0.
         23    2    4    4    0    0 -0.28160871103E+03 -0.26356935830E+03  0.30030540658E+03  0.49716411170E+03  0.90645154202E+02 0.  0.
          3    1    3    3  502    0 -0.37560015465E+01 -0.45997210831E+01  0.55130476172E+01  0.81030041151E+01  0.00000000000E+00 0. -1.
         -4    1    3    3    0  502 -0.15188538850E+03  0.28202887616E+02 -0.23596782419E+03  0.28203791973E+03  0.00000000000E+00 0.  1.
         13    1    5    5    0    0  0.39735914472E+03  0.19605378189E+03  0.52609203528E+03  0.68782570821E+03  0.00000000000E+00 0.  1.
        -13    1    5    5    0    0  0.39890956355E+02  0.43912409882E+02  0.12047292042E+03  0.13428817035E+03  0.00000000000E+00 0. -1.
          2    1    6    6  503    0 -0.69279366980E+02 -0.11201866473E+03  0.69873390021E+02  0.14909762765E+03  0.00000000000E+00 0. -1.
         -2    1    6    6    0  503 -0.21232934405E+03 -0.15155069357E+03  0.23043201656E+03  0.34806648406E+03  0.00000000000E+00 0.  1.
<mgrwt>
<rscale>  0 0.14411724E+04</rscale>
<asrwt>0</asrwt>
<pdfrwt beam="1">  1        1 0.17891034E+00 0.14411724E+04</pdfrwt>
<pdfrwt beam="2">  1       -2 0.68692564E-01 0.14411724E+04</pdfrwt>
<totfact> 0.18786680E+01</totfact>
</mgrwt>
</event>
<event>
12    5  0.5029243E-008  0.2563292E+04  0.7818608E-02  0.8380778E-01
         -2   -1    0    0    0  501 -0.00000000000E+00  0.00000000000E+00  0.73453318516E+03  0.73453318516E+03  0.00000000000E+00 0.  1.
          1   -1    0    0  501    0  0.00000000000E+00 -0.00000000000E+00 -0.22362735047E+04  0.22362735047E+04  0.00000000000E+00 0. -1.
        -24    2    1    2    0    0 -0.18569742427E+03 -0.35126924192E+03  0.55801647154E+03  0.68922956831E+03  0.76035528676E+02 0.  0.
        254    2    1    2    0    0  0.18569742427E+03  0.35126924192E+03 -0.20597567911E+04  0.22815771215E+04  0.89728619152E+03 0.  0.
         23    2    4    4    0    0  0.50414241489E+03  0.39363049149E+03 -0.13245406903E+04  0.14737506069E+04  0.91805625772E+02 0.  0.
         23    2    4    4    0    0 -0.31844499062E+03 -0.42361249576E+02 -0.73521610080E+03  0.80782651462E+03  0.94017420283E+02 0.  0.
          3    1    3    3  502    0 -0.85156394417E+02 -0.10506119959E+03  0.23155060345E+03  0.26815135488E+03  0.00000000000E+00 0. -1.
         -4    1    3    3    0  502 -0.10054102985E+03 -0.24620804232E+03  0.32646586810E+03  0.42107821342E+03  0.00000000000E+00 0.  1.
         13    1    5    5    0    0  0.41445883734E+03  0.27571352586E+03 -0.10039099450E+04  0.11205486397E+04  0.00000000000E+00 0.  1.
        -13    1    5    5    0    0  0.89683577552E+02  0.11791696564E+03 -0.32063074523E+03  0.35320196723E+03  0.00000000000E+00 0. -1.
          1    1    6    6  503    0 -0.71741183628E+02 -0.47019736725E+02 -0.23252794686E+03  0.24784450597E+03  0.00000000000E+00 0. -1.
         -1    1    6    6    0  503 -0.24670380699E+03  0.46584871486E+01 -0.50268815394E+03  0.55998200864E+03  0.00000000000E+00 0.  1.
<mgrwt>
<rscale>  0 0.25632925E+04</rscale>
<asrwt>0</asrwt>
<pdfrwt beam="1">  1        1 0.34404207E+00 0.25632925E+04</pdfrwt>
<pdfrwt beam="2">  1       -2 0.11300511E+00 0.25632925E+04</pdfrwt>
<totfact> 0.98334170E-01</totfact>
</mgrwt>
</event>
<event>
12    5  0.5029243E-008  0.1270488E+04  0.7818608E-02  0.9053301E-01
          1   -1    0    0  501    0  0.00000000000E+00  0.00000000000E+00  0.51591397478E+03  0.51591397478E+03  0.00000000000E+00 0. -1.
         -2   -1    0    0    0  501 -0.00000000000E+00 -0.00000000000E+00 -0.78217495754E+03  0.78217495754E+03  0.00000000000E+00 0.  1.
        -24    2    1    2    0    0  0.30625505559E+02  0.17244975781E+03 -0.36070087641E+03  0.40857255280E+03  0.78419181922E+02 0.  0.
        254    2    1    2    0    0 -0.30625505559E+02 -0.17244975781E+03  0.94439893648E+02  0.88951637953E+03  0.86697384930E+03 0.  0.
         23    2    4    4    0    0 -0.43016151293E+02 -0.13102875267E+03  0.47077286299E+03  0.49824422172E+03  0.87185392465E+02 0.  0.
         23    2    4    4    0    0  0.12390645735E+02 -0.41421005142E+02 -0.37633296934E+03  0.39127215780E+03  0.97970250046E+02 0.  0.
          3    1    3    3  502    0 -0.20846763140E+02  0.76770130565E+02 -0.11404353694E+03  0.13904736171E+03  0.00000000000E+00 0. -1.
         -4    1    3    3    0  502  0.51472268698E+02  0.95679627247E+02 -0.24665733947E+03  0.26952519108E+03  0.00000000000E+00 0.  1.
         13    1    5    5    0    0 -0.12004186150E+02 -0.44931793293E+02  0.30816305998E+03  0.31165275239E+03  0.00000000000E+00 0.  1.
        -13    1    5    5    0    0 -0.31011965144E+02 -0.86096959377E+02  0.16260980300E+03  0.18659146934E+03  0.00000000000E+00 0. -1.
          3    1    6    6  503    0 -0.26499906346E+02 -0.10441428486E+02 -0.29190322988E+03  0.29328955672E+03  0.00000000000E+00 0. -1.
         -3    1    6    6    0  503  0.38890552081E+02 -0.30979576656E+02 -0.84429739457E+02  0.97982601087E+02  0.00000000000E+00 0.  1.
<mgrwt>
<rscale>  0 0.12704881E+04</rscale>
<asrwt>0</asrwt>
<pdfrwt beam="1">  1        1 0.79371381E-01 0.12704881E+04</pdfrwt>
<pdfrwt beam="2">  1       -2 0.12033461E+00 0.12704881E+04</pdfrwt>
<totfact> 0.19265254E+01</totfact>
</mgrwt>
</event>
<event>
12    5  0.5029243E-008  0.1228962E+04  0.7818608E-02  0.9087877E-01
          1   -1    0    0  501    0  0.00000000000E+00  0.00000000000E+00  0.68756219894E+03  0.68756219894E+03  0.00000000000E+00 0. -1.
         -2   -1    0    0    0  501 -0.00000000000E+00 -0.00000000000E+00 -0.54916772855E+03  0.54916772855E+03  0.00000000000E+00 0.  1.
        -24    2    1    2    0    0  0.31527564890E+02  0.51505786969E+02 -0.18158587977E+03  0.20728095316E+03  0.79656314084E+02 0.  0.
        254    2    1    2    0    0 -0.31527564890E+02 -0.51505786969E+02  0.31998035016E+03  0.10294489743E+04  0.97659148718E+03 0.  0.
         23    2    4    4    0    0 -0.29704602119E+03 -0.12112550330E+03 -0.23197787859E+03  0.40619845085E+03  0.90970979216E+02 0.  0.
         23    2    4    4    0    0  0.26551845630E+03  0.69619716336E+02  0.55195822876E+03  0.62325052348E+03  0.91849731588E+02 0.  0.
          1    1    3    3  502    0 -0.11125344814E+02  0.50282599481E+02 -0.63720141357E+02  0.81929051760E+02  0.00000000000E+00 0. -1.
         -2    1    3    3    0  502  0.42652909704E+02  0.12231874882E+01 -0.11786573841E+03  0.12535190140E+03  0.00000000000E+00 0.  1.
         13    1    5    5    0    0 -0.80802222446E+02 -0.79138082172E+02 -0.75111262281E+02  0.13577016212E+03  0.00000000000E+00 0. -1.
        -13    1    5    5    0    0 -0.21624379875E+03 -0.41987421133E+02 -0.15686661631E+03  0.27042828872E+03  0.00000000000E+00 0.  1.
          3    1    6    6  503    0  0.92986982605E+02  0.68610674918E+02  0.25148934884E+03  0.27676866916E+03  0.00000000000E+00 0. -1.
         -3    1    6    6    0  503  0.17253147370E+03  0.10090414173E+01  0.30046887991E+03  0.34648185433E+03  0.00000000000E+00 0.  1.
<mgrwt>
<rscale>  0 0.12289621E+04</rscale>
<asrwt>0</asrwt>
<pdfrwt beam="1">  1        1 0.10577880E+00 0.12289621E+04</pdfrwt>
<pdfrwt beam="2">  1       -2 0.84487343E-01 0.12289621E+04</pdfrwt>
<totfact> 0.29585690E+01</totfact>
</mgrwt>
</event>
<event>
12    5  0.5029243E-008  0.1923019E+04  0.7818608E-02  0.8643482E-01
          1   -1    0    0  501    0  0.00000000000E+00  0.00000000000E+00  0.72251105296E+03  0.72251105296E+03  0.00000000000E+00 0. -1.
         -2   -1    0    0    0  501 -0.00000000000E+00 -0.00000000000E+00 -0.12795662387E+04  0.12795662387E+04  0.00000000000E+00 0.  1.
        -24    2    1    2    0    0  0.66919878252E+03  0.19510720470E+03  0.75409965656E+02  0.70577503053E+03  0.80857275192E+02 0.  0.
        254    2    1    2    0    0 -0.66919878252E+03 -0.19510720470E+03 -0.63246515144E+03  0.12963022612E+04  0.89134367821E+03 0.  0.
         23    2    4    4    0    0 -0.20598642533E+03  0.18491218650E+03 -0.62560451856E+03  0.69030813780E+03  0.92311360820E+02 0.  0.
         23    2    4    4    0    0 -0.46321235719E+03 -0.38001939121E+03 -0.68606328788E+01  0.60599412337E+03  0.90561491429E+02 0.  0.
          3    1    3    3  502    0  0.34123382509E+03  0.70765012799E+02  0.78492818327E+01  0.34858258942E+03  0.00000000000E+00 0. -1.
         -4    1    3    3    0  502  0.32796495743E+03  0.12434219191E+03  0.67560683823E+02  0.35719244111E+03  0.00000000000E+00 0.  1.
         13    1    5    5    0    0 -0.48003426663E+02  0.10343677208E+03 -0.24683175806E+03  0.27189963512E+03  0.00000000000E+00 0.  1.
        -13    1    5    5    0    0 -0.15798299867E+03  0.81475414424E+02 -0.37877276050E+03  0.41840850268E+03  0.00000000000E+00 0. -1.
          3    1    6    6  503    0 -0.16372672418E+03 -0.96569746083E+02  0.28147395566E+02  0.19215731042E+03  0.00000000000E+00 0. -1.
         -3    1    6    6    0  503 -0.29948563300E+03 -0.28344964512E+03 -0.35008028445E+02  0.41383681295E+03  0.00000000000E+00 0.  1.
<mgrwt>
<rscale>  0 0.19230192E+04</rscale>
<asrwt>0</asrwt>
<pdfrwt beam="1">  1        1 0.11115555E+00 0.19230192E+04</pdfrwt>
<pdfrwt beam="2">  1       -2 0.19685634E+00 0.19230192E+04</pdfrwt>
<totfact> 0.29596536E+00</totfact>
</mgrwt>
</event>
<event>
12    5  0.5029243E-008  0.1106054E+04  0.7818608E-02  0.9199311E-01
         -2   -1    0    0    0  501 -0.00000000000E+00  0.00000000000E+00  0.49636486592E+03  0.49636486592E+03  0.00000000000E+00 0.  1.
          1   -1    0    0  501    0  0.00000000000E+00 -0.00000000000E+00 -0.61615787111E+03  0.61615787111E+03  0.00000000000E+00 0. -1.
        -24    2    1    2    0    0  0.15686595506E+03  0.45383941173E+02  0.39994931432E+02  0.18582628615E+03  0.79152915991E+02 0.  0.
        254    2    1    2    0    0 -0.15686595506E+03 -0.45383941173E+02 -0.15978793662E+03  0.92669645088E+03  0.89809102958E+03 0.  0.
         23    2    4    4    0    0  0.12977844087E+03  0.35769996140E+03 -0.16287845057E+03  0.42371555718E+03  0.90629893727E+02 0.  0.
         23    2    4    4    0    0 -0.28664439593E+03 -0.40308390257E+03  0.30905139504E+01  0.50298089370E+03  0.91315858002E+02 0.  0.
          3    1    3    3  502    0  0.92378696687E+02  0.16323726345E+02 -0.16564414328E+02  0.95261049047E+02  0.00000000000E+00 0. -1.
         -2    1    3    3    0  502  0.64487258372E+02  0.29060214828E+02  0.56559345760E+02  0.90565237100E+02  0.00000000000E+00 0.  1.
         13    1    5    5    0    0  0.46783430505E+02  0.24183541799E+03 -0.80720523558E+02  0.25920814356E+03  0.00000000000E+00 0. -1.
        -13    1    5    5    0    0  0.82995010366E+02  0.11586454340E+03 -0.82157927009E+02  0.16450741361E+03  0.00000000000E+00 0.  1.
          3    1    6    6  503    0 -0.21084126670E+03 -0.33592770769E+03  0.31321609044E+02  0.39784734224E+03  0.00000000000E+00 0. -1.
         -3    1    6    6    0  503 -0.75803129233E+02 -0.67156194884E+02 -0.28231095094E+02  0.10513355146E+03  0.00000000000E+00 0.  1.
<mgrwt>
<rscale>  0 0.11060545E+04</rscale>
<asrwt>0</asrwt>
<pdfrwt beam="1">  1        1 0.94793519E-01 0.11060545E+04</pdfrwt>
<pdfrwt beam="2">  1       -2 0.76363825E-01 0.11060545E+04</pdfrwt>
<totfact> 0.44091901E+01</totfact>
</mgrwt>
</event>
<event>
12    5  0.5029243E-008  0.1348017E+04  0.7818608E-02  0.8992330E-01
          1   -1    0    0  501    0  0.00000000000E+00  0.00000000000E+00  0.28976822575E+04  0.28976822575E+04  0.00000000000E+00 0. -1.
         -2   -1    0    0    0  501 -0.00000000000E+00 -0.00000000000E+00 -0.15677619522E+03  0.15677619522E+03  0.00000000000E+00 0.  1.
        -24    2    1    2    0    0 -0.14630891869E+03  0.68706285485E+02 -0.29020254032E+02  0.18127563724E+03  0.76758244903E+02 0.  0.
        254    2    1    2    0    0  0.14630891869E+03 -0.68706285485E+02  0.27699263163E+04  0.28731828155E+04  0.74603005303E+03 0.  0.
         23    2    4    4    0    0 -0.76724694592E+02  0.21651976419E+02  0.35223424482E+02  0.12643887988E+03  0.91600294049E+02 0.  0.
         23    2    4    4    0    0  0.22303361328E+03 -0.90358261904E+02  0.27347028918E+04  0.27467439356E+04  0.89965176830E+02 0.  0.
          3    1    3    3  502    0 -0.53574161292E+02  0.36386118184E+02  0.24729564137E+02  0.69323096419E+02  0.00000000000E+00 0. -1.
         -4    1    3    3    0  502 -0.92734757398E+02  0.32320167301E+02 -0.53749818169E+02  0.11195254082E+03  0.00000000000E+00 0.  1.
         13    1    5    5    0    0 -0.14310628998E+02  0.15793739182E+02  0.56382239057E+02  0.60275975154E+02  0.00000000000E+00 0.  1.
        -13    1    5    5    0    0 -0.62414065594E+02  0.58582372373E+01 -0.21158814575E+02  0.66162904726E+02  0.00000000000E+00 0. -1.
          2    1    6    6  503    0  0.17704782556E+03 -0.89922955924E+02  0.24788428371E+04  0.24867838429E+04  0.00000000000E+00 0. -1.
         -2    1    6    6    0  503  0.45985787721E+02 -0.43530598033E+00  0.25586005475E+03  0.25996009267E+03  0.00000000000E+00 0.  1.
<mgrwt>
<rscale>  0 0.13480172E+04</rscale>
<asrwt>0</asrwt>
<pdfrwt beam="1">  1        1 0.44579723E+00 0.13480172E+04</pdfrwt>
<pdfrwt beam="2">  1       -2 0.24119417E-01 0.13480172E+04</pdfrwt>
<totfact> 0.94058537E+00</totfact>
</mgrwt>
</event>
<event>
12    5  0.5029243E-008  0.1647530E+04  0.7818608E-02  0.8791869E-01
         -2   -1    0    0    0  501 -0.00000000000E+00  0.00000000000E+00  0.88745692078E+03  0.88745692078E+03  0.00000000000E+00 0.  1.
          1   -1    0    0  501    0  0.00000000000E+00 -0.00000000000E+00 -0.76464380131E+03  0.76464380131E+03  0.00000000000E+00 0. -1.
        -24    2    1    2    0    0  0.19178542276E+03 -0.19376300228E+03  0.45596063749E+03  0.53741278240E+03  0.81158156161E+02 0.  0.
        254    2    1    2    0    0 -0.19178542276E+03  0.19376300228E+03 -0.33314751802E+03  0.11146879397E+04  0.10282101851E+04 0.  0.
         23    2    4    4    0    0  0.27222546947E+03  0.95706096079E+02 -0.51650817339E+03  0.59808424688E+03  0.87508343218E+02 0.  0.
         23    2    4    4    0    0 -0.46401089223E+03  0.98056906198E+02  0.18336065537E+03  0.51660369281E+03  0.91307067213E+02 0.  0.
          3    1    3    3  502    0  0.12161464247E+03 -0.66987959932E+02  0.20419446561E+03  0.24692688761E+03  0.00000000000E+00 0. -1.
         -4    1    3    3    0  502  0.70170780287E+02 -0.12677504234E+03  0.25176617189E+03  0.29048589479E+03  0.00000000000E+00 0.  1.
         13    1    5    5    0    0  0.18810051206E+03  0.21836137221E+02 -0.33549498146E+03  0.38524732590E+03  0.00000000000E+00 0. -1.
        -13    1    5    5    0    0  0.84124957413E+02  0.73869958859E+02 -0.18101319193E+03  0.21283692099E+03  0.00000000000E+00 0.  1.
          3    1    6    6  503    0 -0.42502036909E+03  0.11052109449E+03  0.18275640228E+03  0.47566493359E+03  0.00000000000E+00 0. -1.
         -3    1    6    6    0  503 -0.38990523138E+02 -0.12464188296E+02  0.60425308625E+00  0.40938759218E+02  0.00000000000E+00 0.  1.
<mgrwt>
<rscale>  0 0.16475296E+04</rscale>
<asrwt>0</asrwt>
<pdfrwt beam="1">  1        1 0.11763751E+00 0.16475296E+04</pdfrwt>
<pdfrwt beam="2">  1       -2 0.13653184E+00 0.16475296E+04</pdfrwt>
<totfact> 0.76209492E+00</totfact>
</mgrwt>
</event>
<event>
12    5  0.5029243E-008  0.1791138E+04  0.7818608E-02  0.8711026E-01
         -2   -1    0    0    0  501 -0.00000000000E+00  0.00000000000E+00  0.40871977335E+03  0.40871977335E+03  0.00000000000E+00 0.  1.
          1   -1    0    0  501    0  0.00000000000E+00 -0.00000000000E+00 -0.19623320113E+04  0.19623320113E+04  0.00000000000E+00 0. -1.
        -24    2    1    2    0    0  0.24617511494E+02 -0.61351497782E+03 -0.23841151031E+03  0.66361196739E+03  0.80834059230E+02 0.  0.
        254    2    1    2    0    0 -0.24617511494E+02  0.61351497782E+03 -0.13152007277E+04  0.17074398173E+04  0.89921695143E+03 0.  0.
         23    2    4    4    0    0  0.36604860712E+03  0.46388860074E+03 -0.47173767037E+03  0.76156241078E+03  0.90866160856E+02 0.  0.
         23    2    4    4    0    0 -0.39066611862E+03  0.14962637708E+03 -0.84346305730E+03  0.94587740652E+03  0.90807875061E+02 0.  0.
          3    1    3    3  502    0  0.23494856415E+01 -0.30989714502E+03 -0.16218969652E+03  0.34978172941E+03  0.00000000000E+00 0. -1.
         -2    1    3    3    0  502  0.22268025853E+02 -0.30361783281E+03 -0.76221813787E+02  0.31383023798E+03  0.00000000000E+00 0.  1.
         13    1    5    5    0    0  0.32559386846E+03  0.38648768113E+03 -0.36362565115E+03  0.62258148785E+03  0.00000000000E+00 0. -1.
        -13    1    5    5    0    0  0.40454738664E+02  0.77400919611E+02 -0.10811201922E+03  0.13898092292E+03  0.00000000000E+00 0.  1.
          2    1    6    6  503    0 -0.35783900398E+03  0.11391926696E+03 -0.78271371174E+03  0.86814002713E+03  0.00000000000E+00 0. -1.
         -2    1    6    6    0  503 -0.32827114633E+02  0.35707110116E+02 -0.60749345564E+02  0.77737379390E+02  0.00000000000E+00 0.  1.
<mgrwt>
<rscale>  0 0.17911381E+04</rscale>
<asrwt>0</asrwt>
<pdfrwt beam="1">  1        1 0.30189723E+00 0.17911381E+04</pdfrwt>
<pdfrwt beam="2">  1       -2 0.62879965E-01 0.17911381E+04</pdfrwt>
<totfact> 0.61437120E+00</totfact>
</mgrwt>
</event>
<event>
12    5  0.5029243E-008  0.2219341E+04  0.7818608E-02  0.8510421E-01
          1   -1    0    0  501    0  0.00000000000E+00  0.00000000000E+00  0.93937460986E+03  0.93937460986E+03  0.00000000000E+00 0. -1.
         -2   -1    0    0    0  501 -0.00000000000E+00 -0.00000000000E+00 -0.13108392601E+04  0.13108392601E+04  0.00000000000E+00 0.  1.
        -24    2    1    2    0    0 -0.87675021335E+03 -0.30970734909E+03 -0.11058174060E+03  0.93991582866E+03  0.81264167488E+02 0.  0.
        254    2    1    2    0    0  0.87675021335E+03  0.30970734909E+03 -0.26088290962E+03  0.13102980413E+04  0.88555716119E+03 0.  0.
         23    2    4    4    0    0  0.56926645215E+03  0.10156366007E+03 -0.57129824704E+03  0.81788100634E+03  0.90377999933E+02 0.  0.
         23    2    4    4    0    0  0.30748376120E+03  0.20814368902E+03  0.31041533742E+03  0.49241703493E+03  0.90811870936E+02 0.  0.
          1    1    3    3  502    0 -0.33993276595E+03 -0.11467009123E+03 -0.32458824245E+01  0.35876740507E+03  0.00000000000E+00 0. -1.
         -2    1    3    3    0  502 -0.53681744741E+03 -0.19503725786E+03 -0.10733585817E+03  0.58114842359E+03  0.00000000000E+00 0.  1.
         13    1    5    5    0    0  0.83319073132E+02  0.47940435830E+02 -0.85142044999E+02  0.12841153049E+03  0.00000000000E+00 0.  1.
        -13    1    5    5    0    0  0.48594737902E+03  0.53623224239E+02 -0.48615620204E+03  0.68946947586E+03  0.00000000000E+00 0. -1.
          1    1    6    6  503    0  0.31189302571E+03  0.20723431378E+03  0.31223686495E+03  0.48756043741E+03  0.00000000000E+00 0. -1.
         -1    1    6    6    0  503 -0.44092645128E+01  0.90937524522E+00 -0.18215275342E+01  0.48565975167E+01  0.00000000000E+00 0.  1.
<mgrwt>
<rscale>  0 0.22193415E+04</rscale>
<asrwt>0</asrwt>
<pdfrwt beam="1">  1        1 0.14451917E+00 0.22193415E+04</pdfrwt>
<pdfrwt beam="2">  1       -2 0.20166758E+00 0.22193415E+04</pdfrwt>
<totfact> 0.17489061E+00</totfact>
</mgrwt>
</event>
<event>
12    5  0.5029243E-008  0.2897722E+04  0.7818608E-02  0.8273556E-01
          1   -1    0    0  501    0  0.00000000000E+00  0.00000000000E+00  0.11551344757E+04  0.11551344757E+04  0.00000000000E+00 0. -1.
         -2   -1    0    0    0  501 -0.00000000000E+00 -0.00000000000E+00 -0.18172756471E+04  0.18172756471E+04  0.00000000000E+00 0.  1.
        -24    2    1    2    0    0  0.61244382900E+02  0.22941066786E+03  0.10198171862E+04  0.10501072873E+04  0.79486430649E+02 0.  0.
        254    2    1    2    0    0 -0.61244382900E+02 -0.22941066786E+03 -0.16819583576E+04  0.19223028354E+04  0.89993563414E+03 0.  0.
         23    2    4    4    0    0  0.18216195641E+03 -0.50171378309E+03 -0.11390451994E+04  0.12611679133E+04  0.90668852259E+02 0.  0.
         23    2    4    4    0    0 -0.24340633931E+03  0.27230311524E+03 -0.54291315818E+03  0.66113492214E+03  0.94599446974E+02 0.  0.
          1    1    3    3  502    0  0.67588337721E+02  0.14956585678E+03  0.78594691330E+03  0.80290141328E+03  0.00000000000E+00 0. -1.
         -2    1    3    3    0  502 -0.63439548215E+01  0.79844811076E+02  0.23387027291E+03  0.24720587406E+03  0.00000000000E+00 0.  1.
         13    1    5    5    0    0  0.23613022957E+02 -0.52830246945E+02 -0.69354259021E+02  0.90325096677E+02  0.00000000000E+00 0. -1.
        -13    1    5    5    0    0  0.15854893345E+03 -0.44888353615E+03 -0.10696909404E+04  0.11708428166E+04  0.00000000000E+00 0.  1.
          1    1    6    6  503    0 -0.44749125058E+01  0.45898060042E+02 -0.46366718980E+02  0.65395178618E+02  0.00000000000E+00 0. -1.
         -1    1    6    6    0  503 -0.23893142681E+03  0.22640505520E+03 -0.49654643920E+03  0.59573974352E+03  0.00000000000E+00 0.  1.
<mgrwt>
<rscale>  0 0.28977217E+04</rscale>
<asrwt>0</asrwt>
<pdfrwt beam="1">  1        1 0.17771300E+00 0.28977217E+04</pdfrwt>
<pdfrwt beam="2">  1       -2 0.27958087E+00 0.28977217E+04</pdfrwt>
<totfact> 0.36802364E-01</totfact>
</mgrwt>
</event>
<event>
12    5  0.5029243E-008  0.1662417E+04  0.7818608E-02  0.8783095E-01
         -2   -1    0    0    0  501 -0.00000000000E+00  0.00000000000E+00  0.47795814526E+03  0.47795814526E+03  0.00000000000E+00 0.  1.
          1   -1    0    0  501    0  0.00000000000E+00 -0.00000000000E+00 -0.14455395273E+04  0.14455395273E+04  0.00000000000E+00 0. -1.
        -24    2    1    2    0    0  0.18108701278E+03 -0.55446254157E+03 -0.38090007659E+03  0.70118639059E+03  0.79726217805E+02 0.  0.
        254    2    1    2    0    0 -0.18108701278E+03  0.55446254157E+03 -0.58668130540E+03  0.12223112819E+04  0.89979369837E+03 0.  0.
         23    2    4    4    0    0 -0.17792103733E+03 -0.20380764696E+03 -0.54702707258E+02  0.29159459365E+03  0.94029614405E+02 0.  0.
         23    2    4    4    0    0 -0.31659754506E+01  0.75827018852E+03 -0.53197859815E+03  0.93071668828E+03  0.90821928799E+02 0.  0.
          1    1    3    3  502    0  0.15389576841E+03 -0.49456344643E+03 -0.36461065685E+03  0.63341758830E+03  0.00000000000E+00 0. -1.
         -2    1    3    3    0  502  0.27191244366E+02 -0.59899095137E+02 -0.16289419741E+02  0.67768802291E+02  0.00000000000E+00 0.  1.
         13    1    5    5    0    0  0.58520448127E+01 -0.38573237825E+02 -0.11839770730E+02  0.40771574359E+02  0.00000000000E+00 0. -1.
        -13    1    5    5    0    0 -0.18377308214E+03 -0.16523440913E+03 -0.42862936528E+02  0.25082301929E+03  0.00000000000E+00 0.  1.
          3    1    6    6  503    0 -0.31250368282E+02  0.28582424976E+03 -0.16231294705E+03  0.33017810352E+03  0.00000000000E+00 0. -1.
         -3    1    6    6    0  503  0.28084392832E+02  0.47244593877E+03 -0.36966565110E+03  0.60053858476E+03  0.00000000000E+00 0.  1.
<mgrwt>
<rscale>  0 0.16624168E+04</rscale>
<asrwt>0</asrwt>
<pdfrwt beam="1">  1        1 0.22239069E+00 0.16624168E+04</pdfrwt>
<pdfrwt beam="2">  1       -2 0.73532023E-01 0.16624168E+04</pdfrwt>
<totfact> 0.99748269E+00</totfact>
</mgrwt>
</event>
<event>
12    5  0.5029243E-008  0.1215221E+04  0.7818608E-02  0.9099637E-01
         -4   -1    0    0    0  501 -0.00000000000E+00  0.00000000000E+00  0.29231660784E+03  0.29231660784E+03  0.00000000000E+00 0.  1.
          1   -1    0    0  501    0  0.00000000000E+00 -0.00000000000E+00 -0.12629809980E+04  0.12629809980E+04  0.00000000000E+00 0. -1.
        -24    2    1    2    0    0  0.34191469058E+01 -0.26313954381E+03 -0.17557511955E+03  0.32696453181E+03  0.82613996219E+02 0.  0.
        254    2    1    2    0    0 -0.34191469058E+01  0.26313954381E+03 -0.79508927059E+03  0.12283330740E+04  0.89854386785E+03 0.  0.
         23    2    4    4    0    0  0.29335445264E+03  0.42535153443E+03 -0.25194933420E+03  0.58216894261E+03  0.91986129426E+02 0.  0.
         23    2    4    4    0    0 -0.29677359955E+03 -0.16221199062E+03 -0.54313993639E+03  0.64616413141E+03  0.90220812100E+02 0.  0.
          3    1    3    3  502    0  0.17097599401E+02 -0.58546043960E+01 -0.13790867494E+02  0.22733066757E+02  0.00000000000E+00 0. -1.
         -2    1    3    3    0  502 -0.13678452496E+02 -0.25728493942E+03 -0.16178425206E+03  0.30423146505E+03  0.00000000000E+00 0.  1.
         13    1    5    5    0    0  0.29770338394E+03  0.40500579224E+03 -0.24966266595E+03  0.56123831241E+03  0.00000000000E+00 0. -1.
        -13    1    5    5    0    0 -0.43489312925E+01  0.20345742191E+02 -0.22866682573E+01  0.20930630196E+02  0.00000000000E+00 0.  1.
          3    1    6    6  503    0 -0.23589592113E+03 -0.16540069965E+03 -0.42898899353E+03  0.51675510023E+03  0.00000000000E+00 0. -1.
         -3    1    6    6    0  503 -0.60877678419E+02  0.31887090290E+01 -0.11415094286E+03  0.12940903118E+03  0.00000000000E+00 0.  1.
<mgrwt>
<rscale>  0 0.12152207E+04</rscale>
<asrwt>0</asrwt>
<pdfrwt beam="1">  1        1 0.19430477E+00 0.12152207E+04</pdfrwt>
<pdfrwt beam="2">  1       -4 0.44971786E-01 0.12152207E+04</pdfrwt>
<totfact> 0.22400207E+01</totfact>
</mgrwt>
</event>
<event>
12    5  0.5029243E-008  0.1438753E+04  0.7818608E-02  0.8926235E-01
         -2   -1    0    0    0  501 -0.00000000000E+00  0.00000000000E+00  0.25414019472E+04  0.25414019472E+04  0.00000000000E+00 0.  1.
          1   -1    0    0  501    0  0.00000000000E+00 -0.00000000000E+00 -0.20362868453E+03  0.20362868453E+03  0.00000000000E+00 0. -1.
        -24    2    1    2    0    0 -0.74306402664E+02 -0.11539969840E+03  0.14931572115E+04  0.15028065732E+04  0.10035240989E+03 0.  0.
        254    2    1    2    0    0  0.74306402664E+02  0.11539969840E+03  0.84461605114E+03  0.12422240585E+04  0.90050308490E+03 0.  0.
         23    2    4    4    0    0  0.21657026538E+03  0.41172883985E+03  0.20654210310E+03  0.51921834055E+03  0.10249257240E+03 0.  0.
         23    2    4    4    0    0 -0.14226386272E+03 -0.29632914145E+03  0.63807394804E+03  0.72300571800E+03  0.86884626809E+02 0.  0.
          1    1    3    3  502    0 -0.61265105850E+02 -0.80353255924E+01  0.56575895770E+03  0.56912316581E+03  0.00000000000E+00 0. -1.
         -2    1    3    3    0  502 -0.13041296814E+02 -0.10736437281E+03  0.92739825383E+03  0.93368340736E+03  0.00000000000E+00 0.  1.
         13    1    5    5    0    0 -0.82318688139E+01  0.20948040123E+02  0.23812539111E+02  0.32766157359E+02  0.00000000000E+00 0.  1.
        -13    1    5    5    0    0  0.22480213420E+03  0.39078079973E+03  0.18272956398E+03  0.48645218319E+03  0.00000000000E+00 0. -1.
          4    1    6    6  503    0 -0.12978296749E+03 -0.19791160292E+03  0.39512821849E+03  0.46058542126E+03  0.00000000000E+00 0. -1.
         -4    1    6    6    0  503 -0.12480895226E+02 -0.98417538526E+02  0.24294572955E+03  0.26242029674E+03  0.00000000000E+00 0.  1.
<mgrwt>
<rscale>  0 0.14387527E+04</rscale>
<asrwt>0</asrwt>
<pdfrwt beam="1">  1        1 0.31327492E-01 0.14387527E+04</pdfrwt>
<pdfrwt beam="2">  1       -2 0.39098489E+00 0.14387527E+04</pdfrwt>
<totfact> 0.10583872E+00</totfact>
</mgrwt>
</event>
<event>
12    5  0.5029243E-008  0.2063148E+04  0.7818608E-02  0.8577653E-01
          1   -1    0    0  501    0  0.00000000000E+00  0.00000000000E+00  0.25747464616E+04  0.25747464616E+04  0.00000000000E+00 0. -1.
         -2   -1    0    0    0  501 -0.00000000000E+00 -0.00000000000E+00 -0.41330095717E+03  0.41330095717E+03  0.00000000000E+00 0.  1.
        -24    2    1    2    0    0  0.31179809096E+03  0.68117686265E+03  0.13724097168E+04  0.15656087922E+04  0.80015570145E+02 0.  0.
        254    2    1    2    0    0 -0.31179809096E+03 -0.68117686265E+03  0.78903578760E+03  0.14224386266E+04  0.91626099156E+03 0.  0.
         23    2    4    4    0    0 -0.18974559286E+03 -0.57621500268E+03  0.19518332558E+01  0.61378649419E+03  0.93289503555E+02 0.  0.
         23    2    4    4    0    0 -0.12205249811E+03 -0.10496185997E+03  0.78708395434E+03  0.80865213244E+03  0.92213425082E+02 0.  0.
          3    1    3    3  502    0  0.17416291335E+03  0.44146488747E+03  0.92652958395E+03  0.10410000179E+04  0.00000000000E+00 0. -1.
         -4    1    3    3    0  502  0.13763517761E+03  0.23971197518E+03  0.44588013289E+03  0.52460877429E+03  0.00000000000E+00 0.  1.
         13    1    5    5    0    0 -0.16568292278E+03 -0.37394515048E+03  0.18462330419E+02  0.40942235419E+03  0.00000000000E+00 0.  1.
        -13    1    5    5    0    0 -0.24062670080E+02 -0.20226985219E+03 -0.16510497163E+02  0.20436413999E+03  0.00000000000E+00 0. -1.
          1    1    6    6  503    0 -0.10623082238E+02  0.10521514281E+02  0.20052624590E+02  0.25013194357E+02  0.00000000000E+00 0. -1.
         -1    1    6    6    0  503 -0.11142941587E+03 -0.11548337425E+03  0.76703132975E+03  0.78363893808E+03  0.00000000000E+00 0.  1.
<mgrwt>
<rscale>  0 0.20631483E+04</rscale>
<asrwt>0</asrwt>
<pdfrwt beam="1">  1        1 0.39611483E+00 0.20631483E+04</pdfrwt>
<pdfrwt beam="2">  1       -2 0.63584765E-01 0.20631483E+04</pdfrwt>
<totfact> 0.22305931E+00</totfact>
</mgrwt>
</event>
<event>
12    5  0.5029243E-008  0.2862645E+04  0.7818608E-02  0.8284079E-01
         -2   -1    0    0    0  501 -0.00000000000E+00  0.00000000000E+00  0.16825622636E+04  0.16825622636E+04  0.00000000000E+00 0.  1.
          1   -1    0    0  501    0  0.00000000000E+00 -0.00000000000E+00 -0.12175979407E+04  0.12175979407E+04  0.00000000000E+00 0. -1.
        -24    2    1    2    0    0 -0.65751268562E+03  0.10391380409E+04  0.54771754713E+03  0.13485011576E+04  0.79561678576E+02 0.  0.
        254    2    1    2    0    0  0.65751268562E+03 -0.10391380409E+04 -0.82753224194E+02  0.15516590467E+04  0.94269130753E+03 0.  0.
         23    2    4    4    0    0  0.41651925886E+03 -0.54274365507E+03 -0.50147624992E+03  0.85311750097E+03  0.90950937943E+02 0.  0.
         23    2    4    4    0    0  0.24099342676E+03 -0.49639438588E+03  0.41872302573E+03  0.69854154576E+03  0.90255752151E+02 0.  0.
          3    1    3    3  502    0 -0.61735990873E+02  0.64818377085E+02  0.51958047759E+02  0.10350069229E+03  0.00000000000E+00 0. -1.
         -4    1    3    3    0  502 -0.59577669475E+03  0.97431966386E+03  0.49575949937E+03  0.12450004653E+04  0.00000000000E+00 0.  1.
         13    1    5    5    0    0  0.37850439249E+03 -0.45967961502E+03 -0.40428034412E+03  0.71973156124E+03  0.00000000000E+00 0.  1.
        -13    1    5    5    0    0  0.38014866366E+02 -0.83064040044E+02 -0.97195905804E+02  0.13338593973E+03  0.00000000000E+00 0. -1.
          4    1    6    6  503    0  0.43192960802E+02 -0.17977979547E+03  0.15773904497E+03  0.24303911831E+03  0.00000000000E+00 0. -1.
         -4    1    6    6    0  503  0.19780046596E+03 -0.31661459041E+03  0.26098398076E+03  0.45550242745E+03  0.00000000000E+00 0.  1.
<mgrwt>
<rscale>  0 0.28626452E+04</rscale>
<asrwt>0</asrwt>
<pdfrwt beam="1">  1        1 0.18732276E+00 0.28626452E+04</pdfrwt>
<pdfrwt beam="2">  1       -2 0.25885573E+00 0.28626452E+04</pdfrwt>
<totfact> 0.44455633E-01</totfact>
</mgrwt>
</event>
<event>
12    5  0.5029243E-008  0.1538080E+04  0.7818608E-02  0.8859518E-01
         -2   -1    0    0    0  501 -0.00000000000E+00  0.00000000000E+00  0.63669087389E+03  0.63669087389E+03  0.00000000000E+00 0.  1.
          1   -1    0    0  501    0  0.00000000000E+00 -0.00000000000E+00 -0.92890027698E+03  0.92890027698E+03  0.00000000000E+00 0. -1.
        -24    2    1    2    0    0 -0.93163866892E+02  0.52697316888E+03 -0.11937957779E+03  0.55406878634E+03  0.79752803001E+02 0.  0.
        254    2    1    2    0    0  0.93163866892E+02 -0.52697316888E+03 -0.17282982531E+03  0.10115223645E+04  0.84078958046E+03 0.  0.
         23    2    4    4    0    0 -0.12252895134E+03 -0.66147210427E+03 -0.26129088649E+03  0.72742241482E+03  0.91168819128E+02 0.  0.
         23    2    4    4    0    0  0.21569281823E+03  0.13449893539E+03  0.88461061182E+02  0.28409994970E+03  0.90961896518E+02 0.  0.
          1    1    3    3  502    0 -0.92548670896E+01  0.12683283456E+02 -0.16768908492E+02  0.22972038135E+02  0.00000000000E+00 0. -1.
         -2    1    3    3    0  502 -0.83908999803E+02  0.51428988542E+03 -0.10261066929E+03  0.53109674820E+03  0.00000000000E+00 0.  1.
         13    1    5    5    0    0 -0.12823258261E+03 -0.46748228244E+03 -0.18259125636E+03  0.51799888662E+03  0.00000000000E+00 0.  1.
        -13    1    5    5    0    0  0.57036312728E+01 -0.19398982183E+03 -0.78699630127E+02  0.20942352821E+03  0.00000000000E+00 0. -1.
          1    1    6    6  503    0 -0.58451993875E+01  0.14611014819E+02  0.14924328286E+02  0.21688330611E+02  0.00000000000E+00 0. -1.
         -1    1    6    6    0  503  0.22153801762E+03  0.11988792057E+03  0.73536732896E+02  0.26241161909E+03  0.00000000000E+00 0.  1.
<mgrwt>
<rscale>  0 0.15380797E+04</rscale>
<asrwt>0</asrwt>
<pdfrwt beam="1">  1        1 0.14290773E+00 0.15380797E+04</pdfrwt>
<pdfrwt beam="2">  1       -2 0.97952442E-01 0.15380797E+04</pdfrwt>
<totfact> 0.12636720E+01</totfact>
</mgrwt>
</event>
<event>
12    5  0.5029243E-008  0.1608456E+04  0.7818608E-02  0.8815370E-01
         -2   -1    0    0    0  501 -0.00000000000E+00  0.00000000000E+00  0.35108596463E+03  0.35108596463E+03  0.00000000000E+00 0.  1.
          1   -1    0    0  501    0  0.00000000000E+00 -0.00000000000E+00 -0.18422354763E+04  0.18422354763E+04  0.00000000000E+00 0. -1.
        -24    2    1    2    0    0  0.40888262735E+02 -0.49651449185E+03 -0.83754000914E+03  0.97771478978E+03  0.79085097226E+02 0.  0.
        254    2    1    2    0    0 -0.40888262735E+02  0.49651449185E+03 -0.65360950255E+03  0.12156066512E+04  0.89570958345E+03 0.  0.
         23    2    4    4    0    0 -0.14085217137E+03  0.65791701875E+03 -0.72287423597E+03  0.99162131051E+03  0.89841664595E+02 0.  0.
         23    2    4    4    0    0  0.99963908636E+02 -0.16140252690E+03  0.69264733414E+02  0.22398534066E+03  0.96582973736E+02 0.  0.
          3    1    3    3  502    0  0.52227503729E+02 -0.48556635243E+03 -0.80494564547E+03  0.94150936635E+03  0.00000000000E+00 0. -1.
         -4    1    3    3    0  502 -0.11339240994E+02 -0.10948139418E+02 -0.32594363671E+02  0.36205423436E+02  0.00000000000E+00 0.  1.
         13    1    5    5    0    0 -0.11500599925E+03  0.32416948110E+03 -0.37418732331E+03  0.50826015510E+03  0.00000000000E+00 0. -1.
        -13    1    5    5    0    0 -0.25846172124E+02  0.33374753764E+03 -0.34868691266E+03  0.48336115541E+03  0.00000000000E+00 0.  1.
          1    1    6    6  503    0  0.70374241807E+02 -0.31340928103E+02  0.42353981041E+02  0.87912726008E+02  0.00000000000E+00 0. -1.
         -1    1    6    6    0  503  0.29589666829E+02 -0.13006159879E+03  0.26910752372E+02  0.13607261465E+03  0.00000000000E+00 0.  1.
<mgrwt>
<rscale>  0 0.16084564E+04</rscale>
<asrwt>0</asrwt>
<pdfrwt beam="1">  1        1 0.28342085E+00 0.16084564E+04</pdfrwt>
<pdfrwt beam="2">  1       -2 0.54013224E-01 0.16084564E+04</pdfrwt>
<totfact> 0.10363699E+01</totfact>
</mgrwt>
</event>
<event>
12    5  0.5029243E-008  0.1925514E+04  0.7818608E-02  0.8642260E-01
         -2   -1    0    0    0  501 -0.00000000000E+00  0.00000000000E+00  0.49323375846E+03  0.49323375846E+03  0.00000000000E+00 0.  1.
          1   -1    0    0  501    0  0.00000000000E+00 -0.00000000000E+00 -0.18792332437E+04  0.18792332437E+04  0.00000000000E+00 0. -1.
        -24    2    1    2    0    0 -0.65687001075E+03 -0.21992644167E+03 -0.90641977324E+03  0.11436615566E+04  0.80740942860E+02 0.  0.
        254    2    1    2    0    0  0.65687001075E+03  0.21992644167E+03 -0.47957971198E+03  0.12288054456E+04  0.89449442266E+03 0.  0.
         23    2    4    4    0    0  0.48648574112E+01  0.10827995584E+03 -0.53971490063E+03  0.55803412778E+03  0.91442321347E+02 0.  0.
         23    2    4    4    0    0  0.65200515334E+03  0.11164648583E+03  0.60135188645E+02  0.67077131780E+03  0.93500064632E+02 0.  0.
          1    1    3    3  502    0 -0.32470719380E+03 -0.10695705694E+03 -0.51355565277E+03  0.61693920464E+03  0.00000000000E+00 0. -1.
         -2    1    3    3    0  502 -0.33216281695E+03 -0.11296938473E+03 -0.39286412047E+03  0.52672235191E+03  0.00000000000E+00 0.  1.
         13    1    5    5    0    0  0.13734757705E+02 -0.38540033189E+01 -0.19305671984E+03  0.19358304158E+03  0.00000000000E+00 0. -1.
        -13    1    5    5    0    0 -0.88699002935E+01  0.11213395916E+03 -0.34665818079E+03  0.36445108620E+03  0.00000000000E+00 0.  1.
          1    1    6    6  503    0  0.19680989359E+03  0.34185013093E+02 -0.24783976125E+02  0.20128833748E+03  0.00000000000E+00 0. -1.
         -1    1    6    6    0  503  0.45519525976E+03  0.77461472738E+02  0.84919164770E+02  0.46948298032E+03  0.00000000000E+00 0.  1.
<mgrwt>
<rscale>  0 0.19255142E+04</rscale>
<asrwt>0</asrwt>
<pdfrwt beam="1">  1        1 0.28911280E+00 0.19255142E+04</pdfrwt>
<pdfrwt beam="2">  1       -2 0.75882118E-01 0.19255142E+04</pdfrwt>
<totfact> 0.45901457E+00</totfact>
</mgrwt>
</event>
<event>
12    5  0.5029243E-008  0.1631223E+04  0.7818608E-02  0.8801593E-01
         -2   -1    0    0    0  501 -0.00000000000E+00  0.00000000000E+00  0.51160118374E+03  0.51160118374E+03  0.00000000000E+00 0.  1.
          1   -1    0    0  501    0  0.00000000000E+00 -0.00000000000E+00 -0.13002751147E+04  0.13002751147E+04  0.00000000000E+00 0. -1.
        -24    2    1    2    0    0  0.28885530332E+03  0.46400948506E+03 -0.13255966015E+03  0.56841932434E+03  0.82378858379E+02 0.  0.
        254    2    1    2    0    0 -0.28885530332E+03 -0.46400948506E+03 -0.65611427086E+03  0.12434569741E+04  0.90385680372E+03 0.  0.
         23    2    4    4    0    0 -0.60339390550E+03 -0.22606028546E+03 -0.37897204885E+03  0.75308726331E+03  0.91286113377E+02 0.  0.
         23    2    4    4    0    0  0.31453860218E+03 -0.23794919959E+03 -0.27714222201E+03  0.49036971083E+03  0.90001601259E+02 0.  0.
          1    1    3    3  502    0  0.23211816377E+03  0.41893432392E+03 -0.10148954962E+03  0.48957628455E+03  0.00000000000E+00 0. -1.
         -2    1    3    3    0  502  0.56737139548E+02  0.45075161141E+02 -0.31070110530E+02  0.78843039796E+02  0.00000000000E+00 0.  1.
         13    1    5    5    0    0 -0.46782234751E+03 -0.21358969802E+03 -0.30980155681E+03  0.60037930722E+03  0.00000000000E+00 0. -1.
        -13    1    5    5    0    0 -0.13557155798E+03 -0.12470587448E+02 -0.69170492044E+02  0.15270795610E+03  0.00000000000E+00 0.  1.
          4    1    6    6  503    0  0.29368262092E+03 -0.24093739696E+03 -0.24529332484E+03  0.45218262494E+03  0.00000000000E+00 0. -1.
         -4    1    6    6    0  503  0.20855981262E+02  0.29881973713E+01 -0.31848897165E+02  0.38187085887E+02  0.00000000000E+00 0.  1.
<mgrwt>
<rscale>  0 0.16312232E+04</rscale>
<asrwt>0</asrwt>
<pdfrwt beam="1">  1        1 0.20004233E+00 0.16312232E+04</pdfrwt>
<pdfrwt beam="2">  1       -2 0.78707874E-01 0.16312232E+04</pdfrwt>
<totfact> 0.10884187E+01</totfact>
</mgrwt>
</event>
<event>
12    5  0.5029243E-008  0.1674919E+04  0.7818608E-02  0.8775800E-01
          1   -1    0    0  501    0  0.00000000000E+00  0.00000000000E+00  0.68749413575E+03  0.68749413575E+03  0.00000000000E+00 0. -1.
         -2   -1    0    0    0  501 -0.00000000000E+00 -0.00000000000E+00 -0.10201370747E+04  0.10201370747E+04  0.00000000000E+00 0.  1.
        -24    2    1    2    0    0  0.22380790865E+03  0.43573284792E+03 -0.44812429693E+03  0.66842429229E+03  0.77605117658E+02 0.  0.
        254    2    1    2    0    0 -0.22380790865E+03 -0.43573284792E+03  0.11548135796E+03  0.10392069182E+04  0.90920953583E+03 0.  0.
         23    2    4    4    0    0 -0.49044671335E+03 -0.53715579153E+03  0.65785024456E+02  0.73582277352E+03  0.89627906272E+02 0.  0.
         23    2    4    4    0    0  0.26663880470E+03  0.10142294361E+03  0.49696333508E+02  0.30338414467E+03  0.90495016475E+02 0.  0.
          1    1    3    3  502    0  0.22358994542E+03  0.43294229115E+03 -0.42934382622E+03  0.64943638047E+03  0.00000000000E+00 0. -1.
         -2    1    3    3    0  502  0.21796322856E+00  0.27905567672E+01 -0.18780470713E+02  0.18987911819E+02  0.00000000000E+00 0.  1.
         13    1    5    5    0    0 -0.44073421921E+03 -0.51165627386E+03  0.74009260656E+02  0.67934981065E+03  0.00000000000E+00 0. -1.
        -13    1    5    5    0    0 -0.49712494140E+02 -0.25499517671E+02 -0.82242362001E+01  0.56472962877E+02  0.00000000000E+00 0.  1.
          2    1    6    6  503    0  0.21403534568E+03  0.94145938020E+02  0.73617014987E+02  0.24514088141E+03  0.00000000000E+00 0. -1.
         -2    1    6    6    0  503  0.52603459026E+02  0.72770055892E+01 -0.23920681479E+02  0.58243263253E+02  0.00000000000E+00 0.  1.
<mgrwt>
<rscale>  0 0.16749188E+04</rscale>
<asrwt>0</asrwt>
<pdfrwt beam="1">  1        1 0.10576833E+00 0.16749188E+04</pdfrwt>
<pdfrwt beam="2">  1       -2 0.15694416E+00 0.16749188E+04</pdfrwt>
<totfact> 0.62019465E+00</totfact>
</mgrwt>
</event>
<event>
12    5  0.5029243E-008  0.1494102E+04  0.7818608E-02  0.8888384E-01
         -4   -1    0    0    0  501 -0.00000000000E+00  0.00000000000E+00  0.26630078350E+03  0.26630078350E+03  0.00000000000E+00 0.  1.
          3   -1    0    0  501    0  0.00000000000E+00 -0.00000000000E+00 -0.20956950395E+04  0.20956950395E+04  0.00000000000E+00 0. -1.
        -24    2    1    2    0    0  0.28348442164E+03 -0.14315939263E+03 -0.10229983335E+04  0.10742105134E+04  0.80898749620E+02 0.  0.
        254    2    1    2    0    0 -0.28348442164E+03  0.14315939263E+03 -0.80639592242E+03  0.12877853096E+04  0.95250122876E+03 0.  0.
         23    2    4    4    0    0 -0.12840018220E+03 -0.31763097945E+03 -0.69582830251E+03  0.78107812922E+03  0.92357844747E+02 0.  0.
         23    2    4    4    0    0 -0.15508423944E+03  0.46079037208E+03 -0.11056761991E+03  0.50670718033E+03  0.90266714226E+02 0.  0.
          1    1    3    3  502    0  0.10649883714E+03 -0.92149264232E+02 -0.51260863684E+03  0.53160239255E+03  0.00000000000E+00 0. -1.
         -2    1    3    3    0  502  0.17698558450E+03 -0.51010128400E+02 -0.51038969670E+03  0.54260812086E+03  0.00000000000E+00 0.  1.
         13    1    5    5    0    0 -0.82446126543E+02 -0.13909457567E+03 -0.24006254316E+03  0.28943857620E+03  0.00000000000E+00 0.  1.
        -13    1    5    5    0    0 -0.45954055654E+02 -0.17853640378E+03 -0.45576575935E+03  0.49163955302E+03  0.00000000000E+00 0. -1.
          1    1    6    6  503    0 -0.16512388119E+03  0.45111399456E+03 -0.10522069869E+03  0.49177345156E+03  0.00000000000E+00 0. -1.
         -1    1    6    6    0  503  0.10039641748E+02  0.96763775205E+01 -0.53469212185E+01  0.14933728766E+02  0.00000000000E+00 0.  1.
<mgrwt>
<rscale>  0 0.14941020E+04</rscale>
<asrwt>0</asrwt>
<pdfrwt beam="1">  1        3 0.32241462E+00 0.14941020E+04</pdfrwt>
<pdfrwt beam="2">  1       -4 0.40969352E-01 0.14941020E+04</pdfrwt>
<totfact> 0.37768633E-01</totfact>
</mgrwt>
</event>
<event>
12    5  0.5029243E-008  0.1302956E+04  0.7818608E-02  0.9027224E-01
         -2   -1    0    0    0  501 -0.00000000000E+00  0.00000000000E+00  0.75457179621E+03  0.75457179621E+03  0.00000000000E+00 0.  1.
          1   -1    0    0  501    0  0.00000000000E+00 -0.00000000000E+00 -0.56246926329E+03  0.56246926329E+03  0.00000000000E+00 0. -1.
        -24    2    1    2    0    0 -0.11825775949E+03  0.30600274483E+01  0.37003734492E+03  0.39641002167E+03  0.78860682206E+02 0.  0.
        254    2    1    2    0    0  0.11825775949E+03 -0.30600274483E+01 -0.17793481200E+03  0.92063103782E+03  0.89549229424E+03 0.  0.
         23    2    4    4    0    0  0.25577689169E+03 -0.36034082522E+03  0.66075841912E+02  0.45590498331E+03  0.90642199194E+02 0.  0.
         23    2    4    4    0    0 -0.13751913220E+03  0.35728079777E+03 -0.24401065391E+03  0.46472605452E+03  0.99337940111E+02 0.  0.
          3    1    3    3  502    0 -0.47684404222E+02  0.29787560227E+01  0.51916099808E+02  0.70554637074E+02  0.00000000000E+00 0. -1.
         -4    1    3    3    0  502 -0.70573355269E+02  0.81271425632E-01  0.31812124511E+03  0.32585538460E+03  0.00000000000E+00 0.  1.
         13    1    5    5    0    0  0.39714648857E+00 -0.18363275136E+02  0.19129742216E+02  0.26520079870E+02  0.00000000000E+00 0.  1.
        -13    1    5    5    0    0  0.25537974521E+03 -0.34197755009E+03  0.46946099696E+02  0.42938490344E+03  0.00000000000E+00 0. -1.
          4    1    6    6  503    0 -0.13106051944E+03  0.20652305649E+03 -0.14886279197E+03  0.28633680073E+03  0.00000000000E+00 0. -1.
         -4    1    6    6    0  503 -0.64586127636E+01  0.15075774128E+03 -0.95147861936E+02  0.17838925379E+03  0.00000000000E+00 0.  1.
<mgrwt>
<rscale>  0 0.13029558E+04</rscale>
<asrwt>0</asrwt>
<pdfrwt beam="1">  1        1 0.86533732E-01 0.13029558E+04</pdfrwt>
<pdfrwt beam="2">  1       -2 0.11608797E+00 0.13029558E+04</pdfrwt>
<totfact> 0.18604336E+01</totfact>
</mgrwt>
</event>
<event>
12    5  0.5029243E-008  0.2426073E+04  0.7818608E-02  0.8429806E-01
         -2   -1    0    0    0  501 -0.00000000000E+00  0.00000000000E+00  0.97281322808E+03  0.97281322808E+03  0.00000000000E+00 0.  1.
          1   -1    0    0  501    0  0.00000000000E+00 -0.00000000000E+00 -0.15125793466E+04  0.15125793466E+04  0.00000000000E+00 0. -1.
        -24    2    1    2    0    0 -0.19915389035E+03 -0.93280137506E+03 -0.66635113382E+03  0.11662089681E+04  0.78986368428E+02 0.  0.
        254    2    1    2    0    0  0.19915389035E+03  0.93280137506E+03  0.12658501526E+03  0.13191836066E+04  0.90246381895E+03 0.  0.
         23    2    4    4    0    0  0.50187075482E+03  0.33686018751E+03 -0.72834812474E+02  0.61552209923E+03  0.90628385485E+02 0.  0.
         23    2    4    4    0    0 -0.30271686447E+03  0.59594118755E+03  0.19941982773E+03  0.70366150738E+03  0.92670654627E+02 0.  0.
          3    1    3    3  502    0 -0.16611250665E+03 -0.87340174076E+03 -0.61562770775E+03  0.10813979102E+04  0.00000000000E+00 0. -1.
         -4    1    3    3    0  502 -0.33041383701E+02 -0.59399634300E+02 -0.50723426064E+02  0.84811057908E+02  0.00000000000E+00 0.  1.
         13    1    5    5    0    0  0.45984264395E+03  0.28508968715E+03 -0.43875087513E+02  0.54282263238E+03  0.00000000000E+00 0.  1.
        -13    1    5    5    0    0  0.42028110870E+02  0.51770500357E+02 -0.28959724961E+02  0.72699466851E+02  0.00000000000E+00 0. -1.
          2    1    6    6  503    0 -0.95258913443E+02  0.15373376034E+03  0.94547216399E+02  0.20407720546E+03  0.00000000000E+00 0. -1.
         -2    1    6    6    0  503 -0.20745795102E+03  0.44220742721E+03  0.10487261133E+03  0.49958430193E+03  0.00000000000E+00 0.  1.
<mgrwt>
<rscale>  0 0.24260727E+04</rscale>
<asrwt>0</asrwt>
<pdfrwt beam="1">  1        1 0.23270451E+00 0.24260727E+04</pdfrwt>
<pdfrwt beam="2">  1       -2 0.14966357E+00 0.24260727E+04</pdfrwt>
<totfact> 0.15172156E+00</totfact>
</mgrwt>
</event>
<event>
12    5  0.5029243E-008  0.2166050E+04  0.7818608E-02  0.8532693E-01
          1   -1    0    0  501    0  0.00000000000E+00  0.00000000000E+00  0.10314730798E+04  0.10314730798E+04  0.00000000000E+00 0. -1.
         -2   -1    0    0    0  501 -0.00000000000E+00 -0.00000000000E+00 -0.11371529218E+04  0.11371529218E+04  0.00000000000E+00 0.  1.
        -24    2    1    2    0    0 -0.50124850207E+03  0.10186718050E+02  0.69531275394E+03  0.86092179101E+03  0.79829032242E+02 0.  0.
        254    2    1    2    0    0  0.50124850207E+03 -0.10186718050E+02 -0.80099259595E+03  0.13077042106E+04  0.90396201995E+03 0.  0.
         23    2    4    4    0    0  0.97748730280E+01  0.21899530040E+03  0.94537473090E+02  0.25629644292E+03  0.93252576875E+02 0.  0.
         23    2    4    4    0    0  0.49147362904E+03 -0.22918201845E+03 -0.89553006904E+03  0.10514077676E+04  0.97023006004E+02 0.  0.
          3    1    3    3  502    0 -0.37944529445E+03 -0.12220373222E+02  0.47377727033E+03  0.60711858058E+03  0.00000000000E+00 0. -1.
         -4    1    3    3    0  502 -0.12180320761E+03  0.22407091271E+02  0.22153548361E+03  0.25380321043E+03  0.00000000000E+00 0.  1.
         13    1    5    5    0    0  0.12459051745E+02  0.17556279726E+03  0.11285985338E+03  0.20908101362E+03  0.00000000000E+00 0. -1.
        -13    1    5    5    0    0 -0.26841787175E+01  0.43432503137E+02 -0.18322380286E+02  0.47215429295E+02  0.00000000000E+00 0.  1.
          3    1    6    6  503    0  0.29703533250E+03 -0.18753761519E+03 -0.59805780189E+03  0.69359460802E+03  0.00000000000E+00 0. -1.
         -3    1    6    6    0  503  0.19443829654E+03 -0.41644403258E+02 -0.29747226715E+03  0.35781315963E+03  0.00000000000E+00 0.  1.
<mgrwt>
<rscale>  0 0.21660495E+04</rscale>
<asrwt>0</asrwt>
<pdfrwt beam="1">  1        1 0.15868817E+00 0.21660495E+04</pdfrwt>
<pdfrwt beam="2">  1       -2 0.17494660E+00 0.21660495E+04</pdfrwt>
<totfact> 0.22547125E+00</totfact>
</mgrwt>
</event>
<event>
12    5  0.5029243E-008  0.1454227E+04  0.7818608E-02  0.8915475E-01
          1   -1    0    0  501    0  0.00000000000E+00  0.00000000000E+00  0.90123196537E+03  0.90123196537E+03  0.00000000000E+00 0. -1.
         -2   -1    0    0    0  501 -0.00000000000E+00 -0.00000000000E+00 -0.58663453179E+03  0.58663453179E+03  0.00000000000E+00 0.  1.
        -24    2    1    2    0    0 -0.37877156138E+03 -0.22852146315E+03  0.83839461927E+02  0.45716125856E+03  0.79230083397E+02 0.  0.
        254    2    1    2    0    0  0.37877156138E+03  0.22852146315E+03  0.23075797165E+03  0.10307052386E+04  0.90189472366E+03 0.  0.
         23    2    4    4    0    0  0.44399093737E+03  0.13929885901E+03 -0.24556396047E+03  0.53348629368E+03  0.88169395326E+02 0.  0.
         23    2    4    4    0    0 -0.65219375989E+02  0.89222604148E+02  0.47632193213E+03  0.49721894492E+03  0.90165714476E+02 0.  0.
          3    1    3    3  502    0 -0.30538389923E+03 -0.15226788148E+03  0.43937300155E+02  0.34405714639E+03  0.00000000000E+00 0. -1.
         -4    1    3    3    0  502 -0.73387662158E+02 -0.76253581679E+02  0.39902161772E+02  0.11310411217E+03  0.00000000000E+00 0.  1.
         13    1    5    5    0    0  0.22691796206E+03  0.11720556447E+03 -0.13026730393E+03  0.28670276650E+03  0.00000000000E+00 0. -1.
        -13    1    5    5    0    0  0.21707297532E+03  0.22093294532E+02 -0.11529665654E+03  0.24678352718E+03  0.00000000000E+00 0.  1.
          3    1    6    6  503    0  0.97702688540E+01 -0.12569403924E+02  0.63851415195E+02  0.65806164536E+02  0.00000000000E+00 0. -1.
         -3    1    6    6    0  503 -0.74989644843E+02  0.10179200807E+03  0.41247051693E+03  0.43141278038E+03  0.00000000000E+00 0.  1.
<mgrwt>
<rscale>  0 0.14542267E+04</rscale>
<asrwt>0</asrwt>
<pdfrwt beam="1">  1        1 0.13865107E+00 0.14542267E+04</pdfrwt>
<pdfrwt beam="2">  1       -2 0.90251466E-01 0.14542267E+04</pdfrwt>
<totfact> 0.16221076E+01</totfact>
</mgrwt>
</event>
<event>
12    5  0.5029243E-008  0.1646458E+04  0.7818608E-02  0.8792504E-01
         -2   -1    0    0    0  501 -0.00000000000E+00  0.00000000000E+00  0.76107471902E+03  0.76107471902E+03  0.00000000000E+00 0.  1.
          1   -1    0    0  501    0  0.00000000000E+00 -0.00000000000E+00 -0.89045949914E+03  0.89045949914E+03  0.00000000000E+00 0. -1.
        -24    2    1    2    0    0  0.43003745457E+03 -0.27296727297E+03 -0.29864939668E+03  0.59620423526E+03  0.82611643001E+02 0.  0.
        254    2    1    2    0    0 -0.43003745457E+03  0.27296727297E+03  0.16926461656E+03  0.10553299829E+04  0.90864047783E+03 0.  0.
         23    2    4    4    0    0 -0.15572565141E+03  0.15183861253E+03 -0.36577137538E+03  0.43514585436E+03  0.90872288138E+02 0.  0.
         23    2    4    4    0    0 -0.27431180316E+03  0.12112866044E+03  0.53503599194E+03  0.62018412854E+03  0.91900614197E+02 0.  0.
          3    1    3    3  502    0  0.37004494086E+03 -0.24345198277E+03 -0.28840579096E+03  0.52856411761E+03  0.00000000000E+00 0. -1.
         -4    1    3    3    0  502  0.59992513711E+02 -0.29515290200E+02 -0.10243605719E+02  0.67640117646E+02  0.00000000000E+00 0.  1.
         13    1    5    5    0    0 -0.36227696361E+02  0.45153916583E+02 -0.18384496016E+03  0.19274410897E+03  0.00000000000E+00 0. -1.
        -13    1    5    5    0    0 -0.11949795505E+03  0.10668469595E+03 -0.18192641522E+03  0.24240174539E+03  0.00000000000E+00 0.  1.
          4    1    6    6  503    0 -0.75142408218E+01 -0.49685227177E+01  0.61991620482E+02  0.62642725381E+02  0.00000000000E+00 0. -1.
         -4    1    6    6    0  503 -0.26679756233E+03  0.12609718316E+03  0.47304437146E+03  0.55754140316E+03  0.00000000000E+00 0.  1.
<mgrwt>
<rscale>  0 0.16464583E+04</rscale>
<asrwt>0</asrwt>
<pdfrwt beam="1">  1        1 0.13699377E+00 0.16464583E+04</pdfrwt>
<pdfrwt beam="2">  1       -2 0.11708842E+00 0.16464583E+04</pdfrwt>
<totfact> 0.87563577E+00</totfact>
</mgrwt>
</event>
<event>
12    5  0.5029243E-008  0.1226916E+04  0.7818608E-02  0.9089618E-01
          1   -1    0    0  501    0  0.00000000000E+00  0.00000000000E+00  0.18433806453E+04  0.18433806453E+04  0.00000000000E+00 0. -1.
         -2   -1    0    0    0  501 -0.00000000000E+00 -0.00000000000E+00 -0.20415247948E+03  0.20415247948E+03  0.00000000000E+00 0.  1.
        -24    2    1    2    0    0 -0.23291020494E+03 -0.10209082113E+03  0.20933953214E+03  0.33895665141E+03  0.79992952762E+02 0.  0.
        254    2    1    2    0    0  0.23291020494E+03  0.10209082113E+03  0.14298886337E+04  0.17085764734E+04  0.89999020067E+03 0.  0.
         23    2    4    4    0    0 -0.30782013622E+03  0.67688129516E+02  0.27332246420E+03  0.42838417060E+03  0.97328870562E+02 0.  0.
         23    2    4    4    0    0  0.54073034116E+03  0.34402691611E+02  0.11565661695E+04  0.12801923028E+04  0.87602400883E+02 0.  0.
          3    1    3    3  502    0  0.15377607996E+01  0.56087042136E+01 -0.12168077566E+01  0.59416237131E+01  0.00000000000E+00 0. -1.
         -4    1    3    3    0  502 -0.23444796574E+03 -0.10769952534E+03  0.21055633989E+03  0.33301502769E+03  0.00000000000E+00 0.  1.
         13    1    5    5    0    0  0.20973650039E+00 -0.76771227430E+01  0.23382873434E+02  0.24611805563E+02  0.00000000000E+00 0. -1.
        -13    1    5    5    0    0 -0.30802987272E+03  0.75365252259E+02  0.24993959077E+03  0.40377236504E+03  0.00000000000E+00 0.  1.
          3    1    6    6  503    0  0.24606937649E+03  0.39681298709E+02  0.44573937307E+03  0.51069397120E+03  0.00000000000E+00 0. -1.
         -3    1    6    6    0  503  0.29466096467E+03 -0.52786070982E+01  0.71082679646E+03  0.76949833162E+03  0.00000000000E+00 0.  1.
<mgrwt>
<rscale>  0 0.12269160E+04</rscale>
<asrwt>0</asrwt>
<pdfrwt beam="1">  1        1 0.28359701E+00 0.12269160E+04</pdfrwt>
<pdfrwt beam="2">  1       -2 0.31408075E-01 0.12269160E+04</pdfrwt>
<totfact> 0.31084294E+01</totfact>
</mgrwt>
</event>
<event>
12    5  0.5029243E-008  0.1896425E+04  0.7818608E-02  0.8656638E-01
         -2   -1    0    0    0  501 -0.00000000000E+00  0.00000000000E+00  0.34397295385E+03  0.34397295385E+03  0.00000000000E+00 0.  1.
          1   -1    0    0  501    0  0.00000000000E+00 -0.00000000000E+00 -0.26138892660E+04  0.26138892660E+04  0.00000000000E+00 0. -1.
        -24    2    1    2    0    0  0.14222740093E+03 -0.16685007168E+03 -0.20011589874E+04  0.20148218754E+04  0.82476157029E+02 0.  0.
        254    2    1    2    0    0 -0.14222740093E+03  0.16685007168E+03 -0.26875732475E+03  0.94304034451E+03  0.87694185199E+03 0.  0.
         23    2    4    4    0    0 -0.28809345596E+03  0.45218068922E+03 -0.27628405148E+03  0.60984674835E+03  0.90083096653E+02 0.  0.
         23    2    4    4    0    0  0.14586605503E+03 -0.28533061754E+03  0.75267267350E+01  0.33319359615E+03  0.90944233384E+02 0.  0.
          3    1    3    3  502    0  0.14060112416E+03 -0.14759554035E+03 -0.19400674541E+04  0.19507472533E+04  0.00000000000E+00 0. -1.
         -4    1    3    3    0  502  0.16262767677E+01 -0.19254531332E+02 -0.61091533307E+02  0.64074622080E+02  0.00000000000E+00 0.  1.
         13    1    5    5    0    0 -0.82633704729E+02  0.11293126758E+03 -0.11714341735E+03  0.18249487824E+03  0.00000000000E+00 0. -1.
        -13    1    5    5    0    0 -0.20545975123E+03  0.33924942164E+03 -0.15914063413E+03  0.42735187011E+03  0.00000000000E+00 0.  1.
          3    1    6    6  503    0 -0.98682243453E+01 -0.92097447299E+01  0.89207427322E+01  0.16179644638E+02  0.00000000000E+00 0. -1.
         -3    1    6    6    0  503  0.15573427938E+03 -0.27612087281E+03 -0.13940159971E+01  0.31701395152E+03  0.00000000000E+00 0.  1.
<mgrwt>
<rscale>  0 0.18964253E+04</rscale>
<asrwt>0</asrwt>
<pdfrwt beam="1">  1        1 0.40213681E+00 0.18964253E+04</pdfrwt>
<pdfrwt beam="2">  1       -2 0.52918916E-01 0.18964253E+04</pdfrwt>
<totfact> 0.31272139E+00</totfact>
</mgrwt>
</event>
<event>
12    5  0.5029243E-008  0.1850672E+04  0.7818608E-02  0.8679808E-01
          1   -1    0    0  501    0  0.00000000000E+00  0.00000000000E+00  0.22459469933E+04  0.22459469933E+04  0.00000000000E+00 0. -1.
         -2   -1    0    0    0  501 -0.00000000000E+00 -0.00000000000E+00 -0.38124063830E+03  0.38124063830E+03  0.00000000000E+00 0.  1.
        -24    2    1    2    0    0  0.62511341943E+03 -0.26304870404E+02  0.24100193251E+03  0.67519726797E+03  0.79691190555E+02 0.  0.
        254    2    1    2    0    0 -0.62511341943E+03  0.26304870404E+02  0.16237044225E+04  0.19519903636E+04  0.88452902421E+03 0.  0.
         23    2    4    4    0    0 -0.44826682163E+03  0.25521119868E+03  0.32101021811E+03  0.61450005547E+03  0.92124148446E+02 0.  0.
         23    2    4    4    0    0 -0.17684659779E+03 -0.22890632827E+03  0.13026942043E+04  0.13374903081E+04  0.90527940446E+02 0.  0.
          3    1    3    3  502    0  0.17759054304E+03 -0.13371253067E+02  0.10743190255E+03  0.20798751182E+03  0.00000000000E+00 0. -1.
         -4    1    3    3    0  502  0.44752287639E+03 -0.12933617337E+02  0.13357002996E+03  0.46720975616E+03  0.00000000000E+00 0.  1.
         13    1    5    5    0    0 -0.44107106468E+03  0.25055504880E+03  0.32745341529E+03  0.60377748862E+03  0.00000000000E+00 0.  1.
        -13    1    5    5    0    0 -0.71957569521E+01  0.46561498806E+01 -0.64431971820E+01  0.10722566845E+02  0.00000000000E+00 0. -1.
          1    1    6    6  503    0 -0.16178820467E+02  0.67766791252E+01  0.62294335225E+02  0.64716781539E+02  0.00000000000E+00 0. -1.
         -1    1    6    6    0  503 -0.16066777733E+03 -0.23568300740E+03  0.12403998691E+04  0.12727735266E+04  0.00000000000E+00 0.  1.
<mgrwt>
<rscale>  0 0.18506715E+04</rscale>
<asrwt>0</asrwt>
<pdfrwt beam="1">  1        1 0.34553030E+00 0.18506715E+04</pdfrwt>
<pdfrwt beam="2">  1       -2 0.58652407E-01 0.18506715E+04</pdfrwt>
<totfact> 0.45456672E+00</totfact>
</mgrwt>
</event>
<event>
12    5  0.5029243E-008  0.1548873E+04  0.7818608E-02  0.8852588E-01
         -2   -1    0    0    0  501 -0.00000000000E+00  0.00000000000E+00  0.18285839312E+04  0.18285839312E+04  0.00000000000E+00 0.  1.
          1   -1    0    0  501    0  0.00000000000E+00 -0.00000000000E+00 -0.32798707349E+03  0.32798707349E+03  0.00000000000E+00 0. -1.
        -24    2    1    2    0    0  0.27282716405E+03  0.36013212949E+03  0.15995438847E+03  0.48574807940E+03  0.78968209563E+02 0.  0.
        254    2    1    2    0    0 -0.27282716405E+03 -0.36013212949E+03  0.13406424692E+04  0.16708229253E+04  0.88893037139E+03 0.  0.
         23    2    4    4    0    0 -0.44335429711E+03  0.12260028450E+03  0.52532350452E+03  0.70376408293E+03  0.87893330233E+02 0.  0.
         23    2    4    4    0    0  0.17052713306E+03 -0.48273241399E+03  0.81531896469E+03  0.96705884233E+03  0.91365768803E+02 0.  0.
          3    1    3    3  502    0  0.52828823381E+02  0.45953347905E+02 -0.42763813064E+00  0.70019837460E+02  0.00000000000E+00 0. -1.
         -4    1    3    3    0  502  0.21999834066E+03  0.31417878158E+03  0.16038202660E+03  0.41572824194E+03  0.00000000000E+00 0.  1.
         13    1    5    5    0    0 -0.16549907315E+02  0.11868948421E+02  0.57003378881E+02  0.60532277114E+02  0.00000000000E+00 0.  1.
        -13    1    5    5    0    0 -0.42680438979E+03  0.11073133608E+03  0.46832012564E+03  0.64323180582E+03  0.00000000000E+00 0. -1.
          4    1    6    6  503    0  0.15456096002E+03 -0.30812296054E+03  0.53914459634E+03  0.63992635900E+03  0.00000000000E+00 0. -1.
         -4    1    6    6    0  503  0.15966173037E+02 -0.17460945344E+03  0.27617436835E+03  0.32713248333E+03  0.00000000000E+00 0.  1.
<mgrwt>
<rscale>  0 0.15488730E+04</rscale>
<asrwt>0</asrwt>
<pdfrwt beam="1">  1        1 0.50459551E-01 0.15488730E+04</pdfrwt>
<pdfrwt beam="2">  1       -2 0.28132060E+00 0.15488730E+04</pdfrwt>
<totfact> 0.27203246E+00</totfact>
</mgrwt>
</event>
<event>
12    5  0.5029243E-008  0.2086592E+04  0.7818608E-02  0.8567173E-01
         -2   -1    0    0    0  501 -0.00000000000E+00  0.00000000000E+00  0.45101308674E+03  0.45101308674E+03  0.00000000000E+00 0.  1.
          1   -1    0    0  501    0  0.00000000000E+00 -0.00000000000E+00 -0.24133820400E+04  0.24133820400E+04  0.00000000000E+00 0. -1.
        -24    2    1    2    0    0  0.34374895001E+03 -0.43902747500E+03  0.75600323288E+02  0.56799584667E+03  0.77430023346E+02 0.  0.
        254    2    1    2    0    0 -0.34374895001E+03  0.43902747500E+03 -0.20379692765E+04  0.22963992800E+04  0.89956790567E+03 0.  0.
         23    2    4    4    0    0 -0.45162723171E+03  0.36401942151E+03 -0.20517756246E+04  0.21341902216E+04  0.92235528137E+02 0.  0.
         23    2    4    4    0    0  0.10787828170E+03  0.75008053488E+02  0.13806348027E+02  0.16220905848E+03  0.94112866596E+02 0.  0.
          3    1    3    3  502    0  0.20994289303E+03 -0.27537112596E+03  0.91157976515E+01  0.34639337914E+03  0.00000000000E+00 0. -1.
         -4    1    3    3    0  502  0.13380605698E+03 -0.16365634904E+03  0.66484525636E+02  0.22160246753E+03  0.00000000000E+00 0.  1.
         13    1    5    5    0    0 -0.51838865978E+02  0.20856356576E+02 -0.12999416692E+03  0.14149466092E+03  0.00000000000E+00 0. -1.
        -13    1    5    5    0    0 -0.39978836573E+03  0.34316306494E+03 -0.19217814576E+04  0.19926955606E+04  0.00000000000E+00 0.  1.
          1    1    6    6  503    0  0.12368644226E+02 -0.22155000716E+02  0.19140544646E+01  0.25445844871E+02  0.00000000000E+00 0. -1.
         -1    1    6    6    0  503  0.95509637470E+02  0.97163054203E+02  0.11892293563E+02  0.13676321361E+03  0.00000000000E+00 0.  1.
<mgrwt>
<rscale>  0 0.20865923E+04</rscale>
<asrwt>0</asrwt>
<pdfrwt beam="1">  1        1 0.37128954E+00 0.20865923E+04</pdfrwt>
<pdfrwt beam="2">  1       -2 0.69386630E-01 0.20865923E+04</pdfrwt>
<totfact> 0.23845380E+00</totfact>
</mgrwt>
</event>
<event>
12    5  0.5029243E-008  0.1359314E+04  0.7818608E-02  0.8983807E-01
          1   -1    0    0  501    0  0.00000000000E+00  0.00000000000E+00  0.28662418281E+03  0.28662418281E+03  0.00000000000E+00 0. -1.
         -2   -1    0    0    0  501 -0.00000000000E+00 -0.00000000000E+00 -0.16116361835E+04  0.16116361835E+04  0.00000000000E+00 0.  1.
        -24    2    1    2    0    0  0.13568705179E+03 -0.14481953943E+03 -0.82171341359E+03  0.84907515636E+03  0.79573940742E+02 0.  0.
        254    2    1    2    0    0 -0.13568705179E+03  0.14481953943E+03 -0.50329858707E+03  0.10491852099E+04  0.89894185683E+03 0.  0.
         23    2    4    4    0    0  0.15346063360E+03  0.38725291968E+03 -0.15469248799E+02  0.42577839962E+03  0.86792615255E+02 0.  0.
         23    2    4    4    0    0 -0.28914768538E+03 -0.24243338025E+03 -0.48782933827E+03  0.62340681030E+03  0.90984943973E+02 0.  0.
          1    1    3    3  502    0  0.18315997394E+02 -0.44006971621E+01 -0.20273134546E+03  0.20360461765E+03  0.00000000000E+00 0. -1.
         -4    1    3    3    0  502  0.11737105439E+03 -0.14041884227E+03 -0.61898206813E+03  0.64547053871E+03  0.00000000000E+00 0.  1.
         13    1    5    5    0    0  0.68795924232E+02  0.75810876995E+02  0.39597032812E+01  0.10244924359E+03  0.00000000000E+00 0.  1.
        -13    1    5    5    0    0  0.84664709365E+02  0.31144204268E+03 -0.19428952080E+02  0.32332915604E+03  0.00000000000E+00 0. -1.
          2    1    6    6  503    0 -0.21426641852E+03 -0.22566448979E+03 -0.38261957269E+03  0.49318586502E+03  0.00000000000E+00 0. -1.
         -2    1    6    6    0  503 -0.74881266862E+02 -0.16768890461E+02 -0.10520976559E+03  0.13022094528E+03  0.00000000000E+00 0.  1.
<mgrwt>
<rscale>  0 0.13593144E+04</rscale>
<asrwt>0</asrwt>
<pdfrwt beam="1">  1        1 0.44096028E-01 0.13593144E+04</pdfrwt>
<pdfrwt beam="2">  1       -2 0.24794403E+00 0.13593144E+04</pdfrwt>
<totfact> 0.52633026E+00</totfact>
</mgrwt>
</event>
<event>
12    5  0.5029243E-008  0.2137109E+04  0.7818608E-02  0.8545070E-01
         -2   -1    0    0    0  501 -0.00000000000E+00  0.00000000000E+00  0.10021583052E+04  0.10021583052E+04  0.00000000000E+00 0.  1.
          1   -1    0    0  501    0  0.00000000000E+00 -0.00000000000E+00 -0.11393499038E+04  0.11393499038E+04  0.00000000000E+00 0. -1.
        -24    2    1    2    0    0  0.83662358057E+03  0.20162044572E+03  0.12657719740E+03  0.87340397027E+03  0.78885288147E+02 0.  0.
        254    2    1    2    0    0 -0.83662358057E+03 -0.20162044572E+03 -0.26376879601E+03  0.12681042388E+04  0.89326623296E+03 0.  0.
         23    2    4    4    0    0 -0.90377021401E+03 -0.40737846335E+03 -0.27303179657E+03  0.10322776422E+04  0.91065671401E+02 0.  0.
         23    2    4    4    0    0  0.67146633439E+02  0.20575801763E+03  0.92630005674E+01  0.23582659657E+03  0.93184485121E+02 0.  0.
          1    1    3    3  502    0  0.17623793146E+03  0.65010521717E+02  0.52093304610E+02  0.19493560169E+03  0.00000000000E+00 0. -1.
         -2    1    3    3    0  502  0.66038564911E+03  0.13660992400E+03  0.74483892786E+02  0.67846836858E+03  0.00000000000E+00 0.  1.
         13    1    5    5    0    0 -0.78868578332E+03 -0.36243524090E+03 -0.26883852530E+03  0.90865764804E+03  0.00000000000E+00 0. -1.
        -13    1    5    5    0    0 -0.11508443069E+03 -0.44943222454E+02 -0.41932712749E+01  0.12361999416E+03  0.00000000000E+00 0.  1.
          1    1    6    6  503    0  0.83247819910E+02  0.17771264850E+03  0.28339786808E+02  0.19828042887E+03  0.00000000000E+00 0. -1.
         -1    1    6    6    0  503 -0.16101186471E+02  0.28045369134E+02 -0.19076786241E+02  0.37546167700E+02  0.00000000000E+00 0.  1.
<mgrwt>
<rscale>  0 0.21371092E+04</rscale>
<asrwt>0</asrwt>
<pdfrwt beam="1">  1        1 0.17528460E+00 0.21371092E+04</pdfrwt>
<pdfrwt beam="2">  1       -2 0.15417820E+00 0.21371092E+04</pdfrwt>
<totfact> 0.26523450E+00</totfact>
</mgrwt>
</event>
<event>
12    5  0.5029243E-008  0.1600139E+04  0.7818608E-02  0.8820463E-01
          1   -1    0    0  501    0  0.00000000000E+00  0.00000000000E+00  0.29877886447E+04  0.29877886447E+04  0.00000000000E+00 0. -1.
         -2   -1    0    0    0  501 -0.00000000000E+00 -0.00000000000E+00 -0.21424246859E+03  0.21424246859E+03  0.00000000000E+00 0.  1.
        -24    2    1    2    0    0 -0.21455386022E+03 -0.47323416550E+03  0.62168863321E+03  0.81415582483E+03  0.79806115803E+02 0.  0.
        254    2    1    2    0    0  0.21455386022E+03  0.47323416550E+03  0.21518575429E+04  0.23878752885E+04  0.89525056492E+03 0.  0.
         23    2    4    4    0    0  0.34773315795E+03  0.48019510620E+03  0.21437394502E+04  0.22259677145E+04  0.88361453122E+02 0.  0.
         23    2    4    4    0    0 -0.13317929773E+03 -0.69609407056E+01  0.81180927088E+01  0.16190757399E+03  0.91449325022E+02 0.  0.
          3    1    3    3  502    0 -0.44249502765E+02 -0.86309036462E+02  0.16836110872E+03  0.19430062069E+03  0.00000000000E+00 0. -1.
         -4    1    3    3    0  502 -0.17030435745E+03 -0.38692512904E+03  0.45332752448E+03  0.61985520414E+03  0.00000000000E+00 0.  1.
         13    1    5    5    0    0  0.21315592853E+03  0.33865171074E+03  0.13155773014E+04  0.13750869307E+04  0.00000000000E+00 0. -1.
        -13    1    5    5    0    0  0.13457722942E+03  0.14154339546E+03  0.82816214885E+03  0.85088078381E+03  0.00000000000E+00 0.  1.
          3    1    6    6  503    0 -0.39328868099E+02 -0.45567870203E+02  0.45293372435E+01  0.60363114206E+02  0.00000000000E+00 0. -1.
         -3    1    6    6    0  503 -0.93850429632E+02  0.38606929497E+02  0.35887554652E+01  0.10154445979E+03  0.00000000000E+00 0.  1.
<mgrwt>
<rscale>  0 0.16001390E+04</rscale>
<asrwt>0</asrwt>
<pdfrwt beam="1">  1        1 0.45965976E+00 0.16001390E+04</pdfrwt>
<pdfrwt beam="2">  1       -2 0.32960382E-01 0.16001390E+04</pdfrwt>
<totfact> 0.44380125E+00</totfact>
</mgrwt>
</event>
<event>
12    5  0.5029243E-008  0.2368101E+04  0.7818608E-02  0.8451544E-01
         -2   -1    0    0    0  501 -0.00000000000E+00  0.00000000000E+00  0.11115488392E+04  0.11115488392E+04  0.00000000000E+00 0.  1.
          1   -1    0    0  501    0  0.00000000000E+00 -0.00000000000E+00 -0.12612809110E+04  0.12612809110E+04  0.00000000000E+00 0. -1.
        -24    2    1    2    0    0  0.47117761629E+03  0.56219332171E+03 -0.76019925121E+03  0.10594395286E+04  0.80246720557E+02 0.  0.
        254    2    1    2    0    0 -0.47117761629E+03 -0.56219332171E+03  0.61046717948E+03  0.13133902216E+04  0.90236024954E+03 0.  0.
         23    2    4    4    0    0 -0.62549457395E+03 -0.34531940601E+03  0.71339344380E+03  0.10137983236E+04  0.91476122510E+02 0.  0.
         23    2    4    4    0    0  0.15431695767E+03 -0.21687391570E+03 -0.10292626432E+03  0.29959189805E+03  0.91178236215E+02 0.  0.
          1    1    3    3  502    0  0.47211759503E+03  0.54718971876E+03 -0.74137901933E+03  0.10353523372E+04  0.00000000000E+00 0. -1.
         -2    1    3    3    0  502 -0.93997873917E+00  0.15003602946E+02 -0.18820231876E+02  0.24087191394E+02  0.00000000000E+00 0.  1.
         13    1    5    5    0    0 -0.50250045167E+03 -0.23425433747E+03  0.55859934863E+03  0.78702924395E+03  0.00000000000E+00 0. -1.
        -13    1    5    5    0    0 -0.12299412229E+03 -0.11106506854E+03  0.15479409518E+03  0.22676907962E+03  0.00000000000E+00 0.  1.
          2    1    6    6  503    0  0.14176780529E+03 -0.21475944885E+03 -0.73641841978E+02  0.26766182465E+03  0.00000000000E+00 0. -1.
         -2    1    6    6    0  503  0.12549152377E+02 -0.21144668483E+01 -0.29284422343E+02  0.31930073402E+02  0.00000000000E+00 0.  1.
<mgrwt>
<rscale>  0 0.23681008E+04</rscale>
<asrwt>0</asrwt>
<pdfrwt beam="1">  1        1 0.19404322E+00 0.23681008E+04</pdfrwt>
<pdfrwt beam="2">  1       -2 0.17100751E+00 0.23681008E+04</pdfrwt>
<totfact> 0.15943003E+00</totfact>
</mgrwt>
</event>
<event>
12    5  0.5029243E-008  0.2155315E+04  0.7818608E-02  0.8537261E-01
          1   -1    0    0  501    0  0.00000000000E+00  0.00000000000E+00  0.93210188318E+03  0.93210188318E+03  0.00000000000E+00 0. -1.
         -2   -1    0    0    0  501 -0.00000000000E+00 -0.00000000000E+00 -0.12459423584E+04  0.12459423584E+04  0.00000000000E+00 0.  1.
        -24    2    1    2    0    0 -0.22855701760E+02  0.88496360970E+03 -0.51993117835E+02  0.89039120217E+03  0.80063943213E+02 0.  0.
        254    2    1    2    0    0  0.22855701760E+02 -0.88496360970E+03 -0.26184735735E+03  0.12876530394E+04  0.89766549319E+03 0.  0.
         23    2    4    4    0    0  0.30196510643E+03 -0.90593649177E+03 -0.26158500976E+03  0.99394173713E+03  0.87118349712E+02 0.  0.
         23    2    4    4    0    0 -0.27910940467E+03  0.20972882064E+02 -0.26234759488E+00  0.29371130225E+03  0.89018754686E+02 0.  0.
          3    1    3    3  502    0  0.19870762301E+01  0.34610483783E+03 -0.57943372325E+02  0.35092725976E+03  0.00000000000E+00 0. -1.
         -4    1    3    3    0  502 -0.24842777990E+02  0.53885877187E+03  0.59502544895E+01  0.53946394242E+03  0.00000000000E+00 0.  1.
         13    1    5    5    0    0  0.18052553346E+03 -0.40965280837E+03 -0.13478473887E+03  0.46751664941E+03  0.00000000000E+00 0. -1.
        -13    1    5    5    0    0  0.12143957297E+03 -0.49628368339E+03 -0.12680027089E+03  0.52642508772E+03  0.00000000000E+00 0.  1.
          3    1    6    6  503    0  0.38770274206E+01 -0.38724371254E+01  0.77875746976E+01  0.95222597413E+01  0.00000000000E+00 0. -1.
         -3    1    6    6    0  503 -0.28298643209E+03  0.24845319189E+02 -0.80499222925E+01  0.28418904251E+03  0.00000000000E+00 0.  1.
<mgrwt>
<rscale>  0 0.21553146E+04</rscale>
<asrwt>0</asrwt>
<pdfrwt beam="1">  1        1 0.14340029E+00 0.21553146E+04</pdfrwt>
<pdfrwt beam="2">  1       -2 0.19168344E+00 0.21553146E+04</pdfrwt>
<totfact> 0.20756048E+00</totfact>
</mgrwt>
</event>
<event>
12    5  0.5029243E-008  0.1908851E+04  0.7818608E-02  0.8650463E-01
          1   -1    0    0  501    0  0.00000000000E+00  0.00000000000E+00  0.18264235063E+04  0.18264235063E+04  0.00000000000E+00 0. -1.
         -2   -1    0    0    0  501 -0.00000000000E+00 -0.00000000000E+00 -0.49874946337E+03  0.49874946337E+03  0.00000000000E+00 0.  1.
        -24    2    1    2    0    0  0.63482627353E+02  0.64268225902E+03  0.70751588187E+02  0.65555312756E+03  0.87599005643E+02 0.  0.
        254    2    1    2    0    0 -0.63482627353E+02 -0.64268225902E+03  0.12569224548E+04  0.16696198422E+04  0.88921641345E+03 0.  0.
         23    2    4    4    0    0  0.93029855529E+01  0.60228994543E+02 -0.95309085216E+02  0.14153364844E+03  0.85052187470E+02 0.  0.
         23    2    4    4    0    0 -0.72785612906E+02 -0.70291125356E+03  0.13522315400E+04  0.15280861937E+04  0.84470715712E+02 0.  0.
          1    1    3    3  502    0  0.34851277603E+02  0.32709371435E+03  0.80000280318E+02  0.33853353507E+03  0.00000000000E+00 0. -1.
         -2    1    3    3    0  502  0.28631349751E+02  0.31558854467E+03 -0.92486921310E+01  0.31701959249E+03  0.00000000000E+00 0.  1.
         13    1    5    5    0    0  0.29397778470E+02  0.70053771441E+02 -0.49842358251E+02  0.90862648806E+02  0.00000000000E+00 0. -1.
        -13    1    5    5    0    0 -0.20094792917E+02 -0.98247768982E+01 -0.45466726964E+02  0.50670999638E+02  0.00000000000E+00 0.  1.
          3    1    6    6  503    0 -0.33345876238E+02 -0.18468730949E+03  0.28836616028E+03  0.34405870450E+03  0.00000000000E+00 0. -1.
         -3    1    6    6    0  503 -0.39439736668E+02 -0.51822394407E+03  0.10638653797E+04  0.11840274892E+04  0.00000000000E+00 0.  1.
<mgrwt>
<rscale>  0 0.19088507E+04</rscale>
<asrwt>0</asrwt>
<pdfrwt beam="1">  1        1 0.28098823E+00 0.19088507E+04</pdfrwt>
<pdfrwt beam="2">  1       -2 0.76730687E-01 0.19088507E+04</pdfrwt>
<totfact> 0.48699252E+00</totfact>
</mgrwt>
</event>
<event>
12    5  0.5029243E-008  0.1858005E+04  0.7818608E-02  0.8676047E-01
         -2   -1    0    0    0  501 -0.00000000000E+00  0.00000000000E+00  0.17583558183E+04  0.17583558183E+04  0.00000000000E+00 0.  1.
          1   -1    0    0  501    0  0.00000000000E+00 -0.00000000000E+00 -0.49082528203E+03  0.49082528203E+03  0.00000000000E+00 0. -1.
        -24    2    1    2    0    0  0.46531557163E+03  0.43840881535E+03  0.85130595627E+03  0.10674839345E+04  0.77969536474E+02 0.  0.
        254    2    1    2    0    0 -0.46531557163E+03 -0.43840881535E+03  0.41622458001E+03  0.11816971659E+04  0.90246574463E+03 0.  0.
         23    2    4    4    0    0  0.52593442980E+02 -0.25979785419E+03  0.54469896913E+03  0.61176925993E+03  0.85461483347E+02 0.  0.
         23    2    4    4    0    0 -0.51790901461E+03 -0.17861096115E+03 -0.12847438913E+03  0.56992790593E+03  0.90446262694E+02 0.  0.
          3    1    3    3  502    0  0.15543328698E+03  0.19756190012E+03  0.34544682397E+03  0.42722794767E+03  0.00000000000E+00 0. -1.
         -4    1    3    3    0  502  0.30988228465E+03  0.24084691523E+03  0.50585913230E+03  0.64025598681E+03  0.00000000000E+00 0.  1.
         13    1    5    5    0    0  0.15102008319E+02 -0.16390883965E+03  0.24746635907E+03  0.29720998846E+03  0.00000000000E+00 0.  1.
        -13    1    5    5    0    0  0.37491434661E+02 -0.95889014548E+02  0.29723261007E+03  0.31455927148E+03  0.00000000000E+00 0. -1.
          1    1    6    6  503    0  0.36742264936E+01  0.16494282486E+00  0.38935129998E+00  0.36984781866E+01  0.00000000000E+00 0. -1.
         -1    1    6    6    0  503 -0.52158324110E+03 -0.17877590398E+03 -0.12886374043E+03  0.56622942774E+03  0.00000000000E+00 0.  1.
<mgrwt>
<rscale>  0 0.18580048E+04</rscale>
<asrwt>0</asrwt>
<pdfrwt beam="1">  1        1 0.75511583E-01 0.18580048E+04</pdfrwt>
<pdfrwt beam="2">  1       -2 0.27051628E+00 0.18580048E+04</pdfrwt>
<totfact> 0.17985820E+00</totfact>
</mgrwt>
</event>
<event>
12    5  0.5029243E-008  0.2274579E+04  0.7818608E-02  0.8488012E-01
          1   -1    0    0  501    0  0.00000000000E+00  0.00000000000E+00  0.60468059579E+03  0.60468059579E+03  0.00000000000E+00 0. -1.
         -2   -1    0    0    0  501 -0.00000000000E+00 -0.00000000000E+00 -0.21390264746E+04  0.21390264746E+04  0.00000000000E+00 0.  1.
        -24    2    1    2    0    0  0.22292902444E+03 -0.35187534667E+03 -0.16873687285E+04  0.17398272030E+04  0.79195081810E+02 0.  0.
        254    2    1    2    0    0 -0.22292902444E+03  0.35187534667E+03  0.15302284969E+03  0.10038798673E+04  0.90046942536E+03 0.  0.
         23    2    4    4    0    0 -0.98614077628E+02  0.84453448078E+02  0.50838731652E+03  0.53282707142E+03  0.92681730885E+02 0.  0.
         23    2    4    4    0    0 -0.12431494681E+03  0.26742189859E+03 -0.35536446683E+03  0.47105279592E+03  0.92941672109E+02 0.  0.
          3    1    3    3  502    0  0.40719186721E+02 -0.35043560702E+02 -0.14190617247E+03  0.15173485130E+03  0.00000000000E+00 0. -1.
         -4    1    3    3    0  502  0.18220983772E+03 -0.31683178597E+03 -0.15454625560E+04  0.15880923517E+04  0.00000000000E+00 0.  1.
         13    1    5    5    0    0  0.12407278736E+02  0.17126469288E+02  0.27339942940E+02  0.34564852031E+02  0.00000000000E+00 0. -1.
        -13    1    5    5    0    0 -0.11102135636E+03  0.67326978790E+02  0.48104737358E+03  0.49826221939E+03  0.00000000000E+00 0.  1.
          2    1    6    6  503    0 -0.59224535789E+02  0.17153724075E+03 -0.15084357630E+03  0.23597956504E+03  0.00000000000E+00 0.  1.
         -2    1    6    6    0  503 -0.65090411022E+02  0.95884657840E+02 -0.20452089053E+03  0.23507323089E+03  0.00000000000E+00 0. -1.
<mgrwt>
<rscale>  0 0.22745793E+04</rscale>
<asrwt>0</asrwt>
<pdfrwt beam="1">  1        1 0.93027782E-01 0.22745793E+04</pdfrwt>
<pdfrwt beam="2">  1       -2 0.32908100E+00 0.22745793E+04</pdfrwt>
<totfact> 0.56579572E-01</totfact>
</mgrwt>
</event>
<event>
12    5  0.5029243E-008  0.2339022E+04  0.7818608E-02  0.8462692E-01
         -2   -1    0    0    0  501 -0.00000000000E+00  0.00000000000E+00  0.55160971770E+03  0.55160971770E+03  0.00000000000E+00 0.  1.
          1   -1    0    0  501    0  0.00000000000E+00 -0.00000000000E+00 -0.24795721216E+04  0.24795721216E+04  0.00000000000E+00 0. -1.
        -24    2    1    2    0    0  0.80504787000E+03 -0.42891677634E+03 -0.30747655747E+03  0.96599517286E+03  0.80828006174E+02 0.  0.
        254    2    1    2    0    0 -0.80504787000E+03  0.42891677634E+03 -0.16204858464E+04  0.20651866664E+04  0.89830390998E+03 0.  0.
         23    2    4    4    0    0 -0.55658860635E+03  0.64199060261E+03 -0.14548940113E+04  0.16872978628E+04  0.91184884126E+02 0.  0.
         23    2    4    4    0    0 -0.24845926365E+03 -0.21307382627E+03 -0.16559183510E+03  0.37788880361E+03  0.90812063699E+02 0.  0.
          3    1    3    3  502    0  0.74139414145E+02 -0.57742346076E+02 -0.12578313986E+02  0.94810575586E+02  0.00000000000E+00 0. -1.
         -4    1    3    3    0  502  0.73090845586E+03 -0.37117443027E+03 -0.29489824349E+03  0.87118459728E+03  0.00000000000E+00 0.  1.
         13    1    5    5    0    0 -0.38030851839E+03  0.42575469888E+03 -0.10575024074E+04  0.12017541239E+04  0.00000000000E+00 0. -1.
        -13    1    5    5    0    0 -0.17628008796E+03  0.21623590373E+03 -0.39739160392E+03  0.48554373885E+03  0.00000000000E+00 0.  1.
          1    1    6    6  503    0 -0.23490223907E+03 -0.19113227338E+03 -0.12047797823E+03  0.32592261518E+03  0.00000000000E+00 0. -1.
         -1    1    6    6    0  503 -0.13557024574E+02 -0.21941552885E+02 -0.45113856871E+02  0.51966188432E+02  0.00000000000E+00 0.  1.
<mgrwt>
<rscale>  0 0.23390221E+04</rscale>
<asrwt>0</asrwt>
<pdfrwt beam="1">  1        1 0.38147264E+00 0.23390221E+04</pdfrwt>
<pdfrwt beam="2">  1       -2 0.84863032E-01 0.23390221E+04</pdfrwt>
<totfact> 0.13400793E+00</totfact>
</mgrwt>
</event>
<event>
12    5  0.5029243E-008  0.1646258E+04  0.7818608E-02  0.8792623E-01
          1   -1    0    0  501    0  0.00000000000E+00  0.00000000000E+00  0.10039723113E+04  0.10039723113E+04  0.00000000000E+00 0. -1.
         -2   -1    0    0    0  501 -0.00000000000E+00 -0.00000000000E+00 -0.67486045308E+03  0.67486045308E+03  0.00000000000E+00 0.  1.
        -24    2    1    2    0    0 -0.50116128325E+03  0.68622729798E+02  0.40470529125E+03  0.65186253750E+03  0.72571924016E+02 0.  0.
        254    2    1    2    0    0  0.50116128325E+03 -0.68622729798E+02 -0.75593433067E+02  0.10269702268E+04  0.89055138471E+03 0.  0.
         23    2    4    4    0    0  0.13919072952E+03 -0.62851687412E+01 -0.45876794758E+03  0.48807658298E+03  0.91308042378E+02 0.  0.
         23    2    4    4    0    0  0.36197055373E+03 -0.62337561057E+02  0.38317451451E+03  0.53889364385E+03  0.93139666780E+02 0.  0.
          1    1    3    3  502    0 -0.27483550136E+03  0.42037860230E+01  0.23655071240E+03  0.36264095765E+03  0.00000000000E+00 0. -1.
         -2    1    3    3    0  502 -0.22632578189E+03  0.64418943775E+02  0.16815457885E+03  0.28922157985E+03  0.00000000000E+00 0.  1.
         13    1    5    5    0    0  0.22759121029E+02 -0.79790380878E+01 -0.23113070029E+03  0.23238554873E+03  0.00000000000E+00 0. -1.
        -13    1    5    5    0    0  0.11643160849E+03  0.16938693467E+01 -0.22763724728E+03  0.25569103426E+03  0.00000000000E+00 0.  1.
          3    1    6    6  503    0  0.16253712341E+03  0.54461830222E+01  0.12166008683E+03  0.20309887770E+03  0.00000000000E+00 0. -1.
         -3    1    6    6    0  503  0.19943343033E+03 -0.67783744079E+02  0.26151442768E+03  0.33579476615E+03  0.00000000000E+00 0.  1.
<mgrwt>
<rscale>  0 0.16462578E+04</rscale>
<asrwt>0</asrwt>
<pdfrwt beam="1">  1        1 0.15445728E+00 0.16462578E+04</pdfrwt>
<pdfrwt beam="2">  1       -2 0.10382468E+00 0.16462578E+04</pdfrwt>
<totfact> 0.95074712E+00</totfact>
</mgrwt>
</event>
<event>
12    5  0.5029243E-008  0.3183595E+04  0.7818608E-02  0.8193163E-01
         -2   -1    0    0    0  501 -0.00000000000E+00  0.00000000000E+00  0.56496842796E+03  0.56496842796E+03  0.00000000000E+00 0.  1.
          1   -1    0    0  501    0  0.00000000000E+00 -0.00000000000E+00 -0.44848861637E+04  0.44848861637E+04  0.00000000000E+00 0. -1.
        -24    2    1    2    0    0  0.14572652949E+03  0.12472332094E+04 -0.30036434204E+04  0.32563272183E+04  0.70471663814E+02 0.  0.
        254    2    1    2    0    0 -0.14572652949E+03 -0.12472332094E+04 -0.91627431532E+03  0.17935273734E+04  0.89462557418E+03 0.  0.
         23    2    4    4    0    0  0.17527892344E+03  0.49432045043E+02 -0.95453240931E+02  0.22301647918E+03  0.86364348560E+02 0.  0.
         23    2    4    4    0    0 -0.32100545293E+03 -0.12966652545E+04 -0.82082107439E+03  0.15705108942E+04  0.91498358531E+02 0.  0.
          3    1    3    3  502    0  0.14508854327E+03  0.12184516668E+04 -0.29573678095E+04  0.32018275266E+04  0.00000000000E+00 0. -1.
         -4    1    3    3    0  502  0.63798622406E+00  0.28781542635E+02 -0.46275610915E+02  0.54499691636E+02  0.00000000000E+00 0.  1.
         13    1    5    5    0    0  0.16997389085E+03  0.38360411422E+02 -0.58072150977E+02  0.18367095430E+03  0.00000000000E+00 0.  1.
        -13    1    5    5    0    0  0.53050325899E+01  0.11071633621E+02 -0.37381089953E+02  0.39345524878E+02  0.00000000000E+00 0. -1.
          3    1    6    6  503    0 -0.10445122251E+03 -0.61136036402E+03 -0.38377069960E+03  0.72935005480E+03  0.00000000000E+00 0. -1.
         -3    1    6    6    0  503 -0.21655423042E+03 -0.68530489047E+03 -0.43705037480E+03  0.84116083939E+03  0.00000000000E+00 0.  1.
<mgrwt>
<rscale>  0 0.31835949E+04</rscale>
<asrwt>0</asrwt>
<pdfrwt beam="1">  1        1 0.68998249E+00 0.31835949E+04</pdfrwt>
<pdfrwt beam="2">  1       -2 0.86918220E-01 0.31835949E+04</pdfrwt>
<totfact> 0.28144992E-02</totfact>
</mgrwt>
</event>
<event>
12    5  0.5029243E-008  0.1844957E+04  0.7818608E-02  0.8682751E-01
          1   -1    0    0  501    0  0.00000000000E+00  0.00000000000E+00  0.13273917528E+04  0.13273917528E+04  0.00000000000E+00 0. -1.
         -2   -1    0    0    0  501 -0.00000000000E+00 -0.00000000000E+00 -0.64108160379E+03  0.64108160379E+03  0.00000000000E+00 0.  1.
        -24    2    1    2    0    0 -0.50294409604E+03  0.23263739451E+03 -0.19922642795E+03  0.59406161497E+03  0.78390762989E+02 0.  0.
        254    2    1    2    0    0  0.50294409604E+03 -0.23263739451E+03  0.88553657694E+03  0.13744117416E+04  0.89317393901E+03 0.  0.
         23    2    4    4    0    0 -0.18522662797E+03 -0.22666860352E+03  0.48248645344E+03  0.57155411384E+03  0.90517223578E+02 0.  0.
         23    2    4    4    0    0  0.68817072400E+03 -0.59687909934E+01  0.40305012349E+03  0.80285762777E+03  0.92284324685E+02 0.  0.
          3    1    3    3  502    0 -0.27570300487E+03  0.95810486798E+02 -0.76163518459E+02  0.30164992594E+03  0.00000000000E+00 0. -1.
         -4    1    3    3    0  502 -0.22724109117E+03  0.13682690771E+03 -0.12306290949E+03  0.29241168903E+03  0.00000000000E+00 0.  1.
         13    1    5    5    0    0 -0.12762928565E+03 -0.10182741306E+03  0.31555587789E+03  0.35529363726E+03  0.00000000000E+00 0. -1.
        -13    1    5    5    0    0 -0.57597342312E+02 -0.12484119046E+03  0.16693057555E+03  0.21626047658E+03  0.00000000000E+00 0.  1.
          2    1    6    6  503    0  0.61793119507E+03 -0.29687962160E+02  0.34242553663E+03  0.70708951701E+03  0.00000000000E+00 0. -1.
         -2    1    6    6    0  503  0.70239528937E+02  0.23719171167E+02  0.60624586859E+02  0.95768110757E+02  0.00000000000E+00 0.  1.
<mgrwt>
<rscale>  0 0.18449568E+04</rscale>
<asrwt>0</asrwt>
<pdfrwt beam="1">  1        1 0.20421412E+00 0.18449568E+04</pdfrwt>
<pdfrwt beam="2">  1       -2 0.98627939E-01 0.18449568E+04</pdfrwt>
<totfact> 0.60867065E+00</totfact>
</mgrwt>
</event>
<event>
12    5  0.5029243E-008  0.1186409E+04  0.7818608E-02  0.9124837E-01
          1   -1    0    0  501    0  0.00000000000E+00  0.00000000000E+00  0.37604606038E+03  0.37604606038E+03  0.00000000000E+00 0. -1.
         -2   -1    0    0    0  501 -0.00000000000E+00 -0.00000000000E+00 -0.93576703557E+03  0.93576703557E+03  0.00000000000E+00 0.  1.
        -24    2    1    2    0    0 -0.15171266031E+03 -0.26322223916E+02  0.84897467581E+02  0.19342787401E+03  0.80605035029E+02 0.  0.
        254    2    1    2    0    0  0.15171266031E+03  0.26322223916E+02 -0.64461844277E+03  0.11183852219E+04  0.90085680169E+03 0.  0.
         23    2    4    4    0    0  0.23650537453E+03 -0.25799098381E+03 -0.71421903128E+03  0.80060026532E+03  0.91421115097E+02 0.  0.
         23    2    4    4    0    0 -0.84792714223E+02  0.28431320772E+03  0.69600588506E+02  0.31778495663E+03  0.90106782581E+02 0.  0.
          3    1    3    3  502    0 -0.70705202308E+02 -0.50542467958E+02  0.58825671378E+02  0.10494868419E+03  0.00000000000E+00 0. -1.
         -4    1    3    3    0  502 -0.81007458003E+02  0.24220244042E+02  0.26071796203E+02  0.88479189818E+02  0.00000000000E+00 0.  1.
         13    1    5    5    0    0  0.16772401321E+03 -0.12880098978E+03 -0.36301664925E+03  0.42012156242E+03  0.00000000000E+00 0.  1.
        -13    1    5    5    0    0  0.68781361326E+02 -0.12918999403E+03 -0.35120238202E+03  0.38047870290E+03  0.00000000000E+00 0. -1.
          1    1    6    6  503    0 -0.24075501647E+02  0.17191654510E+03  0.27800768712E+01  0.17361640788E+03  0.00000000000E+00 0. -1.
         -1    1    6    6    0  503 -0.60717212577E+02  0.11239666262E+03  0.66820511635E+02  0.14416854874E+03  0.00000000000E+00 0.  1.
<mgrwt>
<rscale>  0 0.11864089E+04</rscale>
<asrwt>0</asrwt>
<pdfrwt beam="1">  1        1 0.57853240E-01 0.11864089E+04</pdfrwt>
<pdfrwt beam="2">  1       -2 0.14396416E+00 0.11864089E+04</pdfrwt>
<totfact> 0.18801243E+01</totfact>
</mgrwt>
</event>
<event>
12    5  0.6147571E-008  0.1413855E+04  0.7818608E-02  0.8943850E-01
          1   -1    0    0  501    0  0.00000000000E+00  0.00000000000E+00  0.14108308440E+04  0.14108308440E+04  0.00000000000E+00 0. -1.
         -2   -1    0    0    0  501 -0.00000000000E+00 -0.00000000000E+00 -0.35422165946E+03  0.35422165946E+03  0.00000000000E+00 0.  1.
        -24    2    1    2    0    0 -0.31624750295E+03  0.58021425469E+02  0.58043396481E+03  0.66846338976E+03  0.80998438369E+02 0.  0.
        254    2    1    2    0    0  0.31624750295E+03 -0.58021425469E+02  0.47617521975E+03  0.10965891137E+04  0.93401599316E+03 0.  0.
         23    2    4    4    0    0  0.19376999276E+03 -0.81493646861E+02  0.74916141356E+03  0.78360537670E+03  0.92771430165E+02 0.  0.
         23    2    4    4    0    0  0.12247751019E+03  0.23472221392E+02 -0.27298619382E+03  0.31298373701E+03  0.88801305973E+02 0.  0.
          3    1    3    3  502    0 -0.24918056485E+03  0.65764480170E+02  0.40020105553E+03  0.47600084622E+03  0.00000000000E+00 0. -1.
         -4    1    3    3    0  502 -0.67066938092E+02 -0.77430547008E+01  0.18023290928E+03  0.19246254355E+03  0.00000000000E+00 0.  1.
         13    1    5    5    0    0  0.67043681190E+02 -0.77920697360E+02  0.35179421560E+03  0.36650465262E+03  0.00000000000E+00 0. -1.
        -13    1    5    5    0    0  0.12672631157E+03 -0.35729495014E+01  0.39736719797E+03  0.41710072408E+03  0.00000000000E+00 0.  1.
          3    1    6    6  503    0  0.11865811329E+03  0.47668961618E+02 -0.21703919877E+03  0.25190889534E+03  0.00000000000E+00 0. -1.
         -3    1    6    6    0  503  0.38193968977E+01 -0.24196740226E+02 -0.55946995050E+02  0.61074841673E+02  0.00000000000E+00 0.  1.
<mgrwt>
<rscale>  0 0.14138555E+04</rscale>
<asrwt>0</asrwt>
<pdfrwt beam="1">  1        1 0.21705090E+00 0.14138555E+04</pdfrwt>
<pdfrwt beam="2">  1       -2 0.54495641E-01 0.14138555E+04</pdfrwt>
<totfact> 0.20443975E+01</totfact>
</mgrwt>
</event>
<event>
12    5  0.5029243E-008  0.1538443E+04  0.7818608E-02  0.8859284E-01
         -2   -1    0    0    0  501 -0.00000000000E+00  0.00000000000E+00  0.70703163326E+03  0.70703163326E+03  0.00000000000E+00 0.  1.
          1   -1    0    0  501    0  0.00000000000E+00 -0.00000000000E+00 -0.83688162433E+03  0.83688162433E+03  0.00000000000E+00 0. -1.
        -24    2    1    2    0    0  0.28444938842E+03  0.41796965682E+03 -0.44248662164E+02  0.51369777994E+03  0.79481925114E+02 0.  0.
        254    2    1    2    0    0 -0.28444938842E+03 -0.41796965682E+03 -0.85601328909E+02  0.10302154776E+04  0.89353581589E+03 0.  0.
         23    2    4    4    0    0 -0.61785991327E+02  0.22057572452E+03  0.17123250386E+03  0.30104186831E+03  0.93991899258E+02 0.  0.
         23    2    4    4    0    0 -0.22266339709E+03 -0.63854538134E+03 -0.25683383276E+03  0.72917360934E+03  0.91713371246E+02 0.  0.
          1    1    3    3  502    0  0.12698587480E+03  0.23287937497E+03 -0.53160315585E+02  0.27052584874E+03  0.00000000000E+00 0. -1.
         -4    1    3    3    0  502  0.15746351361E+03  0.18509028185E+03  0.89116534216E+01  0.24317193119E+03  0.00000000000E+00 0.  1.
         13    1    5    5    0    0 -0.61780013168E+01  0.11337449981E+03  0.34619989437E+02  0.11870336380E+03  0.00000000000E+00 0.  1.
        -13    1    5    5    0    0 -0.55607990011E+02  0.10720122471E+03  0.13661251442E+03  0.18233850451E+03  0.00000000000E+00 0. -1.
          2    1    6    6  503    0 -0.18082854400E+03 -0.42780674170E+03 -0.20768014791E+03  0.50877167217E+03  0.00000000000E+00 0.  1.
         -2    1    6    6    0  503 -0.41834853087E+02 -0.21073863964E+03 -0.49153684854E+02  0.22040193717E+03  0.00000000000E+00 0. -1.
<mgrwt>
<rscale>  0 0.15384431E+04</rscale>
<asrwt>0</asrwt>
<pdfrwt beam="1">  1        1 0.12875102E+00 0.15384431E+04</pdfrwt>
<pdfrwt beam="2">  1       -2 0.10877410E+00 0.15384431E+04</pdfrwt>
<totfact> 0.11719975E+01</totfact>
</mgrwt>
</event>
<event>
12    5  0.5029243E-008  0.1470003E+04  0.7818608E-02  0.8904649E-01
          1   -1    0    0  501    0  0.00000000000E+00  0.00000000000E+00  0.47736404195E+03  0.47736404195E+03  0.00000000000E+00 0. -1.
         -2   -1    0    0    0  501 -0.00000000000E+00 -0.00000000000E+00 -0.11316882191E+04  0.11316882191E+04  0.00000000000E+00 0.  1.
        -24    2    1    2    0    0 -0.28242414039E+03 -0.10507152906E+03 -0.58182502152E+03  0.66047089060E+03  0.83054321810E+02 0.  0.
        254    2    1    2    0    0  0.28242414039E+03  0.10507152906E+03 -0.72499155667E+02  0.94858137049E+03  0.89651941840E+03 0.  0.
         23    2    4    4    0    0  0.35491781258E+03  0.33073116502E+03 -0.32501618689E+03  0.59142911115E+03  0.93824914470E+02 0.  0.
         23    2    4    4    0    0 -0.72493672188E+02 -0.22565963596E+03  0.25251703122E+03  0.35715225934E+03  0.87265580166E+02 0.  0.
          1    1    3    3  502    0 -0.44507997658E+01 -0.25622395629E+01  0.22061372671E+01  0.55894303622E+01  0.00000000000E+00 0. -1.
         -2    1    3    3    0  502 -0.27797334063E+03 -0.10250928950E+03 -0.58403115879E+03  0.65488146024E+03  0.00000000000E+00 0.  1.
         13    1    5    5    0    0  0.33465757669E+03  0.32851678874E+03 -0.32582047347E+03  0.57103235902E+03  0.00000000000E+00 0.  1.
        -13    1    5    5    0    0  0.20260235886E+02  0.22143762831E+01  0.80428657855E+00  0.20396752129E+02  0.00000000000E+00 0. -1.
          4    1    6    6  503    0  0.18430219242E+02 -0.31953678142E+02  0.23575174084E+02  0.43777840983E+02  0.00000000000E+00 0. -1.
         -4    1    6    6    0  503 -0.90923891431E+02 -0.19370595782E+03  0.22894185714E+03  0.31337441835E+03  0.00000000000E+00 0.  1.
<mgrwt>
<rscale>  0 0.14700031E+04</rscale>
<asrwt>0</asrwt>
<pdfrwt beam="1">  1        1 0.73440623E-01 0.14700031E+04</pdfrwt>
<pdfrwt beam="2">  1       -2 0.17410588E+00 0.14700031E+04</pdfrwt>
<totfact> 0.79772522E+00</totfact>
</mgrwt>
</event>
<event>
12    5  0.5029243E-008  0.4062185E+04  0.7818608E-02  0.7992118E-01
          1   -1    0    0  501    0  0.00000000000E+00  0.00000000000E+00  0.34295616115E+04  0.34295616115E+04  0.00000000000E+00 0. -1.
         -2   -1    0    0    0  501 -0.00000000000E+00 -0.00000000000E+00 -0.12028759369E+04  0.12028759369E+04  0.00000000000E+00 0.  1.
        -24    2    1    2    0    0  0.48454797351E+03 -0.11088649384E+04 -0.65577171149E+03  0.13787275042E+04  0.80528274514E+02 0.  0.
        254    2    1    2    0    0 -0.48454797351E+03  0.11088649384E+04  0.28824573861E+04  0.32537100442E+04  0.90205336809E+03 0.  0.
         23    2    4    4    0    0  0.21774386786E+03  0.12362940030E+03  0.80184133920E+03  0.84479233330E+03  0.89598730679E+02 0.  0.
         23    2    4    4    0    0 -0.70229184137E+03  0.98523553812E+03  0.20806160469E+04  0.24089177109E+04  0.10009249391E+03 0.  0.
          3    1    3    3  502    0  0.76710189476E+02 -0.22843137601E+03 -0.15845438593E+03  0.28839753664E+03  0.00000000000E+00 0. -1.
         -4    1    3    3    0  502  0.40783778403E+03 -0.88043356241E+03 -0.49731732556E+03  0.10903299676E+04  0.00000000000E+00 0.  1.
         13    1    5    5    0    0  0.61960967719E+02  0.61889485820E+02  0.17161465676E+03  0.19266826514E+03  0.00000000000E+00 0. -1.
        -13    1    5    5    0    0  0.15578290014E+03  0.61739914482E+02  0.63022668244E+03  0.65212406816E+03  0.00000000000E+00 0.  1.
          4    1    6    6  503    0 -0.58928205177E+03  0.81399353874E+03  0.17966091828E+04  0.20585537091E+04  0.00000000000E+00 0.  1.
         -4    1    6    6    0  503 -0.11300978960E+03  0.17124199938E+03  0.28400686415E+03  0.35036400183E+03  0.00000000000E+00 0. -1.
<mgrwt>
<rscale>  0 0.40621852E+04</rscale>
<asrwt>0</asrwt>
<pdfrwt beam="1">  1        1 0.52762486E+00 0.40621852E+04</pdfrwt>
<pdfrwt beam="2">  1       -2 0.18505784E+00 0.40621852E+04</pdfrwt>
<totfact> 0.32546951E-02</totfact>
</mgrwt>
</event>
<event>
12    5  0.5029243E-008  0.1224035E+04  0.7818608E-02  0.9092075E-01
         -2   -1    0    0    0  501 -0.00000000000E+00  0.00000000000E+00  0.20591598666E+03  0.20591598666E+03  0.00000000000E+00 0.  1.
          1   -1    0    0  501    0  0.00000000000E+00 -0.00000000000E+00 -0.18190193456E+04  0.18190193456E+04  0.00000000000E+00 0. -1.
        -24    2    1    2    0    0 -0.60554271002E+02 -0.17405574657E+03 -0.69975616484E+03  0.72813060878E+03  0.80952273339E+02 0.  0.
        254    2    1    2    0    0  0.60554271002E+02  0.17405574657E+03 -0.91334719405E+03  0.12968047234E+04  0.90196295443E+03 0.  0.
         23    2    4    4    0    0  0.17733786641E+03  0.38012320529E+03 -0.94744715743E+03  0.10403149378E+04  0.93041301127E+02 0.  0.
         23    2    4    4    0    0 -0.11678359540E+03 -0.20606745871E+03  0.34099963372E+02  0.25648978559E+03  0.92314662500E+02 0.  0.
          3    1    3    3  502    0 -0.29444687380E+02 -0.77690206092E+02 -0.46652329212E+03  0.47386362999E+03  0.00000000000E+00 0. -1.
         -4    1    3    3    0  502 -0.31109583622E+02 -0.96365540482E+02 -0.23323287273E+03  0.25426697880E+03  0.00000000000E+00 0.  1.
         13    1    5    5    0    0  0.24532320441E+02  0.31520387707E+02 -0.41205463005E+02  0.57386930297E+02  0.00000000000E+00 0. -1.
        -13    1    5    5    0    0  0.15280554597E+03  0.34860281758E+03 -0.90624169442E+03  0.98292800754E+03  0.00000000000E+00 0.  1.
          3    1    6    6  503    0 -0.57972191900E+02 -0.24516432074E+02  0.14935851708E+02  0.64690881441E+02  0.00000000000E+00 0. -1.
         -3    1    6    6    0  503 -0.58811403504E+02 -0.18155102664E+03  0.19164111664E+02  0.19179890415E+03  0.00000000000E+00 0.  1.
<mgrwt>
<rscale>  0 0.12240346E+04</rscale>
<asrwt>0</asrwt>
<pdfrwt beam="1">  1        1 0.27984914E+00 0.12240346E+04</pdfrwt>
<pdfrwt beam="2">  1       -2 0.31679381E-01 0.12240346E+04</pdfrwt>
<totfact> 0.31776204E+01</totfact>
</mgrwt>
</event>
<event>
12    5  0.5029243E-008  0.2146114E+04  0.7818608E-02  0.8541197E-01
         -2   -1    0    0    0  501 -0.00000000000E+00  0.00000000000E+00  0.21185633055E+04  0.21185633055E+04  0.00000000000E+00 0.  1.
          1   -1    0    0  501    0  0.00000000000E+00 -0.00000000000E+00 -0.54350576476E+03  0.54350576476E+03  0.00000000000E+00 0. -1.
        -24    2    1    2    0    0 -0.73895199180E+03 -0.45506932682E+03  0.83923985602E+03  0.12099364712E+04  0.80526951327E+02 0.  0.
        254    2    1    2    0    0  0.73895199180E+03  0.45506932682E+03  0.73581768471E+03  0.14521325991E+04  0.90228780434E+03 0.  0.
         23    2    4    4    0    0  0.14140423455E+03 -0.23941025339E+03  0.41233223871E+02  0.29879092865E+03  0.10130850564E+03 0.  0.
         23    2    4    4    0    0  0.59754775725E+03  0.69447958021E+03  0.69458446084E+03  0.11533416705E+04  0.91565419535E+02 0.  0.
          1    1    3    3  502    0 -0.15579570230E+03 -0.13311834677E+03  0.21536370598E+03  0.29727818783E+03  0.00000000000E+00 0. -1.
         -2    1    3    3    0  502 -0.58315628950E+03 -0.32195098005E+03  0.62387615004E+03  0.91265828333E+03  0.00000000000E+00 0.  1.
         13    1    5    5    0    0  0.13364489909E+02 -0.27218406272E+02 -0.28210247373E+02  0.41415809630E+02  0.00000000000E+00 0. -1.
        -13    1    5    5    0    0  0.12803974464E+03 -0.21219184712E+03  0.69443471244E+02  0.25737511902E+03  0.00000000000E+00 0.  1.
          2    1    6    6  503    0  0.21629977311E+03  0.32019273912E+03  0.28494976858E+03  0.48010972980E+03  0.00000000000E+00 0. -1.
         -2    1    6    6    0  503  0.38124798414E+03  0.37428684109E+03  0.40963469227E+03  0.67323194066E+03  0.00000000000E+00 0.  1.
<mgrwt>
<rscale>  0 0.21461140E+04</rscale>
<asrwt>0</asrwt>
<pdfrwt beam="1">  1        1 0.83616273E-01 0.21461140E+04</pdfrwt>
<pdfrwt beam="2">  1       -2 0.32593281E+00 0.21461140E+04</pdfrwt>
<totfact> 0.69708290E-01</totfact>
</mgrwt>
</event>
<event>
12    5  0.5029243E-008  0.1576990E+04  0.7818608E-02  0.8834810E-01
         -2   -1    0    0    0  501 -0.00000000000E+00  0.00000000000E+00  0.56333255146E+03  0.56333255146E+03  0.00000000000E+00 0.  1.
          1   -1    0    0  501    0  0.00000000000E+00 -0.00000000000E+00 -0.11036546548E+04  0.11036546548E+04  0.00000000000E+00 0. -1.
        -24    2    1    2    0    0  0.25575951026E+03 -0.31576044430E+03  0.17453210474E+03  0.44909994620E+03  0.78177495583E+02 0.  0.
        254    2    1    2    0    0 -0.25575951026E+03  0.31576044430E+03 -0.71485420809E+03  0.12178872601E+04  0.89839593397E+03 0.  0.
         23    2    4    4    0    0 -0.44062718101E+03  0.46859425284E+03 -0.70795882416E+03  0.96111497426E+03  0.93826491970E+02 0.  0.
         23    2    4    4    0    0  0.18486767074E+03 -0.15283380854E+03 -0.68953839263E+01  0.25677228583E+03  0.91379602385E+02 0.  0.
          3    1    3    3  502    0 -0.48899625720E+01 -0.15114485905E+01  0.45582904114E+01  0.68537743085E+01  0.00000000000E+00 0. -1.
         -4    1    3    3    0  502  0.26064947284E+03 -0.31424899571E+03  0.16997381433E+03  0.44224617189E+03  0.00000000000E+00 0.  1.
         13    1    5    5    0    0 -0.12917329527E+03  0.16815967137E+03 -0.29205300775E+03  0.36091325082E+03  0.00000000000E+00 0. -1.
        -13    1    5    5    0    0 -0.31145388574E+03  0.30043458147E+03 -0.41590581642E+03  0.60020172343E+03  0.00000000000E+00 0.  1.
          2    1    6    6  503    0  0.14898745122E+03 -0.93740475993E+02 -0.39398363915E+02  0.18037951253E+03  0.00000000000E+00 0.  1.
         -2    1    6    6    0  503  0.35880219517E+02 -0.59093332545E+02  0.32502979989E+02  0.76392773297E+02  0.00000000000E+00 0. -1.
<mgrwt>
<rscale>  0 0.15769903E+04</rscale>
<asrwt>0</asrwt>
<pdfrwt beam="1">  1        1 0.16979302E+00 0.15769903E+04</pdfrwt>
<pdfrwt beam="2">  1       -2 0.86666547E-01 0.15769903E+04</pdfrwt>
<totfact> 0.12241765E+01</totfact>
</mgrwt>
</event>
<event>
12    5  0.5029243E-008  0.1603932E+04  0.7818608E-02  0.8818136E-01
          1   -1    0    0  501    0  0.00000000000E+00  0.00000000000E+00  0.13694685644E+04  0.13694685644E+04  0.00000000000E+00 0. -1.
         -2   -1    0    0    0  501 -0.00000000000E+00 -0.00000000000E+00 -0.46963427775E+03  0.46963427775E+03  0.00000000000E+00 0.  1.
        -24    2    1    2    0    0  0.49281931870E+03 -0.35147536831E+02  0.47574357853E+02  0.50257763120E+03  0.78833531127E+02 0.  0.
        254    2    1    2    0    0 -0.49281931870E+03  0.35147536831E+02  0.85225992875E+03  0.13365252109E+04  0.90324217296E+03 0.  0.
         23    2    4    4    0    0 -0.56432382698E+03 -0.28069218338E+03  0.75263618583E+03  0.98602950609E+03  0.92430920973E+02 0.  0.
         23    2    4    4    0    0  0.71504508286E+02  0.31583972021E+03  0.99623742922E+02  0.35049570482E+03  0.89748121851E+02 0.  0.
          3    1    3    3  502    0  0.16293994761E+03 -0.12799088201E+02  0.53236944335E+02  0.17189361660E+03  0.00000000000E+00 0. -1.
         -4    1    3    3    0  502  0.32987937109E+03 -0.22348448629E+02 -0.56625864824E+01  0.33068401460E+03  0.00000000000E+00 0.  1.
         13    1    5    5    0    0 -0.24240478420E+03 -0.15841307494E+03  0.39236678889E+03  0.48765405642E+03  0.00000000000E+00 0.  1.
        -13    1    5    5    0    0 -0.32191904279E+03 -0.12227910843E+03  0.36026939694E+03  0.49837544968E+03  0.00000000000E+00 0. -1.
          4    1    6    6  503    0  0.61906453193E+02  0.31807672136E+03  0.10309069462E+03  0.34004838029E+03  0.00000000000E+00 0. -1.
         -4    1    6    6    0  503  0.95980550928E+01 -0.22370011555E+01 -0.34669516975E+01  0.10447324529E+02  0.00000000000E+00 0.  1.
<mgrwt>
<rscale>  0 0.16039319E+04</rscale>
<asrwt>0</asrwt>
<pdfrwt beam="1">  1        1 0.21068747E+00 0.16039319E+04</pdfrwt>
<pdfrwt beam="2">  1       -2 0.72251428E-01 0.16039319E+04</pdfrwt>
<totfact> 0.11781888E+01</totfact>
</mgrwt>
</event>
<event>
12    5  0.5029243E-008  0.1586041E+04  0.7818608E-02  0.8829170E-01
          1   -1    0    0  501    0  0.00000000000E+00  0.00000000000E+00  0.22066596755E+04  0.22066596755E+04  0.00000000000E+00 0. -1.
         -2   -1    0    0    0  501 -0.00000000000E+00 -0.00000000000E+00 -0.28499235893E+03  0.28499235893E+03  0.00000000000E+00 0.  1.
        -24    2    1    2    0    0 -0.22405807236E+03  0.11013806709E+02  0.14171056828E+04  0.14369201323E+04  0.78915313060E+02 0.  0.
        254    2    1    2    0    0  0.22405807236E+03 -0.11013806709E+02  0.50456163371E+03  0.10547319021E+04  0.89863987186E+03 0.  0.
         23    2    4    4    0    0 -0.28780633895E+03 -0.18291121362E+03  0.31959619437E+03  0.47659935866E+03  0.93360700569E+02 0.  0.
         23    2    4    4    0    0  0.51186441131E+03  0.17189740691E+03  0.18496543934E+03  0.57813254341E+03  0.92038741503E+02 0.  0.
          3    1    3    3  502    0 -0.15647427944E+03  0.22155513365E+02  0.11651935951E+04  0.11758618886E+04  0.00000000000E+00 0. -1.
         -4    1    3    3    0  502 -0.67583792916E+02 -0.11141706656E+02  0.25191208767E+03  0.26105824371E+03  0.00000000000E+00 0.  1.
         13    1    5    5    0    0  0.48171067122E+01  0.36343662460E+01  0.92440722524E+01  0.11039293768E+02  0.00000000000E+00 0.  1.
        -13    1    5    5    0    0 -0.29262344566E+03 -0.18654557987E+03  0.31035212212E+03  0.46556006489E+03  0.00000000000E+00 0. -1.
          4    1    6    6  503    0  0.37825459121E+03  0.10217958096E+03  0.16857587014E+03  0.42653842328E+03  0.00000000000E+00 0. -1.
         -4    1    6    6    0  503  0.13360982010E+03  0.69717825953E+02  0.16389569201E+02  0.15159412014E+03  0.00000000000E+00 0.  1.
<mgrwt>
<rscale>  0 0.15860405E+04</rscale>
<asrwt>0</asrwt>
<pdfrwt beam="1">  1        1 0.33948609E+00 0.15860405E+04</pdfrwt>
<pdfrwt beam="2">  1       -2 0.43844980E-01 0.15860405E+04</pdfrwt>
<totfact> 0.89787105E+00</totfact>
</mgrwt>
</event>
<event>
12    5  0.5029243E-008  0.1421155E+04  0.7818608E-02  0.8938646E-01
         -2   -1    0    0    0  501 -0.00000000000E+00  0.00000000000E+00  0.22100489512E+03  0.22100489512E+03  0.00000000000E+00 0.  1.
          1   -1    0    0  501    0  0.00000000000E+00 -0.00000000000E+00 -0.22846566740E+04  0.22846566740E+04  0.00000000000E+00 0. -1.
        -24    2    1    2    0    0  0.25983775137E+03  0.33071627944E+03 -0.55892091219E+03  0.70387707036E+03  0.78494774155E+02 0.  0.
        254    2    1    2    0    0 -0.25983775137E+03 -0.33071627944E+03 -0.15047308666E+04  0.18017844987E+04  0.89739817487E+03 0.  0.
         23    2    4    4    0    0 -0.28323780203E+03 -0.21929062618E+03 -0.88216243627E+02  0.37789419395E+03  0.81913887379E+02 0.  0.
         23    2    4    4    0    0  0.23400050665E+02 -0.11142565326E+03 -0.14165146230E+04  0.14238903048E+04  0.89368250687E+02 0.  0.
          1    1    3    3  502    0  0.63277754554E+02  0.35007432364E+02 -0.10708548265E+03  0.12921646620E+03  0.00000000000E+00 0. -1.
         -2    1    3    3    0  502  0.19655999682E+03  0.29570884708E+03 -0.45183542954E+03  0.57466060416E+03  0.00000000000E+00 0.  1.
         13    1    5    5    0    0 -0.78879769459E+01  0.60328701950E+01  0.33984651997E+01  0.10495964406E+02  0.00000000000E+00 0. -1.
        -13    1    5    5    0    0 -0.27534982509E+03 -0.22532349638E+03 -0.91614708827E+02  0.36739822954E+03  0.00000000000E+00 0.  1.
          1    1    6    6  503    0  0.31915320579E+02 -0.99571348025E+02 -0.75406260736E+03  0.76127751632E+03  0.00000000000E+00 0. -1.
         -1    1    6    6    0  503 -0.85152699147E+01 -0.11854305235E+02 -0.66245201566E+03  0.66261278846E+03  0.00000000000E+00 0.  1.
<mgrwt>
<rscale>  0 0.14211549E+04</rscale>
<asrwt>0</asrwt>
<pdfrwt beam="1">  1        1 0.35148564E+00 0.14211549E+04</pdfrwt>
<pdfrwt beam="2">  1       -2 0.34000754E-01 0.14211549E+04</pdfrwt>
<totfact> 0.13222217E+01</totfact>
</mgrwt>
</event>
<event>
12    5  0.5029243E-008  0.1646912E+04  0.7818608E-02  0.8792235E-01
         -4   -1    0    0    0  501 -0.00000000000E+00  0.00000000000E+00  0.44712160117E+03  0.44712160117E+03  0.00000000000E+00 0.  1.
          1   -1    0    0  501    0  0.00000000000E+00 -0.00000000000E+00 -0.15165442248E+04  0.15165442248E+04  0.00000000000E+00 0. -1.
        -24    2    1    2    0    0  0.38295793889E+03 -0.11436188141E+03 -0.86370226931E+03  0.95514103068E+03  0.81100897689E+02 0.  0.
        254    2    1    2    0    0 -0.38295793889E+03  0.11436188141E+03 -0.20572035429E+03  0.10085247953E+04  0.90281004403E+03 0.  0.
         23    2    4    4    0    0 -0.35055285139E+03  0.41232814767E+03  0.11420324220E+03  0.56060865249E+03  0.91311980257E+02 0.  0.
         23    2    4    4    0    0 -0.32405087508E+02 -0.29796626626E+03 -0.31992359649E+03  0.44791614277E+03  0.91890031204E+02 0.  0.
          1    1    3    3  502    0  0.28978159733E+03 -0.78684776863E+02 -0.72090331879E+03  0.78093934676E+03  0.00000000000E+00 0. -1.
         -2    1    3    3    0  502  0.93176341559E+02 -0.35677104546E+02 -0.14279895051E+03  0.17420168393E+03  0.00000000000E+00 0.  1.
         13    1    5    5    0    0 -0.17335952617E+03  0.14340839663E+03  0.24608652389E+02  0.22632958116E+03  0.00000000000E+00 0. -1.
        -13    1    5    5    0    0 -0.17719332522E+03  0.26891975104E+03  0.89594589813E+02  0.33427907133E+03  0.00000000000E+00 0.  1.
          4    1    6    6  503    0 -0.41029335507E+02 -0.18450834777E+03 -0.25333697094E+03  0.31607966973E+03  0.00000000000E+00 0.  1.
         -4    1    6    6    0  503  0.86242479991E+01 -0.11345791849E+03 -0.66586625553E+02  0.13183647305E+03  0.00000000000E+00 0. -1.
<mgrwt>
<rscale>  0 0.16469119E+04</rscale>
<asrwt>0</asrwt>
<pdfrwt beam="1">  1        1 0.23331450E+00 0.16469119E+04</pdfrwt>
<pdfrwt beam="2">  1       -4 0.68787938E-01 0.16469119E+04</pdfrwt>
<totfact> 0.58151124E+00</totfact>
</mgrwt>
</event>
<event>
12    5  0.5029243E-008  0.1753284E+04  0.7818608E-02  0.8731545E-01
         -2   -1    0    0    0  501 -0.00000000000E+00  0.00000000000E+00  0.97107221988E+03  0.97107221988E+03  0.00000000000E+00 0.  1.
          1   -1    0    0  501    0  0.00000000000E+00 -0.00000000000E+00 -0.79139463665E+03  0.79139463665E+03  0.00000000000E+00 0. -1.
        -24    2    1    2    0    0 -0.55422162387E+03  0.25946799171E+03  0.22540084661E+03  0.65697767616E+03  0.79554247107E+02 0.  0.
        254    2    1    2    0    0  0.55422162387E+03 -0.25946799171E+03 -0.45723263386E+02  0.11054891804E+04  0.91952730466E+03 0.  0.
         23    2    4    4    0    0  0.57782350506E+03 -0.27093140609E+03  0.32562351700E+03  0.72215651633E+03  0.90529163473E+02 0.  0.
         23    2    4    4    0    0 -0.23601881187E+02  0.11463414388E+02 -0.37134678039E+03  0.38333266404E+03  0.91416854854E+02 0.  0.
          1    1    3    3  502    0 -0.88457507305E+02  0.19836008381E+02  0.12262086667E+02  0.91479815241E+02  0.00000000000E+00 0. -1.
         -2    1    3    3    0  502 -0.46576411657E+03  0.23963198332E+03  0.21313875995E+03  0.56549786092E+03  0.00000000000E+00 0.  1.
         13    1    5    5    0    0  0.27730519278E+03 -0.98470871310E+02  0.11058096673E+03  0.31436099097E+03  0.00000000000E+00 0. -1.
        -13    1    5    5    0    0  0.30051831228E+03 -0.17246053478E+03  0.21504255028E+03  0.40779552536E+03  0.00000000000E+00 0.  1.
          2    1    6    6  503    0 -0.37932516959E+02  0.34411438183E+02 -0.32980198225E+03  0.33375495564E+03  0.00000000000E+00 0.  1.
         -2    1    6    6    0  503  0.14330635772E+02 -0.22948023795E+02 -0.41544798144E+02  0.49577708403E+02  0.00000000000E+00 0. -1.
<mgrwt>
<rscale>  0 0.17532842E+04</rscale>
<asrwt>0</asrwt>
<pdfrwt beam="1">  1        1 0.12175302E+00 0.17532842E+04</pdfrwt>
<pdfrwt beam="2">  1       -2 0.14939573E+00 0.17532842E+04</pdfrwt>
<totfact> 0.56516782E+00</totfact>
</mgrwt>
</event>
<event>
12    5  0.5029243E-008  0.1609514E+04  0.7818608E-02  0.8814724E-01
         -2   -1    0    0    0  501 -0.00000000000E+00  0.00000000000E+00  0.98692253411E+03  0.98692253411E+03  0.00000000000E+00 0.  1.
          1   -1    0    0  501    0  0.00000000000E+00 -0.00000000000E+00 -0.65621584683E+03  0.65621584683E+03  0.00000000000E+00 0. -1.
        -24    2    1    2    0    0  0.21403314464E+03  0.46052410017E+03  0.32535756887E+03  0.60849791189E+03  0.80743589923E+02 0.  0.
        254    2    1    2    0    0 -0.21403314464E+03 -0.46052410017E+03  0.53491184042E+01  0.10346404690E+04  0.90142090794E+03 0.  0.
         23    2    4    4    0    0 -0.20256922873E+03  0.52801798630E+02 -0.33947909374E+03  0.40964132590E+03  0.93475335965E+02 0.  0.
         23    2    4    4    0    0 -0.11463915917E+02 -0.51332589880E+03  0.34482821215E+03  0.62499914314E+03  0.89902910323E+02 0.  0.
          1    1    3    3  502    0  0.13852825759E+03  0.22372056597E+03  0.13717586560E+03  0.29674599895E+03  0.00000000000E+00 0. -1.
         -4    1    3    3    0  502  0.75504887048E+02  0.23680353421E+03  0.18818170327E+03  0.31175191295E+03  0.00000000000E+00 0.  1.
         13    1    5    5    0    0 -0.12274151864E+03  0.24694945957E+02 -0.11601940924E+03  0.17069219101E+03  0.00000000000E+00 0.  1.
        -13    1    5    5    0    0 -0.79827710089E+02  0.28106852673E+02 -0.22345968451E+03  0.23894913489E+03  0.00000000000E+00 0. -1.
          3    1    6    6  503    0 -0.22175126400E+02 -0.13669145196E+03  0.52450467539E+02  0.14807883311E+03  0.00000000000E+00 0. -1.
         -3    1    6    6    0  503  0.10711210483E+02 -0.37663444684E+03  0.29237774461E+03  0.47692031003E+03  0.00000000000E+00 0.  1.
<mgrwt>
<rscale>  0 0.16095145E+04</rscale>
<asrwt>0</asrwt>
<pdfrwt beam="1">  1        1 0.10095628E+00 0.16095145E+04</pdfrwt>
<pdfrwt beam="2">  1       -2 0.15183424E+00 0.16095145E+04</pdfrwt>
<totfact> 0.73069173E+00</totfact>
</mgrwt>
</event>
<event>
12    5  0.5029243E-008  0.1728320E+04  0.7818608E-02  0.8745375E-01
          1   -1    0    0  501    0  0.00000000000E+00  0.00000000000E+00  0.97488432464E+03  0.97488432464E+03  0.00000000000E+00 0. -1.
         -2   -1    0    0    0  501 -0.00000000000E+00 -0.00000000000E+00 -0.76601142751E+03  0.76601142751E+03  0.00000000000E+00 0.  1.
        -24    2    1    2    0    0 -0.54675639288E+03 -0.51523671832E+02  0.36947077300E+03  0.66674946520E+03  0.80305387916E+02 0.  0.
        254    2    1    2    0    0  0.54675639288E+03  0.51523671832E+02 -0.16059787588E+03  0.10741462869E+04  0.90906618356E+03 0.  0.
         23    2    4    4    0    0  0.16552267439E+03  0.24562569564E+03  0.30533725408E+03  0.43545686303E+03  0.93070418144E+02 0.  0.
         23    2    4    4    0    0  0.38123371849E+03 -0.19410202381E+03 -0.46593512997E+03  0.63868942391E+03  0.88396216641E+02 0.  0.
          3    1    3    3  502    0 -0.42987318483E+03 -0.59128973283E+02  0.25674968877E+03  0.50419003679E+03  0.00000000000E+00 0. -1.
         -4    1    3    3    0  502 -0.11688320806E+03  0.76053014502E+01  0.11272108423E+03  0.16255942842E+03  0.00000000000E+00 0.  1.
         13    1    5    5    0    0  0.14737333576E+03  0.15465464169E+03  0.24372113462E+03  0.32409404460E+03  0.00000000000E+00 0. -1.
        -13    1    5    5    0    0  0.18149338634E+02  0.90971053955E+02  0.61616119465E+02  0.11136281843E+03  0.00000000000E+00 0.  1.
          1    1    6    6  503    0  0.37592227247E+03 -0.17432388091E+03 -0.42892775232E+03  0.59639365112E+03  0.00000000000E+00 0. -1.
         -1    1    6    6    0  503  0.53114460285E+01 -0.19778142896E+02 -0.37007377648E+02  0.42295772788E+02  0.00000000000E+00 0.  1.
<mgrwt>
<rscale>  0 0.17283200E+04</rscale>
<asrwt>0</asrwt>
<pdfrwt beam="1">  1        1 0.14998220E+00 0.17283200E+04</pdfrwt>
<pdfrwt beam="2">  1       -2 0.11784791E+00 0.17283200E+04</pdfrwt>
<totfact> 0.73180244E+00</totfact>
</mgrwt>
</event>
<event>
12    5  0.5029243E-008  0.1505575E+04  0.7818608E-02  0.8880754E-01
         -2   -1    0    0    0  501 -0.00000000000E+00  0.00000000000E+00  0.45627426869E+03  0.45627426869E+03  0.00000000000E+00 0.  1.
          1   -1    0    0  501    0  0.00000000000E+00 -0.00000000000E+00 -0.12419913119E+04  0.12419913119E+04  0.00000000000E+00 0. -1.
        -24    2    1    2    0    0  0.37482011256E+03 -0.94443306744E+02 -0.49687965897E+03  0.63433930205E+03  0.78021148817E+02 0.  0.
        254    2    1    2    0    0 -0.37482011256E+03  0.94443306744E+02 -0.28883738428E+03  0.10639262786E+04  0.94821012266E+03 0.  0.
         23    2    4    4    0    0 -0.65463462933E+03  0.19903449566E+03 -0.29731491368E+03  0.75148529125E+03  0.90403300120E+02 0.  0.
         23    2    4    4    0    0  0.27981451678E+03 -0.10459118892E+03  0.84775294042E+01  0.31244098733E+03  0.91170288258E+02 0.  0.
          1    1    3    3  502    0  0.32378230778E+03 -0.56914877750E+02 -0.38976291631E+03  0.50989157384E+03  0.00000000000E+00 0. -1.
         -2    1    3    3    0  502  0.51037804775E+02 -0.37528428994E+02 -0.10711674266E+03  0.12444772821E+03  0.00000000000E+00 0.  1.
         13    1    5    5    0    0 -0.32511000013E+02  0.28038356255E+02 -0.52113703645E+01  0.43246652176E+02  0.00000000000E+00 0.  1.
        -13    1    5    5    0    0 -0.62212362932E+03  0.17099613941E+03 -0.29210354332E+03  0.70823863907E+03  0.00000000000E+00 0. -1.
          3    1    6    6  503    0  0.27753635338E+03 -0.11162756733E+03  0.18809384578E+02  0.29973477306E+03  0.00000000000E+00 0. -1.
         -3    1    6    6    0  503  0.22781633961E+01  0.70363784129E+01 -0.10331855174E+02  0.12706214266E+02  0.00000000000E+00 0.  1.
<mgrwt>
<rscale>  0 0.15055745E+04</rscale>
<asrwt>0</asrwt>
<pdfrwt beam="1">  1        1 0.19107558E+00 0.15055745E+04</pdfrwt>
<pdfrwt beam="2">  1       -2 0.70196042E-01 0.15055745E+04</pdfrwt>
<totfact> 0.15605081E+01</totfact>
</mgrwt>
</event>
<event>
12    5  0.5029243E-008  0.2190166E+04  0.7818608E-02  0.8522532E-01
          1   -1    0    0  501    0  0.00000000000E+00  0.00000000000E+00  0.87176950136E+03  0.87176950136E+03  0.00000000000E+00 0. -1.
         -2   -1    0    0    0  501 -0.00000000000E+00 -0.00000000000E+00 -0.13756008340E+04  0.13756008340E+04  0.00000000000E+00 0.  1.
        -24    2    1    2    0    0  0.78655921033E+03 -0.25262729378E+03 -0.15857703996E+03  0.84495180758E+03  0.79378451746E+02 0.  0.
        254    2    1    2    0    0 -0.78655921033E+03  0.25262729378E+03 -0.34525429263E+03  0.14024185277E+04  0.10793892993E+04 0.  0.
         23    2    4    4    0    0 -0.54836978100E+03  0.64277500655E+03 -0.53395599527E+02  0.85245457013E+03  0.99792676716E+02 0.  0.
         23    2    4    4    0    0 -0.23818942933E+03 -0.39014771277E+03 -0.29185869310E+03  0.54996395760E+03  0.91265633719E+02 0.  0.
          3    1    3    3  502    0  0.66100402194E+03 -0.24202463597E+03 -0.13641712067E+03  0.71701594979E+03  0.00000000000E+00 0. -1.
         -4    1    3    3    0  502  0.12555518840E+03 -0.10602657808E+02 -0.22159919288E+02  0.12793585779E+03  0.00000000000E+00 0.  1.
         13    1    5    5    0    0 -0.47191296175E+03  0.52332683915E+03 -0.12254871141E+02  0.70478578725E+03  0.00000000000E+00 0.  1.
        -13    1    5    5    0    0 -0.76456819250E+02  0.11944816740E+03 -0.41140728386E+02  0.14766878288E+03  0.00000000000E+00 0. -1.
          4    1    6    6  503    0  0.23651793647E+01 -0.42045319288E+02 -0.36637794374E+02  0.55818732735E+02  0.00000000000E+00 0. -1.
         -4    1    6    6    0  503 -0.24055460870E+03 -0.34810239348E+03 -0.25522089873E+03  0.49414522487E+03  0.00000000000E+00 0.  1.
<mgrwt>
<rscale>  0 0.21901661E+04</rscale>
<asrwt>0</asrwt>
<pdfrwt beam="1">  1        1 0.13411839E+00 0.21901661E+04</pdfrwt>
<pdfrwt beam="2">  1       -2 0.21163090E+00 0.21901661E+04</pdfrwt>
<totfact> 0.17161961E+00</totfact>
</mgrwt>
</event>
<event>
12    5  0.5029243E-008  0.2022313E+04  0.7818608E-02  0.8596259E-01
          1   -1    0    0  501    0  0.00000000000E+00  0.00000000000E+00  0.97537351792E+03  0.97537351792E+03  0.00000000000E+00 0. -1.
         -2   -1    0    0    0  501 -0.00000000000E+00 -0.00000000000E+00 -0.10482524197E+04  0.10482524197E+04  0.00000000000E+00 0.  1.
        -24    2    1    2    0    0 -0.42475464410E+03  0.37749812574E+03 -0.61043898430E+03  0.83746035255E+03  0.76044368155E+02 0.  0.
        254    2    1    2    0    0  0.42475464410E+03 -0.37749812574E+03  0.53756008256E+03  0.11861655850E+04  0.89168189962E+03 0.  0.
         23    2    4    4    0    0 -0.72780361885E+01  0.26442747004E+03  0.12497807679E+03  0.30543469889E+03  0.87726728441E+02 0.  0.
         23    2    4    4    0    0  0.43203268028E+03 -0.64192559578E+03  0.41258200576E+03  0.88073088613E+03  0.82111357027E+02 0.  0.
          3    1    3    3  502    0 -0.31025535376E+01  0.54719966501E+00 -0.18466645452E+02  0.18733452970E+02  0.00000000000E+00 0. -1.
         -4    1    3    3    0  502 -0.42165209056E+03  0.37695092608E+03 -0.59197233884E+03  0.81872689958E+03  0.00000000000E+00 0.  1.
         13    1    5    5    0    0  0.45807704699E+01  0.25935599215E+03  0.10130596249E+03  0.27847695086E+03  0.00000000000E+00 0. -1.
        -13    1    5    5    0    0 -0.11858806658E+02  0.50714778915E+01  0.23672114304E+02  0.26957748033E+02  0.00000000000E+00 0.  1.
          1    1    6    6  503    0  0.40117900211E+03 -0.57909816734E+03  0.39833128780E+03  0.80930037316E+03  0.00000000000E+00 0. -1.
         -1    1    6    6    0  503  0.30853678174E+02 -0.62827428441E+02  0.14250717964E+02  0.71430512975E+02  0.00000000000E+00 0.  1.
<mgrwt>
<rscale>  0 0.20223132E+04</rscale>
<asrwt>0</asrwt>
<pdfrwt beam="1">  1        1 0.15005747E+00 0.20223132E+04</pdfrwt>
<pdfrwt beam="2">  1       -2 0.16126960E+00 0.20223132E+04</pdfrwt>
<totfact> 0.31650691E+00</totfact>
</mgrwt>
</event>
<event>
12    5  0.5029243E-008  0.2400100E+04  0.7818608E-02  0.8439466E-01
         -2   -1    0    0    0  501 -0.00000000000E+00  0.00000000000E+00  0.10995106092E+04  0.10995106092E+04  0.00000000000E+00 0.  1.
          1   -1    0    0  501    0  0.00000000000E+00 -0.00000000000E+00 -0.13097829424E+04  0.13097829424E+04  0.00000000000E+00 0. -1.
        -24    2    1    2    0    0  0.25180643707E+03 -0.56226210867E+02  0.90980083219E+03  0.94907151067E+03  0.80195446016E+02 0.  0.
        254    2    1    2    0    0 -0.25180643707E+03  0.56226210867E+02 -0.11200731654E+04  0.14602220410E+04  0.90062014446E+03 0.  0.
         23    2    4    4    0    0 -0.32582870513E+03 -0.10939516458E+03 -0.11927014224E+04  0.12445069772E+04  0.90162554489E+02 0.  0.
         23    2    4    4    0    0  0.74022268061E+02  0.16562137544E+03  0.72628256971E+02  0.21571506380E+03  0.91369518253E+02 0.  0.
          3    1    3    3  502    0  0.67942326136E+02 -0.25966595268E+02  0.14929711978E+03  0.16607243518E+03  0.00000000000E+00 0. -1.
         -4    1    3    3    0  502  0.18386411093E+03 -0.30259615599E+02  0.76050371241E+03  0.78299907549E+03  0.00000000000E+00 0.  1.
         13    1    5    5    0    0 -0.31058687644E+03 -0.79339312345E+02 -0.10478291747E+04  0.10957668153E+04  0.00000000000E+00 0. -1.
        -13    1    5    5    0    0 -0.15241828693E+02 -0.30055852231E+02 -0.14487224770E+03  0.14874016186E+03  0.00000000000E+00 0.  1.
          3    1    6    6  503    0  0.52496568422E+02  0.16481140199E+03  0.82946760358E+02  0.19183027127E+03  0.00000000000E+00 0. -1.
         -3    1    6    6    0  503  0.21525699640E+02  0.80997345536E+00 -0.10318503387E+02  0.23884792528E+02  0.00000000000E+00 0.  1.
<mgrwt>
<rscale>  0 0.24001002E+04</rscale>
<asrwt>0</asrwt>
<pdfrwt beam="1">  1        1 0.20150507E+00 0.24001002E+04</pdfrwt>
<pdfrwt beam="2">  1       -2 0.16915548E+00 0.24001002E+04</pdfrwt>
<totfact> 0.15128728E+00</totfact>
</mgrwt>
</event>
<event>
12    5  0.5029243E-008  0.1627255E+04  0.7818608E-02  0.8803977E-01
         -2   -1    0    0    0  501 -0.00000000000E+00  0.00000000000E+00  0.80625406217E+03  0.80625406217E+03  0.00000000000E+00 0.  1.
          1   -1    0    0  501    0  0.00000000000E+00 -0.00000000000E+00 -0.82106847691E+03  0.82106847691E+03  0.00000000000E+00 0. -1.
        -24    2    1    2    0    0 -0.47753718504E+03  0.19796970567E+03  0.21073616421E+03  0.56388248852E+03  0.79498191743E+02 0.  0.
        254    2    1    2    0    0  0.47753718504E+03 -0.19796970567E+03 -0.22555057895E+03  0.10634400506E+04  0.90155305446E+03 0.  0.
         23    2    4    4    0    0  0.26629948003E+03 -0.10683573053E+03 -0.56662461531E+03  0.64152635072E+03  0.90351079731E+02 0.  0.
         23    2    4    4    0    0  0.21123770502E+03 -0.91133975139E+02  0.34107403636E+03  0.42191369985E+03  0.93556947336E+02 0.  0.
          1    1    3    3  502    0 -0.12762740382E+03  0.61966412721E+02  0.96098729136E+02  0.17135797692E+03  0.00000000000E+00 0. -1.
         -2    1    3    3    0  502 -0.34990978122E+03  0.13600329295E+03  0.11463743507E+03  0.39252451160E+03  0.00000000000E+00 0.  1.
         13    1    5    5    0    0  0.19215307514E+02 -0.39613693209E+02 -0.68293375040E+02  0.81255509394E+02  0.00000000000E+00 0. -1.
        -13    1    5    5    0    0  0.24708417251E+03 -0.67222037320E+02 -0.49833124027E+03  0.56027084132E+03  0.00000000000E+00 0.  1.
          4    1    6    6  503    0  0.49515348388E+02 -0.63458930364E+02  0.79448807317E+02  0.11309694316E+03  0.00000000000E+00 0. -1.
         -4    1    6    6    0  503  0.16172235663E+03 -0.27675044775E+02  0.26162522904E+03  0.30881675668E+03  0.00000000000E+00 0.  1.
<mgrwt>
<rscale>  0 0.16272551E+04</rscale>
<asrwt>0</asrwt>
<pdfrwt beam="1">  1        1 0.12631823E+00 0.16272551E+04</pdfrwt>
<pdfrwt beam="2">  1       -2 0.12403909E+00 0.16272551E+04</pdfrwt>
<totfact> 0.86904758E+00</totfact>
</mgrwt>
</event>
<event>
12    5  0.5029243E-008  0.1394220E+04  0.7818608E-02  0.8958013E-01
         -4   -1    0    0    0  501 -0.00000000000E+00  0.00000000000E+00  0.10970772712E+04  0.10970772712E+04  0.00000000000E+00 0.  1.
          1   -1    0    0  501    0  0.00000000000E+00 -0.00000000000E+00 -0.44296100719E+03  0.44296100719E+03  0.00000000000E+00 0. -1.
        -24    2    1    2    0    0 -0.54181942581E+02 -0.37173256478E+03  0.40736007979E+02  0.38628231035E+03  0.80211086049E+02 0.  0.
        254    2    1    2    0    0  0.54181942581E+02  0.37173256478E+03  0.61338025607E+03  0.11537559681E+04  0.90210681890E+03 0.  0.
         23    2    4    4    0    0 -0.83139956212E+01  0.63757489761E+03  0.57442279131E+03  0.86275643127E+03  0.88409523991E+02 0.  0.
         23    2    4    4    0    0  0.62495938202E+02 -0.26584233283E+03  0.38957464758E+02  0.29099953681E+03  0.92656128482E+02 0.  0.
          3    1    3    3  502    0 -0.45577440816E+02 -0.25543504685E+03 -0.87138364206E+01  0.25961567213E+03  0.00000000000E+00 0. -1.
         -4    1    3    3    0  502 -0.86045017655E+01 -0.11629751793E+03  0.49449844400E+02  0.12666663822E+03  0.00000000000E+00 0.  1.
         13    1    5    5    0    0 -0.11932225102E+02  0.54385766361E+03  0.52805655460E+03  0.75813406540E+03  0.00000000000E+00 0. -1.
        -13    1    5    5    0    0  0.36182294805E+01  0.93717233997E+02  0.46366236706E+02  0.10462236586E+03  0.00000000000E+00 0.  1.
          4    1    6    6  503    0  0.49992687980E+02 -0.21159207889E+03  0.68527212493E+02  0.22796152209E+03  0.00000000000E+00 0. -1.
         -4    1    6    6    0  503  0.12503250222E+02 -0.54250253942E+02 -0.29569747735E+02  0.63038014721E+02  0.00000000000E+00 0.  1.
<mgrwt>
<rscale>  0 0.13942201E+04</rscale>
<asrwt>0</asrwt>
<pdfrwt beam="1">  1        1 0.68147848E-01 0.13942201E+04</pdfrwt>
<pdfrwt beam="2">  1       -4 0.16878112E+00 0.13942201E+04</pdfrwt>
<totfact> 0.52609104E+00</totfact>
</mgrwt>
</event>
<event>
12    5  0.5029243E-008  0.1541094E+04  0.7818608E-02  0.8857577E-01
          1   -1    0    0  501    0  0.00000000000E+00  0.00000000000E+00  0.79314814106E+03  0.79314814106E+03  0.00000000000E+00 0. -1.
         -2   -1    0    0    0  501 -0.00000000000E+00 -0.00000000000E+00 -0.74858962800E+03  0.74858962800E+03  0.00000000000E+00 0.  1.
        -24    2    1    2    0    0  0.62035344735E+02 -0.48110045181E+03 -0.30203116335E+02  0.49239015219E+03  0.78929113798E+02 0.  0.
        254    2    1    2    0    0 -0.62035344735E+02  0.48110045181E+03  0.74761629397E+02  0.10493476169E+04  0.92748859351E+03 0.  0.
         23    2    4    4    0    0 -0.20224319597E+03 -0.22223675916E+03  0.88578565127E+02  0.32612208634E+03  0.90652995323E+02 0.  0.
         23    2    4    4    0    0  0.14020785124E+03  0.70333721097E+03 -0.13816935730E+02  0.72322553053E+03  0.92318938537E+02 0.  0.
          3    1    3    3  502    0  0.45164037294E+02 -0.15996598631E+03 -0.38839555645E+02  0.17069686032E+03  0.00000000000E+00 0. -1.
         -4    1    3    3    0  502  0.16871307441E+02 -0.32113446550E+03  0.86364393099E+01  0.32169329186E+03  0.00000000000E+00 0.  1.
         13    1    5    5    0    0 -0.11196593213E+03 -0.60489016382E+02  0.21211030484E+02  0.12901627368E+03  0.00000000000E+00 0. -1.
        -13    1    5    5    0    0 -0.90277263844E+02 -0.16174774278E+03  0.67367534643E+02  0.19710581267E+03  0.00000000000E+00 0.  1.
          3    1    6    6  503    0  0.11451155915E+03  0.62930889277E+03  0.14768992513E+02  0.63981302178E+03  0.00000000000E+00 0. -1.
         -3    1    6    6    0  503  0.25696292081E+02  0.74028318201E+02 -0.28585928244E+02  0.83412508749E+02  0.00000000000E+00 0.  1.
<mgrwt>
<rscale>  0 0.15410937E+04</rscale>
<asrwt>0</asrwt>
<pdfrwt beam="1">  1        1 0.12202279E+00 0.15410937E+04</pdfrwt>
<pdfrwt beam="2">  1       -2 0.11516764E+00 0.15410937E+04</pdfrwt>
<totfact> 0.11122832E+01</totfact>
</mgrwt>
</event>
<event>
12    5  0.5029243E-008  0.2059475E+04  0.7818608E-02  0.8579308E-01
          1   -1    0    0  501    0  0.00000000000E+00  0.00000000000E+00  0.17809901247E+04  0.17809901247E+04  0.00000000000E+00 0. -1.
         -2   -1    0    0    0  501 -0.00000000000E+00 -0.00000000000E+00 -0.59537613528E+03  0.59537613528E+03  0.00000000000E+00 0.  1.
        -24    2    1    2    0    0 -0.61774896812E+03  0.27935674725E+03 -0.75496398551E+02  0.68680563498E+03  0.79676183428E+02 0.  0.
        254    2    1    2    0    0  0.61774896812E+03 -0.27935674725E+03  0.12611103879E+04  0.16895606250E+04  0.89697364234E+03 0.  0.
         23    2    4    4    0    0  0.41732223952E+02 -0.48774381181E+03  0.65480398987E+03  0.82275265304E+03  0.92293328338E+02 0.  0.
         23    2    4    4    0    0  0.57601674417E+03  0.20838706457E+03  0.60630639807E+03  0.86680797193E+03  0.92348002866E+02 0.  0.
          3    1    3    3  502    0 -0.33281122796E+03  0.11378983150E+03 -0.17244963026E+02  0.35214887187E+03  0.00000000000E+00 0. -1.
         -4    1    3    3    0  502 -0.28493774015E+03  0.16556691575E+03 -0.58251435526E+02  0.33465676311E+03  0.00000000000E+00 0.  1.
         13    1    5    5    0    0  0.35426419226E+02 -0.41262472863E+03  0.49031209485E+03  0.64181005618E+03  0.00000000000E+00 0.  1.
        -13    1    5    5    0    0  0.63058047255E+01 -0.75119083188E+02  0.16449189502E+03  0.18094259687E+03  0.00000000000E+00 0. -1.
          3    1    6    6  503    0  0.63961697791E+01 -0.37333510932E+01 -0.11183089637E+01  0.74899608254E+01  0.00000000000E+00 0. -1.
         -3    1    6    6    0  503  0.56962057439E+03  0.21212041566E+03  0.60742470703E+03  0.85931801111E+03  0.00000000000E+00 0.  1.
<mgrwt>
<rscale>  0 0.20594747E+04</rscale>
<asrwt>0</asrwt>
<pdfrwt beam="1">  1        1 0.27399848E+00 0.20594747E+04</pdfrwt>
<pdfrwt beam="2">  1       -2 0.91596329E-01 0.20594747E+04</pdfrwt>
<totfact> 0.34511779E+00</totfact>
</mgrwt>
</event>
<event>
12    5  0.5029243E-008  0.1204476E+04  0.7818608E-02  0.9108948E-01
          1   -1    0    0  501    0  0.00000000000E+00  0.00000000000E+00  0.18868542845E+04  0.18868542845E+04  0.00000000000E+00 0. -1.
         -2   -1    0    0    0  501 -0.00000000000E+00 -0.00000000000E+00 -0.19221976941E+03  0.19221976941E+03  0.00000000000E+00 0.  1.
        -24    2    1    2    0    0  0.18955977462E+03  0.12562252130E+03  0.51349393470E+03  0.56725859526E+03  0.79952278950E+02 0.  0.
        254    2    1    2    0    0 -0.18955977462E+03 -0.12562252130E+03  0.11811405804E+04  0.15118154587E+04  0.91584877810E+03 0.  0.
         23    2    4    4    0    0 -0.42531284276E+03 -0.25758193201E+03  0.30460733104E+03  0.59014713788E+03  0.90821541010E+02 0.  0.
         23    2    4    4    0    0  0.23575306813E+03  0.13195941071E+03  0.87653324936E+03  0.92166832078E+03  0.90383411560E+02 0.  0.
          3    1    3    3  502    0  0.17347240279E+03  0.83394671444E+02  0.44892753875E+03  0.48844987542E+03  0.00000000000E+00 0. -1.
         -4    1    3    3    0  502  0.16087371836E+02  0.42227849858E+02  0.64566395954E+02  0.78808719839E+02  0.00000000000E+00 0.  1.
         13    1    5    5    0    0 -0.79350318016E+02 -0.50751554157E+02  0.10262008508E+03  0.13929492123E+03  0.00000000000E+00 0.  1.
        -13    1    5    5    0    0 -0.34596252474E+03 -0.20683037785E+03  0.20198724597E+03  0.45085221665E+03  0.00000000000E+00 0. -1.
          4    1    6    6  503    0  0.23191640160E+03  0.13785838540E+03  0.87310756914E+03  0.91384187858E+03  0.00000000000E+00 0. -1.
         -4    1    6    6    0  503  0.38366665294E+01 -0.58989746916E+01  0.34256802142E+01  0.78264421930E+01  0.00000000000E+00 0.  1.
<mgrwt>
<rscale>  0 0.12044761E+04</rscale>
<asrwt>0</asrwt>
<pdfrwt beam="1">  1        1 0.29028526E+00 0.12044761E+04</pdfrwt>
<pdfrwt beam="2">  1       -2 0.29572274E-01 0.12044761E+04</pdfrwt>
<totfact> 0.32572968E+01</totfact>
</mgrwt>
</event>
