<event>
12    5  0.5197392E-008  0.1416001E+04  0.7818608E-02  0.8942317E-01
         -2   -1    0    0    0  501 -0.00000000000E+00  0.00000000000E+00  0.20761668067E+03  0.20761668067E+03  0.00000000000E+00 0.  1.
          1   -1    0    0  501    0  0.00000000000E+00 -0.00000000000E+00 -0.24143769435E+04  0.24143769435E+04  0.00000000000E+00 0. -1.
        -24    2    1    2    0    0  0.28746702331E+01 -0.16162126269E+03  0.50753898025E+02  0.18757224249E+03  0.80484108391E+02 0.  0.
        254    2    1    2    0    0 -0.28746702331E+01  0.16162126269E+03 -0.22575141608E+04  0.24344213817E+04  0.89660893418E+03 0.  0.
         23    2    4    4    0    0 -0.28191202648E+03 -0.19635177011E+03 -0.47824136476E+03  0.59583469530E+03  0.90971274898E+02 0.  0.
         23    2    4    4    0    0  0.27903735625E+03  0.35797303280E+03 -0.17792727961E+04  0.18385866864E+04  0.92643305382E+02 0.  0.
          3    1    3    3  502    0 -0.20914163340E+02 -0.10178158023E+02 -0.61384048049E+01  0.24055709146E+02  0.00000000000E+00 0. -1.
         -4    1    3    3    0  502  0.23788833573E+02 -0.15144310467E+03  0.56892302830E+02  0.16351653334E+03  0.00000000000E+00 0.  1.
         13    1    5    5    0    0 -0.37113885577E+02 -0.71358513217E+02 -0.11417390218E+03  0.13966086728E+03  0.00000000000E+00 0. -1.
        -13    1    5    5    0    0 -0.24479814090E+03 -0.12499325689E+03 -0.36406746257E+03  0.45617382801E+03  0.00000000000E+00 0.  1.
          1    1    6    6  503    0  0.98579497694E+02  0.18336206959E+03 -0.68861521811E+03  0.71939591641E+03  0.00000000000E+00 0. -1.
         -1    1    6    6    0  503  0.18045785855E+03  0.17461096321E+03 -0.10906575780E+04  0.11191907700E+04  0.00000000000E+00 0.  1.
<mgrwt>
<rscale>  0 0.14160013E+04</rscale>
<asrwt>0</asrwt>
<pdfrwt beam="1">  1        1 0.37144262E+00 0.14160013E+04</pdfrwt>
<pdfrwt beam="2">  1       -2 0.31941027E-01 0.14160013E+04</pdfrwt>
<totfact> 0.12137557E+01</totfact>
</mgrwt>
</event>
<event>
12    5  0.5197392E-008  0.1416471E+04  0.7818608E-02  0.8941981E-01
         -4   -1    0    0    0  501 -0.00000000000E+00  0.00000000000E+00  0.67032227334E+03  0.67032227334E+03  0.00000000000E+00 0.  1.
          3   -1    0    0  501    0  0.00000000000E+00 -0.00000000000E+00 -0.74829318909E+03  0.74829318909E+03  0.00000000000E+00 0. -1.
        -24    2    1    2    0    0  0.16413409857E+03  0.40993025935E+02 -0.36119273509E+03  0.40672147581E+03  0.79635020670E+02 0.  0.
        254    2    1    2    0    0 -0.16413409857E+03 -0.40993025935E+02  0.28322181934E+03  0.10118939866E+04  0.95660567149E+03 0.  0.
         23    2    4    4    0    0  0.17639518595E+03 -0.20822864979E+03  0.49112829843E+03  0.56962606954E+03  0.93767912194E+02 0.  0.
         23    2    4    4    0    0 -0.34052928452E+03  0.16723562385E+03 -0.20790647909E+03  0.44226791709E+03  0.91912234983E+02 0.  0.
          3    1    3    3  502    0  0.15362516827E+03  0.12777354869E+02 -0.32451143910E+03  0.35926539943E+03  0.00000000000E+00 0. -1.
         -4    1    3    3    0  502  0.10508930294E+02  0.28215671067E+02 -0.36681295995E+02  0.47456076382E+02  0.00000000000E+00 0.  1.
         13    1    5    5    0    0 -0.94491749468E+01 -0.51280665001E+01  0.74175329590E+01  0.13061537750E+02  0.00000000000E+00 0. -1.
        -13    1    5    5    0    0  0.18584436090E+03 -0.20310058329E+03  0.48371076547E+03  0.55656453179E+03  0.00000000000E+00 0.  1.
          1    1    6    6  503    0 -0.13550963129E+03  0.19092169492E+02 -0.61739463407E+02  0.15013038483E+03  0.00000000000E+00 0. -1.
         -1    1    6    6    0  503 -0.20501965323E+03  0.14814345436E+03 -0.14616701568E+03  0.29213753225E+03  0.00000000000E+00 0.  1.
<mgrwt>
<rscale>  0 0.14164711E+04</rscale>
<asrwt>0</asrwt>
<pdfrwt beam="1">  1        3 0.11512203E+00 0.14164711E+04</pdfrwt>
<pdfrwt beam="2">  1       -4 0.10312650E+00 0.14164711E+04</pdfrwt>
<totfact> 0.10689443E+00</totfact>
</mgrwt>
</event>
<event>
12    5  0.5197392E-008  0.1613984E+04  0.7818608E-02  0.8812003E-01
         -2   -1    0    0    0  501 -0.00000000000E+00  0.00000000000E+00  0.57197604602E+03  0.57197604602E+03  0.00000000000E+00 0.  1.
          1   -1    0    0  501    0  0.00000000000E+00 -0.00000000000E+00 -0.11385725350E+04  0.11385725350E+04  0.00000000000E+00 0. -1.
        -24    2    1    2    0    0 -0.10900811492E+03 -0.11762459489E+03  0.36615795842E+03  0.40657368152E+03  0.74244148249E+02 0.  0.
        254    2    1    2    0    0  0.10900811492E+03  0.11762459489E+03 -0.93275444736E+03  0.13039748995E+04  0.89699574408E+03 0.  0.
         23    2    4    4    0    0  0.18508427560E+03 -0.30622041398E+03 -0.73511831224E+03  0.82265393692E+03  0.91287654809E+02 0.  0.
         23    2    4    4    0    0 -0.76076160679E+02  0.42384500887E+03 -0.19763613512E+03  0.48132096253E+03  0.84721032243E+02 0.  0.
          1    1    3    3  502    0 -0.82550646385E+01  0.74079401313E+01  0.58396615949E+02  0.59440629400E+02  0.00000000000E+00 0. -1.
         -2    1    3    3    0  502 -0.10075305028E+03 -0.12503253502E+03  0.30776134248E+03  0.34713305212E+03  0.00000000000E+00 0.  1.
         13    1    5    5    0    0  0.72687801738E+02 -0.67781475124E+02 -0.13922483538E+03  0.17105963778E+03  0.00000000000E+00 0. -1.
        -13    1    5    5    0    0  0.11239647386E+03 -0.23843893886E+03 -0.59589347686E+03  0.65159429914E+03  0.00000000000E+00 0.  1.
          4    1    6    6  503    0  0.14435255240E+02  0.29843606834E+02 -0.50722169860E+01  0.33537215863E+02  0.00000000000E+00 0. -1.
         -4    1    6    6    0  503 -0.90511415919E+02  0.39400140203E+03 -0.19256391813E+03  0.44778374667E+03  0.00000000000E+00 0.  1.
<mgrwt>
<rscale>  0 0.16139842E+04</rscale>
<asrwt>0</asrwt>
<pdfrwt beam="1">  1        1 0.17516500E+00 0.16139842E+04</pdfrwt>
<pdfrwt beam="2">  1       -2 0.87996315E-01 0.16139842E+04</pdfrwt>
<totfact> 0.11097868E+01</totfact>
</mgrwt>
</event>
<event>
12    5  0.5197392E-008  0.2180930E+04  0.7818608E-02  0.8526408E-01
         -2   -1    0    0    0  501 -0.00000000000E+00  0.00000000000E+00  0.75706956222E+03  0.75706956222E+03  0.00000000000E+00 0.  1.
          1   -1    0    0  501    0  0.00000000000E+00 -0.00000000000E+00 -0.15706799968E+04  0.15706799968E+04  0.00000000000E+00 0. -1.
        -24    2    1    2    0    0  0.40024539203E+03 -0.11563403723E+03  0.51374666221E+03  0.66644397056E+03  0.81512750840E+02 0.  0.
        254    2    1    2    0    0 -0.40024539203E+03  0.11563403723E+03 -0.13273570968E+04  0.16613055884E+04  0.90801530350E+03 0.  0.
         23    2    4    4    0    0  0.10107408435E+03 -0.30642144397E+03 -0.39825690810E+03  0.52075613615E+03  0.92023456989E+02 0.  0.
         23    2    4    4    0    0 -0.50131947638E+03  0.42205548120E+03 -0.92910018865E+03  0.11405494523E+04  0.90409324144E+02 0.  0.
          1    1    3    3  502    0  0.75846227664E+01 -0.13487648415E+02  0.38916808530E+02  0.41880319345E+02  0.00000000000E+00 0. -1.
         -2    1    3    3    0  502  0.39266076927E+03 -0.10214638881E+03  0.47482985368E+03  0.62456365121E+03  0.00000000000E+00 0.  1.
         13    1    5    5    0    0  0.70996347422E+02 -0.79589563147E+02 -0.12220263177E+03  0.16219883822E+03  0.00000000000E+00 0.  1.
        -13    1    5    5    0    0  0.30077736925E+02 -0.22683188083E+03 -0.27605427633E+03  0.35855729793E+03  0.00000000000E+00 0. -1.
          2    1    6    6  503    0  0.35830301787E+01  0.26170088738E+01 -0.27608197647E+01  0.52257981668E+01  0.00000000000E+00 0.  1.
         -2    1    6    6    0  503 -0.50490250656E+03  0.41943847233E+03 -0.92633936889E+03  0.11353236541E+04  0.00000000000E+00 0. -1.
<mgrwt>
<rscale>  0 0.21809301E+04</rscale>
<asrwt>0</asrwt>
<pdfrwt beam="1">  1        1 0.24164308E+00 0.21809301E+04</pdfrwt>
<pdfrwt beam="2">  1       -2 0.11647224E+00 0.21809301E+04</pdfrwt>
<totfact> 0.26789846E+00</totfact>
</mgrwt>
</event>
<event>
12    5  0.5197392E-008  0.1440240E+04  0.7818608E-02  0.8925195E-01
         -2   -1    0    0    0  501 -0.00000000000E+00  0.00000000000E+00  0.98395850375E+03  0.98395850375E+03  0.00000000000E+00 0.  1.
          1   -1    0    0  501    0  0.00000000000E+00 -0.00000000000E+00 -0.52702715003E+03  0.52702715003E+03  0.00000000000E+00 0. -1.
        -24    2    1    2    0    0  0.21246061651E+03  0.33819272003E+03 -0.41562927306E+02  0.40943502874E+03  0.79973347995E+02 0.  0.
        254    2    1    2    0    0 -0.21246061651E+03 -0.33819272003E+03  0.49849428103E+03  0.11015506250E+04  0.89744270116E+03 0.  0.
         23    2    4    4    0    0 -0.52588880945E+03 -0.19316732024E+03  0.47899558774E+03  0.74346196345E+03  0.97088951505E+02 0.  0.
         23    2    4    4    0    0  0.31342819294E+03 -0.14502539978E+03  0.19498693288E+02  0.35808866159E+03  0.92615829128E+02 0.  0.
          1    1    3    3  502    0  0.18347357978E+03  0.22587139086E+03 -0.37023625429E+02  0.29334482870E+03  0.00000000000E+00 0. -1.
         -2    1    3    3    0  502  0.28987036728E+02  0.11232132916E+03 -0.45393018769E+01  0.11609020004E+03  0.00000000000E+00 0.  1.
         13    1    5    5    0    0 -0.10386500254E+03 -0.52218169358E+02  0.15163891191E+03  0.19107337745E+03  0.00000000000E+00 0. -1.
        -13    1    5    5    0    0 -0.42202380691E+03 -0.14094915088E+03  0.32735667583E+03  0.55238858600E+03  0.00000000000E+00 0.  1.
          3    1    6    6  503    0  0.97448220257E+02 -0.79459903745E-01  0.54724777837E+01  0.97601792803E+02  0.00000000000E+00 0. -1.
         -3    1    6    6    0  503  0.21597997269E+03 -0.14494593988E+03  0.14026215505E+02  0.26048686879E+03  0.00000000000E+00 0.  1.
<mgrwt>
<rscale>  0 0.14402400E+04</rscale>
<asrwt>0</asrwt>
<pdfrwt beam="1">  1        1 0.81081100E-01 0.14402400E+04</pdfrwt>
<pdfrwt beam="2">  1       -2 0.15137823E+00 0.14402400E+04</pdfrwt>
<totfact> 0.10232503E+01</totfact>
</mgrwt>
</event>
<event>
12    5  0.5197392E-008  0.1737492E+04  0.7818608E-02  0.8740265E-01
         -2   -1    0    0    0  501 -0.00000000000E+00  0.00000000000E+00  0.84567691347E+03  0.84567691347E+03  0.00000000000E+00 0.  1.
          1   -1    0    0  501    0  0.00000000000E+00 -0.00000000000E+00 -0.89244449760E+03  0.89244449760E+03  0.00000000000E+00 0. -1.
        -24    2    1    2    0    0  0.30353699645E+03  0.51915933776E+03 -0.19819197946E+03  0.63828313599E+03  0.80400091856E+02 0.  0.
        254    2    1    2    0    0 -0.30353699645E+03 -0.51915933776E+03  0.15142439533E+03  0.10998382751E+04  0.90832469834E+03 0.  0.
         23    2    4    4    0    0 -0.13154706837E+03  0.24691131789E+02  0.42960774531E+03  0.45882094772E+03  0.89663616104E+02 0.  0.
         23    2    4    4    0    0 -0.17198992808E+03 -0.54385046955E+03 -0.27818334998E+03  0.64101732735E+03  0.90351365064E+02 0.  0.
          3    1    3    3  502    0  0.15105867152E+03  0.26717435877E+03 -0.14312485453E+03  0.33865260107E+03  0.00000000000E+00 0. -1.
         -4    1    3    3    0  502  0.15247832493E+03  0.25198497899E+03 -0.55067124928E+02  0.29963053492E+03  0.00000000000E+00 0.  1.
         13    1    5    5    0    0 -0.76336644770E+02 -0.27298626194E+01  0.11384006826E+03  0.13709229237E+03  0.00000000000E+00 0. -1.
        -13    1    5    5    0    0 -0.55210423602E+02  0.27420994408E+02  0.31576767705E+03  0.32172865536E+03  0.00000000000E+00 0.  1.
          2    1    6    6  503    0 -0.12075094903E+03 -0.44301364740E+03 -0.25612744940E+03  0.52577861673E+03  0.00000000000E+00 0. -1.
         -2    1    6    6    0  503 -0.51238979054E+02 -0.10083682215E+03 -0.22055900581E+02  0.11523871062E+03  0.00000000000E+00 0.  1.
<mgrwt>
<rscale>  0 0.17374921E+04</rscale>
<asrwt>0</asrwt>
<pdfrwt beam="1">  1        1 0.13729915E+00 0.17374921E+04</pdfrwt>
<pdfrwt beam="2">  1       -2 0.13010414E+00 0.17374921E+04</pdfrwt>
<totfact> 0.66497312E+00</totfact>
</mgrwt>
</event>
<event>
12    5  0.5197392E-008  0.1291188E+04  0.7818608E-02  0.9036583E-01
          1   -1    0    0  501    0  0.00000000000E+00  0.00000000000E+00  0.19169208006E+04  0.19169208006E+04  0.00000000000E+00 0. -1.
         -2   -1    0    0    0  501 -0.00000000000E+00 -0.00000000000E+00 -0.21742759815E+03  0.21742759815E+03  0.00000000000E+00 0.  1.
        -24    2    1    2    0    0  0.30115328526E+03  0.10947646949E+03  0.42835758455E+03  0.54076789716E+03  0.79128375238E+02 0.  0.
        254    2    1    2    0    0 -0.30115328526E+03 -0.10947646949E+03  0.12711356179E+04  0.15935805016E+04  0.90610962767E+03 0.  0.
         23    2    4    4    0    0  0.25991508795E+03 -0.19095502198E+03  0.23618739807E+03  0.41008490126E+03  0.91462920748E+02 0.  0.
         23    2    4    4    0    0 -0.56106837320E+03  0.81478552486E+02  0.10349482198E+04  0.11834956003E+04  0.90041903319E+02 0.  0.
          1    1    3    3  502    0  0.64547003688E+02  0.30818602477E+02  0.15540329646E+03  0.17107392114E+03  0.00000000000E+00 0. -1.
         -2    1    3    3    0  502  0.23660628157E+03  0.78657867012E+02  0.27295428809E+03  0.36969397602E+03  0.00000000000E+00 0.  1.
         13    1    5    5    0    0  0.76820083207E+01 -0.38164590904E+02  0.40425465213E+02  0.56122789386E+02  0.00000000000E+00 0.  1.
        -13    1    5    5    0    0  0.25223307963E+03 -0.15279043107E+03  0.19576193286E+03  0.35396211187E+03  0.00000000000E+00 0. -1.
          2    1    6    6  503    0 -0.51632554393E+03  0.54253961510E+02  0.96862655020E+03  0.10989872399E+04  0.00000000000E+00 0. -1.
         -2    1    6    6    0  503 -0.44742829274E+02  0.27224590976E+02  0.66321669652E+02  0.84508360478E+02  0.00000000000E+00 0.  1.
<mgrwt>
<rscale>  0 0.12911878E+04</rscale>
<asrwt>0</asrwt>
<pdfrwt beam="1">  1        1 0.29491088E+00 0.12911878E+04</pdfrwt>
<pdfrwt beam="2">  1       -2 0.33450401E-01 0.12911878E+04</pdfrwt>
<totfact> 0.24482809E+01</totfact>
</mgrwt>
</event>
<event>
12    5  0.5197392E-008  0.1245708E+04  0.7818608E-02  0.9073763E-01
          1   -1    0    0  501    0  0.00000000000E+00  0.00000000000E+00  0.20725715235E+04  0.20725715235E+04  0.00000000000E+00 0. -1.
         -2   -1    0    0    0  501 -0.00000000000E+00 -0.00000000000E+00 -0.18718158919E+03  0.18718158919E+03  0.00000000000E+00 0.  1.
        -24    2    1    2    0    0 -0.13472723628E+03  0.19050197141E+03  0.13464111855E+03  0.28068796237E+03  0.78835728626E+02 0.  0.
        254    2    1    2    0    0  0.13472723628E+03 -0.19050197141E+03  0.17507488158E+04  0.19790651504E+04  0.89282418429E+03 0.  0.
         23    2    4    4    0    0  0.17895182535E+03 -0.18681885061E+03  0.53636494279E+02  0.27905813470E+03  0.89841695673E+02 0.  0.
         23    2    4    4    0    0 -0.44224589069E+02 -0.36831208032E+01  0.16971123215E+04  0.17000070157E+04  0.88680560516E+02 0.  0.
          1    1    3    3  502    0 -0.14820754920E+02  0.96381828956E+01  0.40415268941E+02  0.44112847443E+02  0.00000000000E+00 0. -1.
         -2    1    3    3    0  502 -0.11990648136E+03  0.18086378852E+03  0.94225849610E+02  0.23657511493E+03  0.00000000000E+00 0.  1.
         13    1    5    5    0    0  0.25704860176E+02  0.30602501632E+01 -0.85340975804E+01  0.27256848484E+02  0.00000000000E+00 0.  1.
        -13    1    5    5    0    0  0.15324696517E+03 -0.18987910077E+03  0.62170591859E+02  0.25180128621E+03  0.00000000000E+00 0. -1.
          4    1    6    6  503    0 -0.33984607704E+02 -0.42878263016E+02  0.73045167645E+03  0.73249788439E+03  0.00000000000E+00 0.  1.
         -4    1    6    6    0  503 -0.10239981365E+02  0.39195142213E+02  0.96666064506E+03  0.96750913128E+03  0.00000000000E+00 0. -1.
<mgrwt>
<rscale>  0 0.12457082E+04</rscale>
<asrwt>0</asrwt>
<pdfrwt beam="1">  1        1 0.31885714E+00 0.12457082E+04</pdfrwt>
<pdfrwt beam="2">  1       -2 0.28797169E-01 0.12457082E+04</pdfrwt>
<totfact> 0.25545870E+01</totfact>
</mgrwt>
</event>
<event>
12    5  0.5197392E-008  0.1968463E+04  0.7818608E-02  0.8621509E-01
          1   -1    0    0  501    0  0.00000000000E+00  0.00000000000E+00  0.20259294007E+04  0.20259294007E+04  0.00000000000E+00 0. -1.
         -2   -1    0    0    0  501 -0.00000000000E+00 -0.00000000000E+00 -0.47815649785E+03  0.47815649785E+03  0.00000000000E+00 0.  1.
        -24    2    1    2    0    0 -0.23535958396E+03  0.10297964645E+03 -0.31803562651E+03  0.41709920837E+03  0.82620509245E+02 0.  0.
        254    2    1    2    0    0  0.23535958396E+03 -0.10297964645E+03  0.18658085294E+04  0.20869866902E+04  0.89904006330E+03 0.  0.
         23    2    4    4    0    0  0.18304173447E+03  0.10264799640E+03  0.18410965630E+04  0.18553573751E+04  0.93131881554E+02 0.  0.
         23    2    4    4    0    0  0.52317849494E+02 -0.20562764284E+03  0.24711966375E+02  0.23162931509E+03  0.89563237144E+02 0.  0.
          3    1    3    3  502    0 -0.12530511878E+02  0.21581702859E+02 -0.67982307131E+02  0.72418075845E+02  0.00000000000E+00 0. -1.
         -4    1    3    3    0  502 -0.22282907208E+03  0.81397943588E+02 -0.25005331937E+03  0.34468113252E+03  0.00000000000E+00 0.  1.
         13    1    5    5    0    0  0.19011085276E+03  0.10853849844E+03  0.17131028471E+04  0.17270333254E+04  0.00000000000E+00 0. -1.
        -13    1    5    5    0    0 -0.70691182911E+01 -0.58905020456E+01  0.12799371585E+03  0.12832404975E+03  0.00000000000E+00 0.  1.
          1    1    6    6  503    0  0.73633339930E+02 -0.13208842503E+03  0.32466398179E+02  0.15467154808E+03  0.00000000000E+00 0. -1.
         -1    1    6    6    0  503 -0.21315490436E+02 -0.73539217815E+02 -0.77544318041E+01  0.76957767002E+02  0.00000000000E+00 0.  1.
<mgrwt>
<rscale>  0 0.19684627E+04</rscale>
<asrwt>0</asrwt>
<pdfrwt beam="1">  1        1 0.31168144E+00 0.19684627E+04</pdfrwt>
<pdfrwt beam="2">  1       -2 0.73562539E-01 0.19684627E+04</pdfrwt>
<totfact> 0.38962021E+00</totfact>
</mgrwt>
</event>
<event>
12    5  0.5197392E-008  0.1362234E+04  0.7818608E-02  0.8981619E-01
         -2   -1    0    0    0  501 -0.00000000000E+00  0.00000000000E+00  0.39957142574E+03  0.39957142574E+03  0.00000000000E+00 0.  1.
          1   -1    0    0  501    0  0.00000000000E+00 -0.00000000000E+00 -0.11610445544E+04  0.11610445544E+04  0.00000000000E+00 0. -1.
        -24    2    1    2    0    0 -0.26868074397E+03  0.20226848137E+03 -0.49335102682E+03  0.60256860087E+03  0.81189915383E+02 0.  0.
        254    2    1    2    0    0  0.26868074397E+03 -0.20226848137E+03 -0.26812210189E+03  0.95804737931E+03  0.85607443528E+03 0.  0.
         23    2    4    4    0    0  0.15468817546E+03  0.27433365683E+03  0.94030586814E+02  0.34210454549E+03  0.94901959352E+02 0.  0.
         23    2    4    4    0    0  0.11399256851E+03 -0.47660213820E+03 -0.36215268871E+03  0.61594283382E+03  0.89928309149E+02 0.  0.
          1    1    3    3  502    0 -0.84748634528E+02  0.68916973879E+02 -0.23097811892E+03  0.25550493491E+03  0.00000000000E+00 0. -1.
         -2    1    3    3    0  502 -0.18393210944E+03  0.13335150749E+03 -0.26237290790E+03  0.34706366596E+03  0.00000000000E+00 0.  1.
         13    1    5    5    0    0  0.69589075489E+02  0.18421590145E+03  0.93883827958E+02  0.21815662018E+03  0.00000000000E+00 0.  1.
        -13    1    5    5    0    0  0.85099099970E+02  0.90117755381E+02  0.14675885582E+00  0.12394792531E+03  0.00000000000E+00 0. -1.
          1    1    6    6  503    0  0.29271291675E+02 -0.23520031780E+03 -0.12922119154E+03  0.26995205936E+03  0.00000000000E+00 0. -1.
         -1    1    6    6    0  503  0.84721276830E+02 -0.24140182040E+03 -0.23293149717E+03  0.34599077446E+03  0.00000000000E+00 0.  1.
<mgrwt>
<rscale>  0 0.13622338E+04</rscale>
<asrwt>0</asrwt>
<pdfrwt beam="1">  1        1 0.17862224E+00 0.13622338E+04</pdfrwt>
<pdfrwt beam="2">  1       -2 0.61472527E-01 0.13622338E+04</pdfrwt>
<totfact> 0.24082900E+01</totfact>
</mgrwt>
</event>
<event>
12    5  0.5197392E-008  0.1495065E+04  0.7818608E-02  0.8887741E-01
         -2   -1    0    0    0  501 -0.00000000000E+00  0.00000000000E+00  0.62156970512E+03  0.62156970512E+03  0.00000000000E+00 0.  1.
          1   -1    0    0  501    0  0.00000000000E+00 -0.00000000000E+00 -0.89902258657E+03  0.89902258657E+03  0.00000000000E+00 0. -1.
        -24    2    1    2    0    0 -0.13124051233E+02 -0.24504214067E+03  0.19710771147E+03  0.32147451037E+03  0.65395102823E+02 0.  0.
        254    2    1    2    0    0  0.13124051233E+02  0.24504214067E+03 -0.47456059293E+03  0.11991177813E+04  0.10735258756E+04 0.  0.
         23    2    4    4    0    0  0.39860814048E+03 -0.17979463941E+03  0.50376578106E+01  0.44687808092E+03  0.91978688802E+02 0.  0.
         23    2    4    4    0    0 -0.38548408925E+03  0.42483678008E+03 -0.47959825074E+03  0.75223970039E+03  0.82254555886E+02 0.  0.
          3    1    3    3  502    0  0.29628883457E+01 -0.18507194830E+02 -0.27602839719E+01  0.18945029307E+02  0.00000000000E+00 0. -1.
         -4    1    3    3    0  502 -0.16086939579E+02 -0.22653494583E+03  0.19986799545E+03  0.30252948106E+03  0.00000000000E+00 0.  1.
         13    1    5    5    0    0  0.21574389798E+03 -0.57679927223E+02  0.30994846627E+02  0.22546193479E+03  0.00000000000E+00 0. -1.
        -13    1    5    5    0    0  0.18286424250E+03 -0.12211471219E+03 -0.25957188817E+02  0.22141614613E+03  0.00000000000E+00 0.  1.
          1    1    6    6  503    0 -0.11389414359E+03  0.18304365287E+03 -0.19052907635E+03  0.28771198052E+03  0.00000000000E+00 0. -1.
         -1    1    6    6    0  503 -0.27158994566E+03  0.24179312721E+03 -0.28906917439E+03  0.46452771987E+03  0.00000000000E+00 0.  1.
<mgrwt>
<rscale>  0 0.14950655E+04</rscale>
<asrwt>0</asrwt>
<pdfrwt beam="1">  1        1 0.13831117E+00 0.14950655E+04</pdfrwt>
<pdfrwt beam="2">  1       -2 0.95626108E-01 0.14950655E+04</pdfrwt>
<totfact> 0.14190576E+01</totfact>
</mgrwt>
</event>
<event>
12    5  0.5197392E-008  0.3402508E+04  0.7818608E-02  0.8137291E-01
          1   -1    0    0  501    0  0.00000000000E+00  0.00000000000E+00  0.10478622872E+04  0.10478622872E+04  0.00000000000E+00 0. -1.
         -2   -1    0    0    0  501 -0.00000000000E+00 -0.00000000000E+00 -0.27620661835E+04  0.27620661835E+04  0.00000000000E+00 0.  1.
        -24    2    1    2    0    0  0.70062850744E+03 -0.12861997386E+04 -0.14664991000E+04  0.20739323666E+04  0.73387859758E+02 0.  0.
        254    2    1    2    0    0 -0.70062850744E+03  0.12861997386E+04 -0.24770479636E+03  0.17359961041E+04  0.89840677543E+03 0.  0.
         23    2    4    4    0    0 -0.34481471777E+03  0.76482109073E+03 -0.57355101299E+03  0.10203153646E+04  0.90742428248E+02 0.  0.
         23    2    4    4    0    0 -0.35581378967E+03  0.52137864787E+03  0.32584621664E+03  0.71568073947E+03  0.87086259373E+02 0.  0.
          3    1    3    3  502    0  0.47214144392E+02 -0.10262675164E+03 -0.88841234059E+02  0.14371565834E+03  0.00000000000E+00 0. -1.
         -4    1    3    3    0  502  0.65341436305E+03 -0.11835729870E+04 -0.13776578659E+04  0.19302167083E+04  0.00000000000E+00 0.  1.
         13    1    5    5    0    0 -0.31730863732E+03  0.62590779043E+03 -0.46395259132E+03  0.84124749059E+03  0.00000000000E+00 0.  1.
        -13    1    5    5    0    0 -0.27506080452E+02  0.13891330030E+03 -0.10959842168E+03  0.17906787399E+03  0.00000000000E+00 0. -1.
          4    1    6    6  503    0 -0.28661460602E+02  0.12620956070E+02  0.77076715134E+01  0.32251760512E+02  0.00000000000E+00 0. -1.
         -4    1    6    6    0  503 -0.32715232907E+03  0.50875769180E+03  0.31813854512E+03  0.68342897896E+03  0.00000000000E+00 0.  1.
<mgrwt>
<rscale>  0 0.34025079E+04</rscale>
<asrwt>0</asrwt>
<pdfrwt beam="1">  1        1 0.16120958E+00 0.34025079E+04</pdfrwt>
<pdfrwt beam="2">  1       -2 0.42493326E+00 0.34025079E+04</pdfrwt>
<totfact> 0.50950373E-02</totfact>
</mgrwt>
</event>
<event>
12    5  0.5197392E-008  0.2065434E+04  0.7818608E-02  0.8576625E-01
          1   -1    0    0  501    0  0.00000000000E+00  0.00000000000E+00  0.16269048086E+04  0.16269048086E+04  0.00000000000E+00 0. -1.
         -2   -1    0    0    0  501 -0.00000000000E+00 -0.00000000000E+00 -0.65554187089E+03  0.65554187089E+03  0.00000000000E+00 0.  1.
        -24    2    1    2    0    0  0.45631209431E+03  0.55859524140E+03  0.84892047182E+03  0.11178489181E+04  0.93117480145E+02 0.  0.
        254    2    1    2    0    0 -0.45631209431E+03 -0.55859524140E+03  0.12244246589E+03  0.11645977614E+04  0.90611611686E+03 0.  0.
         23    2    4    4    0    0 -0.46716075794E+03 -0.25570254238E+03  0.45505744303E+03  0.70557373808E+03  0.84463361694E+02 0.  0.
         23    2    4    4    0    0  0.10848663630E+02 -0.30289269902E+03 -0.33261497715E+03  0.45902402330E+03  0.90601602234E+02 0.  0.
          1    1    3    3  502    0  0.41923348845E+03  0.50279285358E+03  0.80566452233E+03  0.10381005221E+04  0.00000000000E+00 0. -1.
         -2    1    3    3    0  502  0.37078605857E+02  0.55802387817E+02  0.43255949488E+02  0.79748395999E+02  0.00000000000E+00 0.  1.
         13    1    5    5    0    0 -0.37608452051E+03 -0.24162873053E+03  0.38068021961E+03  0.58714686373E+03  0.00000000000E+00 0. -1.
        -13    1    5    5    0    0 -0.91076237424E+02 -0.14073811851E+02  0.74377223429E+02  0.11842687435E+03  0.00000000000E+00 0.  1.
          3    1    6    6  503    0  0.37949061226E+02 -0.27429932552E+03 -0.29329828221E+03  0.40336600449E+03  0.00000000000E+00 0. -1.
         -3    1    6    6    0  503 -0.27100397596E+02 -0.28593373494E+02 -0.39316694938E+02  0.55658018816E+02  0.00000000000E+00 0.  1.
<mgrwt>
<rscale>  0 0.20654338E+04</rscale>
<asrwt>0</asrwt>
<pdfrwt beam="1">  1        1 0.25029305E+00 0.20654338E+04</pdfrwt>
<pdfrwt beam="2">  1       -2 0.10085260E+00 0.20654338E+04</pdfrwt>
<totfact> 0.35057666E+00</totfact>
</mgrwt>
</event>
<event>
12    5  0.8628685E-008  0.1497259E+04  0.7818608E-02  0.8886278E-01
          1   -1    0    0  501    0  0.00000000000E+00  0.00000000000E+00  0.80611564397E+03  0.80611564397E+03  0.00000000000E+00 0. -1.
         -4   -1    0    0    0  501 -0.00000000000E+00 -0.00000000000E+00 -0.69524298903E+03  0.69524298903E+03  0.00000000000E+00 0.  1.
        -24    2    1    2    0    0  0.15630340716E+03 -0.18301505814E+03 -0.39191727289E+03  0.46666062919E+03  0.79042567330E+02 0.  0.
        254    2    1    2    0    0 -0.15630340716E+03  0.18301505814E+03  0.50278992783E+03  0.10346980038E+04  0.87170922961E+03 0.  0.
         23    2    4    4    0    0 -0.84680673100E+02 -0.34238904541E+03  0.16656198496E+03  0.40036649556E+03  0.90273811904E+02 0.  0.
         23    2    4    4    0    0 -0.71622734058E+02  0.52540410356E+03  0.33622794287E+03  0.63433150826E+03  0.90265966641E+02 0.  0.
          3    1    3    3  502    0 -0.53084051704E+01 -0.65391258010E+01 -0.41411701865E+02  0.42259536001E+02  0.00000000000E+00 0. -1.
         -4    1    3    3    0  502  0.16161181233E+03 -0.17647593234E+03 -0.35050557102E+03  0.42440109319E+03  0.00000000000E+00 0.  1.
         13    1    5    5    0    0 -0.11628966677E+02 -0.45727603950E+02  0.61004796197E+02  0.77122187392E+02  0.00000000000E+00 0. -1.
        -13    1    5    5    0    0 -0.73051706423E+02 -0.29666144146E+03  0.10555718876E+03  0.32324430817E+03  0.00000000000E+00 0.  1.
          3    1    6    6  503    0 -0.14993599929E+02  0.56544900311E+02  0.76294944135E+01  0.58994431729E+02  0.00000000000E+00 0. -1.
         -3    1    6    6    0  503 -0.56629134129E+02  0.46885920325E+03  0.32859844846E+03  0.57533707653E+03  0.00000000000E+00 0.  1.
<mgrwt>
<rscale>  0 0.14972592E+04</rscale>
<asrwt>0</asrwt>
<pdfrwt beam="1">  1        1 0.12401779E+00 0.14972592E+04</pdfrwt>
<pdfrwt beam="2">  1       -4 0.10696046E+00 0.14972592E+04</pdfrwt>
<totfact> 0.71822273E+00</totfact>
</mgrwt>
</event>
<event>
12    5  0.5197392E-008  0.4095761E+04  0.7818608E-02  0.7985502E-01
          1   -1    0    0  501    0  0.00000000000E+00  0.00000000000E+00  0.21137877585E+04  0.21137877585E+04  0.00000000000E+00 0. -1.
         -2   -1    0    0    0  501 -0.00000000000E+00 -0.00000000000E+00 -0.19840279275E+04  0.19840279275E+04  0.00000000000E+00 0.  1.
        -24    2    1    2    0    0 -0.71344724840E+03  0.17320214521E+04  0.60393347451E+03  0.19697933996E+04  0.80281434489E+02 0.  0.
        254    2    1    2    0    0  0.71344724840E+03 -0.17320214521E+04 -0.47417364346E+03  0.21280222864E+04  0.89147794165E+03 0.  0.
         23    2    4    4    0    0 -0.11087507097E+03 -0.74641921608E+03 -0.34305692572E+03  0.83331685216E+03  0.85404884562E+02 0.  0.
         23    2    4    4    0    0  0.82432231936E+03 -0.98560223600E+03 -0.13111671773E+03  0.12947054342E+04  0.90285734818E+02 0.  0.
          3    1    3    3  502    0 -0.70791759698E+03  0.16997305042E+04  0.60117839195E+03  0.19369167690E+04  0.00000000000E+00 0. -1.
         -4    1    3    3    0  502 -0.55296514138E+01  0.32290947917E+02  0.27550825572E+01  0.32876630637E+02  0.00000000000E+00 0.  1.
         13    1    5    5    0    0 -0.65228845920E+02 -0.63548727699E+03 -0.30115472980E+03  0.70625282501E+03  0.00000000000E+00 0. -1.
        -13    1    5    5    0    0 -0.45646225047E+02 -0.11093193909E+03 -0.41902195925E+02  0.12706402715E+03  0.00000000000E+00 0.  1.
          2    1    6    6  503    0  0.80981956259E+03 -0.94394717719E+03 -0.13095965209E+03  0.12505976282E+04  0.00000000000E+00 0. -1.
         -2    1    6    6    0  503  0.14502756771E+02 -0.41655058815E+02 -0.15706564313E+00  0.44107805981E+02  0.00000000000E+00 0.  1.
<mgrwt>
<rscale>  0 0.40957607E+04</rscale>
<asrwt>0</asrwt>
<pdfrwt beam="1">  1        1 0.32519812E+00 0.40957607E+04</pdfrwt>
<pdfrwt beam="2">  1       -2 0.30523507E+00 0.40957607E+04</pdfrwt>
<totfact> 0.50259325E-02</totfact>
</mgrwt>
</event>
<event>
12    5  0.5197392E-008  0.2308511E+04  0.7818608E-02  0.8474573E-01
          1   -1    0    0  501    0  0.00000000000E+00  0.00000000000E+00  0.13923737483E+04  0.13923737483E+04  0.00000000000E+00 0. -1.
         -4   -1    0    0    0  501 -0.00000000000E+00 -0.00000000000E+00 -0.95685907501E+03  0.95685907501E+03  0.00000000000E+00 0.  1.
        -24    2    1    2    0    0 -0.72169707897E+02 -0.69507266553E+03  0.84258719971E+03  0.10975763469E+04  0.79913522483E+02 0.  0.
        254    2    1    2    0    0  0.72169707897E+02  0.69507266553E+03 -0.40707252643E+03  0.12516564764E+04  0.95530174082E+03 0.  0.
         23    2    4    4    0    0  0.27019317509E+03  0.19925699816E+03 -0.58584011002E+03  0.68119828197E+03  0.90081971964E+02 0.  0.
         23    2    4    4    0    0 -0.19802346719E+03  0.49581566737E+03  0.17876758359E+03  0.57045819442E+03  0.91750929523E+02 0.  0.
          1    1    3    3  502    0 -0.12763220079E+02 -0.30884192738E+03  0.42681738316E+03  0.52699081060E+03  0.00000000000E+00 0. -1.
         -2    1    3    3    0  502 -0.59406487818E+02 -0.38623073815E+03  0.41576981655E+03  0.57058553631E+03  0.00000000000E+00 0.  1.
         13    1    5    5    0    0  0.44149953814E+02  0.63021035063E+02 -0.19460532705E+03  0.20926562689E+03  0.00000000000E+00 0.  1.
        -13    1    5    5    0    0  0.22604322127E+03  0.13623596310E+03 -0.39123478297E+03  0.47193265508E+03  0.00000000000E+00 0. -1.
          4    1    6    6  503    0 -0.88050682459E+02  0.11205696486E+03  0.45788976887E+02  0.14968739579E+03  0.00000000000E+00 0. -1.
         -4    1    6    6    0  503 -0.10997278473E+03  0.38375870251E+03  0.13297860670E+03  0.42077079863E+03  0.00000000000E+00 0.  1.
<mgrwt>
<rscale>  0 0.23085107E+04</rscale>
<asrwt>0</asrwt>
<pdfrwt beam="1">  1        1 0.21421135E+00 0.23085107E+04</pdfrwt>
<pdfrwt beam="2">  1       -4 0.14720909E+00 0.23085107E+04</pdfrwt>
<totfact> 0.10718466E+00</totfact>
</mgrwt>
</event>
<event>
12    5  0.5197392E-008  0.2850122E+04  0.7818608E-02  0.8287874E-01
         -2   -1    0    0    0  501 -0.00000000000E+00  0.00000000000E+00  0.12878444015E+04  0.12878444015E+04  0.00000000000E+00 0.  1.
          1   -1    0    0  501    0  0.00000000000E+00 -0.00000000000E+00 -0.15768981462E+04  0.15768981462E+04  0.00000000000E+00 0. -1.
        -24    2    1    2    0    0  0.37800254503E+03  0.63202258154E+02 -0.13543451820E+04  0.14096957013E+04  0.78170639312E+02 0.  0.
        254    2    1    2    0    0 -0.37800254503E+03 -0.63202258154E+02  0.10652914373E+04  0.14550468463E+04  0.91402135052E+03 0.  0.
         23    2    4    4    0    0 -0.53422092024E+03  0.27460842526E+03  0.66414024001E+03  0.90012264147E+03  0.91305708691E+02 0.  0.
         23    2    4    4    0    0  0.15621837520E+03 -0.33781068341E+03  0.40115119725E+03  0.55492420486E+03  0.92186503916E+02 0.  0.
          1    1    3    3  502    0  0.30995048752E+03  0.31208009164E+02 -0.11659261165E+04  0.12068251546E+04  0.00000000000E+00 0. -1.
         -2    1    3    3    0  502  0.68052057518E+02  0.31994248990E+02 -0.18841906545E+03  0.20287054672E+03  0.00000000000E+00 0.  1.
         13    1    5    5    0    0 -0.36352020577E+03  0.15483503687E+03  0.48195462282E+03  0.62321833020E+03  0.00000000000E+00 0. -1.
        -13    1    5    5    0    0 -0.17070071447E+03  0.11977338838E+03  0.18218561720E+03  0.27690431127E+03  0.00000000000E+00 0.  1.
          3    1    6    6  503    0  0.16158016998E+03 -0.30495120661E+03  0.33550641092E+03  0.48131896027E+03  0.00000000000E+00 0. -1.
         -3    1    6    6    0  503 -0.53617947791E+01 -0.32859476802E+02  0.65644786333E+02  0.73605244594E+02  0.00000000000E+00 0.  1.
<mgrwt>
<rscale>  0 0.28501224E+04</rscale>
<asrwt>0</asrwt>
<pdfrwt beam="1">  1        1 0.24259971E+00 0.28501224E+04</pdfrwt>
<pdfrwt beam="2">  1       -2 0.19812991E+00 0.28501224E+04</pdfrwt>
<totfact> 0.59968886E-01</totfact>
</mgrwt>
</event>
<event>
12    5  0.5197392E-008  0.1177719E+04  0.7818608E-02  0.9132586E-01
          1   -1    0    0  501    0  0.00000000000E+00  0.00000000000E+00  0.11494645746E+04  0.11494645746E+04  0.00000000000E+00 0. -1.
         -2   -1    0    0    0  501 -0.00000000000E+00 -0.00000000000E+00 -0.30166704433E+03  0.30166704433E+03  0.00000000000E+00 0.  1.
        -24    2    1    2    0    0 -0.42409288885E+02  0.20124588730E+03  0.37182500767E+02  0.22266420611E+03  0.76800751161E+02 0.  0.
        254    2    1    2    0    0  0.42409288885E+02 -0.20124588730E+03  0.81061502949E+03  0.12284674128E+04  0.89985387889E+03 0.  0.
         23    2    4    4    0    0 -0.13291725993E+03 -0.31166800089E+03 -0.34339525150E+02  0.35309035931E+03  0.93218335567E+02 0.  0.
         23    2    4    4    0    0  0.17532654881E+03  0.11042211359E+03  0.84495455464E+03  0.87537705350E+03  0.96975999556E+02 0.  0.
          1    1    3    3  502    0 -0.49716850239E+02  0.19614101785E+03  0.48678661990E+02  0.20811697723E+03  0.00000000000E+00 0. -1.
         -2    1    3    3    0  502  0.73075613534E+01  0.51048694555E+01 -0.11496161223E+02  0.14547228875E+02  0.00000000000E+00 0.  1.
         13    1    5    5    0    0  0.25849263698E+01 -0.97258665529E+02 -0.12323419892E+01  0.97300814650E+02  0.00000000000E+00 0.  1.
        -13    1    5    5    0    0 -0.13550218630E+03 -0.21440933536E+03 -0.33107183161E+02  0.25578954466E+03  0.00000000000E+00 0. -1.
          4    1    6    6  503    0  0.17672282060E+03  0.80253566048E+02  0.65907381880E+03  0.68705886852E+03  0.00000000000E+00 0. -1.
         -4    1    6    6    0  503 -0.13962717883E+01  0.30168547539E+02  0.18588073584E+03  0.18831818498E+03  0.00000000000E+00 0.  1.
<mgrwt>
<rscale>  0 0.11777191E+04</rscale>
<asrwt>0</asrwt>
<pdfrwt beam="1">  1        1 0.17684070E+00 0.11777191E+04</pdfrwt>
<pdfrwt beam="2">  1       -2 0.46410315E-01 0.11777191E+04</pdfrwt>
<totfact> 0.44541441E+01</totfact>
</mgrwt>
</event>
<event>
12    5  0.5197392E-008  0.1416496E+04  0.7818608E-02  0.8941964E-01
          1   -1    0    0  501    0  0.00000000000E+00  0.00000000000E+00  0.10632129660E+04  0.10632129660E+04  0.00000000000E+00 0. -1.
         -2   -1    0    0    0  501 -0.00000000000E+00 -0.00000000000E+00 -0.47179167648E+03  0.47179167648E+03  0.00000000000E+00 0.  1.
        -24    2    1    2    0    0  0.21051485684E+03 -0.35683742481E+02 -0.21225497134E+03  0.31554864996E+03  0.94493085501E+02 0.  0.
        254    2    1    2    0    0 -0.21051485684E+03  0.35683742481E+02  0.80367626083E+03  0.12194559925E+04  0.89195714636E+03 0.  0.
         23    2    4    4    0    0 -0.27742180757E+03  0.42243599051E+03  0.43781657939E+03  0.67511097047E+03  0.93147409313E+02 0.  0.
         23    2    4    4    0    0  0.66906950735E+02 -0.38675224803E+03  0.36585968144E+03  0.54434502201E+03  0.91675269701E+02 0.  0.
          1    1    3    3  502    0  0.30004295087E+02  0.43016235259E+01  0.45105352169E+01  0.30644846493E+02  0.00000000000E+00 0. -1.
         -2    1    3    3    0  502  0.18051056175E+03 -0.39985366007E+02 -0.21676550656E+03  0.28490380347E+03  0.00000000000E+00 0.  1.
         13    1    5    5    0    0 -0.25007588039E+03  0.33280188250E+03  0.38758002179E+03  0.56878230655E+03  0.00000000000E+00 0.  1.
        -13    1    5    5    0    0 -0.27345927181E+02  0.89634108007E+02  0.50236557603E+02  0.10632866392E+03  0.00000000000E+00 0. -1.
          2    1    6    6  503    0  0.33456707463E+02 -0.16827953464E+03  0.22223632658E+03  0.28076028548E+03  0.00000000000E+00 0. -1.
         -2    1    6    6    0  503  0.33450243272E+02 -0.21847271339E+03  0.14362335486E+03  0.26358473653E+03  0.00000000000E+00 0.  1.
<mgrwt>
<rscale>  0 0.14164957E+04</rscale>
<asrwt>0</asrwt>
<pdfrwt beam="1">  1        1 0.16357123E+00 0.14164957E+04</pdfrwt>
<pdfrwt beam="2">  1       -2 0.72583335E-01 0.14164957E+04</pdfrwt>
<totfact> 0.19819806E+01</totfact>
</mgrwt>
</event>
<event>
12    5  0.5197392E-008  0.2406790E+04  0.7818608E-02  0.8436966E-01
         -2   -1    0    0    0  501 -0.00000000000E+00  0.00000000000E+00  0.15860171033E+04  0.15860171033E+04  0.00000000000E+00 0.  1.
          1   -1    0    0  501    0  0.00000000000E+00 -0.00000000000E+00 -0.91307953239E+03  0.91307953239E+03  0.00000000000E+00 0. -1.
        -24    2    1    2    0    0  0.25072127736E+03  0.88647746440E+03  0.81683644323E+03  0.12337909490E+04  0.79466199966E+02 0.  0.
        254    2    1    2    0    0 -0.25072127736E+03 -0.88647746440E+03 -0.14389887232E+03  0.12653056867E+04  0.85532925917E+03 0.  0.
         23    2    4    4    0    0 -0.28336356360E+03 -0.15628615065E+03  0.26039525484E+03  0.42520810942E+03  0.90972399751E+02 0.  0.
         23    2    4    4    0    0  0.32642286236E+02 -0.73019131375E+03 -0.40429412716E+03  0.84009757730E+03  0.89807152335E+02 0.  0.
          1    1    3    3  502    0  0.25073738621E+03  0.80922924939E+03  0.75617821127E+03  0.11355732923E+04  0.00000000000E+00 0. -1.
         -2    1    3    3    0  502 -0.16108847616E-01  0.77248215008E+02  0.60658231951E+02  0.98217656686E+02  0.00000000000E+00 0.  1.
         13    1    5    5    0    0 -0.24548690272E+03 -0.97812927044E+02  0.18515619683E+03  0.32266701928E+03  0.00000000000E+00 0. -1.
        -13    1    5    5    0    0 -0.37876660873E+02 -0.58473223609E+02  0.75239058002E+02  0.10254109014E+03  0.00000000000E+00 0.  1.
          4    1    6    6  503    0  0.23739121934E+02 -0.72553525659E+03 -0.40196653318E+03  0.82978433840E+03  0.00000000000E+00 0. -1.
         -4    1    6    6    0  503  0.89031643027E+01 -0.46560571593E+01 -0.23275939829E+01  0.10313238901E+02  0.00000000000E+00 0.  1.
<mgrwt>
<rscale>  0 0.24067902E+04</rscale>
<asrwt>0</asrwt>
<pdfrwt beam="1">  1        1 0.14047377E+00 0.24067902E+04</pdfrwt>
<pdfrwt beam="2">  1       -2 0.24400263E+00 0.24067902E+04</pdfrwt>
<totfact> 0.97538673E-01</totfact>
</mgrwt>
</event>
<event>
12    5  0.5197392E-008  0.1206193E+04  0.7818608E-02  0.9107453E-01
          1   -1    0    0  501    0  0.00000000000E+00  0.00000000000E+00  0.16190742397E+04  0.16190742397E+04  0.00000000000E+00 0. -1.
         -2   -1    0    0    0  501 -0.00000000000E+00 -0.00000000000E+00 -0.22465039335E+03  0.22465039335E+03  0.00000000000E+00 0.  1.
        -24    2    1    2    0    0 -0.63727360240E+02  0.14304890062E+03 -0.25476972427E+02  0.17830511302E+03  0.81360142528E+02 0.  0.
        254    2    1    2    0    0  0.63727360240E+02 -0.14304890062E+03  0.14199008187E+04  0.16654195200E+04  0.85614232352E+03 0.  0.
         23    2    4    4    0    0 -0.36420664721E+03  0.70447759973E+02  0.58239577741E+03  0.69660333353E+03  0.91989097089E+02 0.  0.
         23    2    4    4    0    0  0.42793400745E+03 -0.21349666060E+03  0.83750504133E+03  0.96881618646E+03  0.92096525927E+02 0.  0.
          3    1    3    3  502    0  0.71844441318E+01  0.80705242024E+02 -0.21831504483E+01  0.81053799871E+02  0.00000000000E+00 0. -1.
         -4    1    3    3    0  502 -0.70911804371E+02  0.62343658600E+02 -0.23293821979E+02  0.97251313149E+02  0.00000000000E+00 0.  1.
         13    1    5    5    0    0 -0.14518007815E+03  0.57049422587E+02  0.30807255570E+03  0.34531230978E+03  0.00000000000E+00 0. -1.
        -13    1    5    5    0    0 -0.21902656906E+03  0.13398337386E+02  0.27432322171E+03  0.35129102376E+03  0.00000000000E+00 0.  1.
          4    1    6    6  503    0  0.36119226606E+03 -0.17508100853E+03  0.76042171683E+03  0.85985719747E+03  0.00000000000E+00 0.  1.
         -4    1    6    6    0  503  0.66741741390E+02 -0.38415652071E+02  0.77083324496E+02  0.10895898900E+03  0.00000000000E+00 0. -1.
<mgrwt>
<rscale>  0 0.12061935E+04</rscale>
<asrwt>0</asrwt>
<pdfrwt beam="1">  1        1 0.24908834E+00 0.12061935E+04</pdfrwt>
<pdfrwt beam="2">  1       -2 0.34561600E-01 0.12061935E+04</pdfrwt>
<totfact> 0.36895110E+01</totfact>
</mgrwt>
</event>
<event>
12    5  0.5197392E-008  0.1375170E+04  0.7818608E-02  0.8971990E-01
          1   -1    0    0  501    0  0.00000000000E+00  0.00000000000E+00  0.12265926733E+04  0.12265926733E+04  0.00000000000E+00 0. -1.
         -2   -1    0    0    0  501 -0.00000000000E+00 -0.00000000000E+00 -0.38543614312E+03  0.38543614312E+03  0.00000000000E+00 0.  1.
        -24    2    1    2    0    0  0.34437164959E+03 -0.15565852241E+03  0.15438299312E+03  0.41609006421E+03  0.80470021345E+02 0.  0.
        254    2    1    2    0    0 -0.34437164959E+03  0.15565852241E+03  0.68677353708E+03  0.11959387522E+04  0.90321104908E+03 0.  0.
         23    2    4    4    0    0 -0.45425534016E+03  0.23876383013E+03  0.33611597907E+02  0.52261607732E+03  0.92960981717E+02 0.  0.
         23    2    4    4    0    0  0.10988369057E+03 -0.83105307718E+02  0.65316193917E+03  0.67332267490E+03  0.88102145959E+02 0.  0.
          3    1    3    3  502    0  0.28899900647E+03 -0.14620670072E+03  0.15685632375E+03  0.35986210050E+03  0.00000000000E+00 0. -1.
         -2    1    3    3    0  502  0.55372643119E+02 -0.94518216876E+01 -0.24733306283E+01  0.56227963716E+02  0.00000000000E+00 0.  1.
         13    1    5    5    0    0 -0.17638332612E+03  0.11165212742E+03 -0.28838515053E+02  0.21073427638E+03  0.00000000000E+00 0. -1.
        -13    1    5    5    0    0 -0.27787201404E+03  0.12711170271E+03  0.62450112960E+02  0.31188180094E+03  0.00000000000E+00 0.  1.
          1    1    6    6  503    0  0.30772761384E+02 -0.64395058216E+02  0.42854668077E+03  0.43444901192E+03  0.00000000000E+00 0. -1.
         -1    1    6    6    0  503  0.79110929188E+02 -0.18710249503E+02  0.22461525841E+03  0.23887366297E+03  0.00000000000E+00 0.  1.
<mgrwt>
<rscale>  0 0.13751700E+04</rscale>
<asrwt>0</asrwt>
<pdfrwt beam="1">  1        1 0.18870656E+00 0.13751700E+04</pdfrwt>
<pdfrwt beam="2">  1       -2 0.59297869E-01 0.13751700E+04</pdfrwt>
<totfact> 0.23248384E+01</totfact>
</mgrwt>
</event>
<event>
12    5  0.5197392E-008  0.1599243E+04  0.7818608E-02  0.8821013E-01
         -2   -1    0    0    0  501 -0.00000000000E+00  0.00000000000E+00  0.56577896334E+03  0.56577896334E+03  0.00000000000E+00 0.  1.
          1   -1    0    0  501    0  0.00000000000E+00 -0.00000000000E+00 -0.11301141738E+04  0.11301141738E+04  0.00000000000E+00 0. -1.
        -24    2    1    2    0    0  0.20306825413E+03 -0.35692298597E+03  0.17911332560E+03  0.45521378274E+03  0.80667656740E+02 0.  0.
        254    2    1    2    0    0 -0.20306825413E+03  0.35692298597E+03 -0.74344853606E+03  0.12406793544E+04  0.90439969089E+03 0.  0.
         23    2    4    4    0    0  0.23899252540E+03 -0.12034769027E+03 -0.53852821065E+02  0.28814774145E+03  0.92347175454E+02 0.  0.
         23    2    4    4    0    0 -0.44206077953E+03  0.47727067624E+03 -0.68959571499E+03  0.95253161293E+03  0.92569931996E+02 0.  0.
          3    1    3    3  502    0  0.37264509611E+02 -0.13148204665E+03  0.38245142196E+02  0.14191146243E+03  0.00000000000E+00 0. -1.
         -4    1    3    3    0  502  0.16580374451E+03 -0.22544093932E+03  0.14086818341E+03  0.31330232031E+03  0.00000000000E+00 0.  1.
         13    1    5    5    0    0  0.12794908927E+03 -0.10491145206E+03 -0.59654693830E+02  0.17588651089E+03  0.00000000000E+00 0. -1.
        -13    1    5    5    0    0  0.11104343613E+03 -0.15436238209E+02  0.58018727650E+01  0.11226123056E+03  0.00000000000E+00 0.  1.
          2    1    6    6  503    0 -0.42936738830E+03  0.46176073522E+03 -0.63722509690E+03  0.89645700111E+03  0.00000000000E+00 0. -1.
         -2    1    6    6    0  503 -0.12693391224E+02  0.15509941017E+02 -0.52370618096E+02  0.56074611821E+02  0.00000000000E+00 0.  1.
<mgrwt>
<rscale>  0 0.15992434E+04</rscale>
<asrwt>0</asrwt>
<pdfrwt beam="1">  1        1 0.17386372E+00 0.15992434E+04</pdfrwt>
<pdfrwt beam="2">  1       -2 0.87042918E-01 0.15992434E+04</pdfrwt>
<totfact> 0.11559075E+01</totfact>
</mgrwt>
</event>
<event>
12    5  0.5197392E-008  0.1317810E+04  0.7818608E-02  0.9015559E-01
         -2   -1    0    0    0  501 -0.00000000000E+00  0.00000000000E+00  0.84218026710E+03  0.84218026710E+03  0.00000000000E+00 0.  1.
          1   -1    0    0  501    0  0.00000000000E+00 -0.00000000000E+00 -0.51551433905E+03  0.51551433905E+03  0.00000000000E+00 0. -1.
        -24    2    1    2    0    0  0.33054457112E+03  0.66121657097E+02  0.16083082802E+03  0.38210372249E+03  0.80653037544E+02 0.  0.
        254    2    1    2    0    0 -0.33054457112E+03 -0.66121657097E+02  0.16583510003E+03  0.97559088366E+03  0.90035798705E+03 0.  0.
         23    2    4    4    0    0 -0.49775188059E+03 -0.12171842786E+03 -0.20120451579E+03  0.55789399140E+03  0.90499382034E+02 0.  0.
         23    2    4    4    0    0  0.16720730947E+03  0.55596770761E+02  0.36703961583E+03  0.41769689226E+03  0.93291633934E+02 0.  0.
          3    1    3    3  502    0  0.15471295193E+03  0.26256655621E+02  0.31076281782E+02  0.15997263750E+03  0.00000000000E+00 0. -1.
         -4    1    3    3    0  502  0.17583161919E+03  0.39865001476E+02  0.12975454624E+03  0.22213108499E+03  0.00000000000E+00 0.  1.
         13    1    5    5    0    0 -0.26963700533E+03 -0.53054222353E+02 -0.61077868017E+02  0.28151264823E+03  0.00000000000E+00 0. -1.
        -13    1    5    5    0    0 -0.22811487526E+03 -0.68664205505E+02 -0.14012664778E+03  0.27638134317E+03  0.00000000000E+00 0.  1.
          4    1    6    6  503    0  0.37840003249E+01 -0.82350227384E+01 -0.18143101347E+01  0.92426175527E+01  0.00000000000E+00 0. -1.
         -4    1    6    6    0  503  0.16342330914E+03  0.63831793500E+02  0.36885392596E+03  0.40845427471E+03  0.00000000000E+00 0.  1.
<mgrwt>
<rscale>  0 0.13178103E+04</rscale>
<asrwt>0</asrwt>
<pdfrwt beam="1">  1        1 0.79309899E-01 0.13178103E+04</pdfrwt>
<pdfrwt beam="2">  1       -2 0.12956619E+00 0.13178103E+04</pdfrwt>
<totfact> 0.15959476E+01</totfact>
</mgrwt>
</event>
<event>
12    5  0.5197392E-008  0.2319165E+04  0.7818608E-02  0.8470403E-01
         -2   -1    0    0    0  501 -0.00000000000E+00  0.00000000000E+00  0.93363154428E+03  0.93363154428E+03  0.00000000000E+00 0.  1.
          1   -1    0    0  501    0  0.00000000000E+00 -0.00000000000E+00 -0.14402163067E+04  0.14402163067E+04  0.00000000000E+00 0. -1.
        -24    2    1    2    0    0 -0.46902812527E+03  0.27042670474E+03 -0.10542038150E+04  0.11877299341E+04  0.78985617860E+02 0.  0.
        254    2    1    2    0    0  0.46902812527E+03 -0.27042670474E+03  0.54761905265E+03  0.11861179168E+04  0.90214804819E+03 0.  0.
         23    2    4    4    0    0  0.29569256129E+03  0.20870503445E+03  0.55572630504E+03  0.66886782808E+03  0.86951498653E+02 0.  0.
         23    2    4    4    0    0  0.17333556398E+03 -0.47913173918E+03 -0.81072523907E+01  0.51725008874E+03  0.88710120801E+02 0.  0.
          1    1    3    3  502    0 -0.41496254186E+03  0.25725028173E+03 -0.90177315285E+03  0.10254591351E+04  0.00000000000E+00 0. -1.
         -2    1    3    3    0  502 -0.54065583412E+02  0.13176423006E+02 -0.15243066218E+03  0.16227079899E+03  0.00000000000E+00 0.  1.
         13    1    5    5    0    0  0.29783654321E+03  0.21202095064E+03  0.55537083904E+03  0.66490319509E+03  0.00000000000E+00 0.  1.
        -13    1    5    5    0    0 -0.21439819145E+01 -0.33159161988E+01  0.35546600237E+00  0.39646329926E+01  0.00000000000E+00 0. -1.
          1    1    6    6  503    0  0.45148062540E+02 -0.14408069270E+03  0.37639086450E+02  0.15560942899E+03  0.00000000000E+00 0. -1.
         -1    1    6    6    0  503  0.12818750144E+03 -0.33505104648E+03 -0.45746338841E+02  0.36164065976E+03  0.00000000000E+00 0.  1.
<mgrwt>
<rscale>  0 0.23191648E+04</rscale>
<asrwt>0</asrwt>
<pdfrwt beam="1">  1        1 0.22157174E+00 0.23191648E+04</pdfrwt>
<pdfrwt beam="2">  1       -2 0.14363562E+00 0.23191648E+04</pdfrwt>
<totfact> 0.19159529E+00</totfact>
</mgrwt>
</event>
<event>
12    5  0.5197392E-008  0.1248772E+04  0.7818608E-02  0.9071206E-01
         -2   -1    0    0    0  501 -0.00000000000E+00  0.00000000000E+00  0.33873705759E+03  0.33873705759E+03  0.00000000000E+00 0.  1.
          1   -1    0    0  501    0  0.00000000000E+00 -0.00000000000E+00 -0.11509155295E+04  0.11509155295E+04  0.00000000000E+00 0. -1.
        -24    2    1    2    0    0 -0.19300494733E+03  0.71463233316E+01  0.43357791510E+02  0.22593837493E+03  0.10893241734E+03 0.  0.
        254    2    1    2    0    0  0.19300494733E+03 -0.71463233316E+01 -0.85553626343E+03  0.12637142122E+04  0.90979631368E+03 0.  0.
         23    2    4    4    0    0 -0.41742099649E+01 -0.40807275748E+03 -0.19571026532E+03  0.46170140344E+03  0.91240772498E+02 0.  0.
         23    2    4    4    0    0  0.19717915730E+03  0.40092643415E+03 -0.65982599812E+03  0.80201280874E+03  0.90733521472E+02 0.  0.
          3    1    3    3  502    0 -0.19941237935E+03 -0.10094805742E+02  0.27306734231E+02  0.20152632551E+03  0.00000000000E+00 0. -1.
         -4    1    3    3    0  502  0.64074320145E+01  0.17241129073E+02  0.16051057279E+02  0.24412049412E+02  0.00000000000E+00 0.  1.
         13    1    5    5    0    0  0.20364191195E+02 -0.43009599952E+02 -0.18334302230E+01  0.47622341789E+02  0.00000000000E+00 0. -1.
        -13    1    5    5    0    0 -0.24538401159E+02 -0.36506315753E+03 -0.19387683510E+03  0.41407906165E+03  0.00000000000E+00 0.  1.
          3    1    6    6  503    0  0.67269214309E+02  0.20425384500E+03 -0.37523032621E+03  0.43248419404E+03  0.00000000000E+00 0. -1.
         -3    1    6    6    0  503  0.12990994299E+03  0.19667258915E+03 -0.28459567191E+03  0.36952861469E+03  0.00000000000E+00 0.  1.
<mgrwt>
<rscale>  0 0.12487718E+04</rscale>
<asrwt>0</asrwt>
<pdfrwt beam="1">  1        1 0.17706393E+00 0.12487718E+04</pdfrwt>
<pdfrwt beam="2">  1       -2 0.52113393E-01 0.12487718E+04</pdfrwt>
<totfact> 0.34914805E+01</totfact>
</mgrwt>
</event>
<event>
12    5  0.5197392E-008  0.1237257E+04  0.7818608E-02  0.9080856E-01
          3   -1    0    0  501    0  0.00000000000E+00  0.00000000000E+00  0.17111650878E+04  0.17111650878E+04  0.00000000000E+00 0. -1.
         -4   -1    0    0    0  501 -0.00000000000E+00 -0.00000000000E+00 -0.22364945982E+03  0.22364945982E+03  0.00000000000E+00 0.  1.
        -24    2    1    2    0    0 -0.11543411018E+03 -0.23335160433E+03  0.52720750028E+03  0.59357287078E+03  0.81258842783E+02 0.  0.
        254    2    1    2    0    0  0.11543411018E+03  0.23335160433E+03  0.96030812771E+03  0.13412416769E+04  0.89942177567E+03 0.  0.
         23    2    4    4    0    0  0.20100521807E+03  0.25133694041E+03  0.11023271525E+04  0.11515820847E+04  0.86271614136E+02 0.  0.
         23    2    4    4    0    0 -0.85571107894E+02 -0.17985336077E+02 -0.14201902477E+03  0.18965959215E+03  0.90307644622E+02 0.  0.
          1    1    3    3  502    0 -0.11433597057E+03 -0.23909678897E+03  0.52315672759E+03  0.58645796976E+03  0.00000000000E+00 0. -1.
         -2    1    3    3    0  502 -0.10981396061E+01  0.57451846407E+01  0.40507726888E+01  0.71149010202E+01  0.00000000000E+00 0.  1.
         13    1    5    5    0    0  0.10494189429E+03  0.72639811912E+02  0.49868129917E+03  0.51475468098E+03  0.00000000000E+00 0. -1.
        -13    1    5    5    0    0  0.96063323776E+02  0.17869712850E+03  0.60364585331E+03  0.63682740372E+03  0.00000000000E+00 0.  1.
          3    1    6    6  503    0 -0.74921743980E+02 -0.15571478673E+02 -0.15490135930E+03  0.17277201678E+03  0.00000000000E+00 0. -1.
         -3    1    6    6    0  503 -0.10649363915E+02 -0.24138574038E+01  0.12882334522E+02  0.16887575376E+02  0.00000000000E+00 0.  1.
<mgrwt>
<rscale>  0 0.12372569E+04</rscale>
<asrwt>0</asrwt>
<pdfrwt beam="1">  1        3 0.26325616E+00 0.12372569E+04</pdfrwt>
<pdfrwt beam="2">  1       -4 0.34407610E-01 0.12372569E+04</pdfrwt>
<totfact> 0.11589442E+00</totfact>
</mgrwt>
</event>
<event>
12    5  0.5197392E-008  0.2932493E+04  0.7818608E-02  0.8263275E-01
          1   -1    0    0  501    0  0.00000000000E+00  0.00000000000E+00  0.24444609470E+04  0.24444609470E+04  0.00000000000E+00 0. -1.
         -2   -1    0    0    0  501 -0.00000000000E+00 -0.00000000000E+00 -0.87949004850E+03  0.87949004850E+03  0.00000000000E+00 0.  1.
        -24    2    1    2    0    0  0.63123832619E+03  0.11447174700E+04  0.10044545867E+04  0.16504221955E+04  0.78259159468E+02 0.  0.
        254    2    1    2    0    0 -0.63123832619E+03 -0.11447174700E+04  0.56051631173E+03  0.16735288000E+04  0.88186177942E+03 0.  0.
         23    2    4    4    0    0 -0.54123028990E+03 -0.92784915210E+03  0.22014087704E+02  0.10791225385E+04  0.10092847587E+03 0.  0.
         23    2    4    4    0    0 -0.90008036295E+02 -0.21686831790E+03  0.53850222403E+03  0.59440626148E+03  0.90558514205E+02 0.  0.
          3    1    3    3  502    0  0.23395310900E+03  0.39971477085E+03  0.40103387639E+03  0.61264518708E+03  0.00000000000E+00 0. -1.
         -4    1    3    3    0  502  0.39728521719E+03  0.74500269916E+03  0.60342071035E+03  0.10377770084E+04  0.00000000000E+00 0.  1.
         13    1    5    5    0    0 -0.49832191858E+03 -0.88104758315E+03  0.40411804350E+02  0.10130166298E+04  0.00000000000E+00 0.  1.
        -13    1    5    5    0    0 -0.42908371319E+02 -0.46801568959E+02 -0.18397716646E+02  0.66105908692E+02  0.00000000000E+00 0. -1.
          3    1    6    6  503    0  0.18142471323E+02 -0.19892272159E+02  0.55000342584E+02  0.61236340858E+02  0.00000000000E+00 0. -1.
         -3    1    6    6    0  503 -0.10815050762E+03 -0.19697604574E+03  0.48350188145E+03  0.53316992062E+03  0.00000000000E+00 0.  1.
<mgrwt>
<rscale>  0 0.29324932E+04</rscale>
<asrwt>0</asrwt>
<pdfrwt beam="1">  1        1 0.37607091E+00 0.29324932E+04</pdfrwt>
<pdfrwt beam="2">  1       -2 0.13530616E+00 0.29324932E+04</pdfrwt>
<totfact> 0.43704701E-01</totfact>
</mgrwt>
</event>
<event>
12    5  0.5197392E-008  0.1555215E+04  0.7818608E-02  0.8848543E-01
          1   -1    0    0  501    0  0.00000000000E+00  0.00000000000E+00  0.37387525522E+04  0.37387525522E+04  0.00000000000E+00 0. -1.
         -2   -1    0    0    0  501 -0.00000000000E+00 -0.00000000000E+00 -0.16173137166E+03  0.16173137166E+03  0.00000000000E+00 0.  1.
        -24    2    1    2    0    0 -0.40949467965E+03 -0.22104576699E+03  0.10716885853E+04  0.11711247555E+04  0.80434105573E+02 0.  0.
        254    2    1    2    0    0  0.40949467965E+03  0.22104576699E+03  0.25053325952E+04  0.27293591683E+04  0.97783584171E+03 0.  0.
         23    2    4    4    0    0  0.14137002274E+02 -0.27981967346E+03  0.15487561552E+04  0.15761199307E+04  0.83722774912E+02 0.  0.
         23    2    4    4    0    0  0.39535767738E+03  0.50086544045E+03  0.95657643994E+03  0.11532392376E+04  0.88024832868E+02 0.  0.
          3    1    3    3  502    0 -0.10662930217E+03 -0.22151521198E+02  0.21666460079E+03  0.24249545812E+03  0.00000000000E+00 0. -1.
         -4    1    3    3    0  502 -0.30286537748E+03 -0.19889424579E+03  0.85502398455E+03  0.92862929743E+03  0.00000000000E+00 0.  1.
         13    1    5    5    0    0  0.13745032977E+02 -0.15151739958E+03  0.61244085474E+03  0.63105486993E+03  0.00000000000E+00 0. -1.
        -13    1    5    5    0    0  0.39196929738E+00 -0.12830227389E+03  0.93631530049E+03  0.94506506076E+03  0.00000000000E+00 0.  1.
          1    1    6    6  503    0  0.14023314992E+03  0.15999476114E+03  0.39322855440E+03  0.44709322957E+03  0.00000000000E+00 0. -1.
         -1    1    6    6    0  503  0.25512452746E+03  0.34087067931E+03  0.56334788554E+03  0.70614600804E+03  0.00000000000E+00 0.  1.
<mgrwt>
<rscale>  0 0.15552152E+04</rscale>
<asrwt>0</asrwt>
<pdfrwt beam="1">  1        1 0.57519264E+00 0.15552152E+04</pdfrwt>
<pdfrwt beam="2">  1       -2 0.24881752E-01 0.15552152E+04</pdfrwt>
<totfact> 0.19887042E+00</totfact>
</mgrwt>
</event>
<event>
12    5  0.5197392E-008  0.1318841E+04  0.7818608E-02  0.9014756E-01
          1   -1    0    0  501    0  0.00000000000E+00  0.00000000000E+00  0.27675477317E+04  0.27675477317E+04  0.00000000000E+00 0. -1.
         -2   -1    0    0    0  501 -0.00000000000E+00 -0.00000000000E+00 -0.15711928316E+03  0.15711928316E+03  0.00000000000E+00 0.  1.
        -24    2    1    2    0    0 -0.11364986712E+03  0.83204312145E+02  0.85620496095E+03  0.87140709356E+03  0.80150718578E+02 0.  0.
        254    2    1    2    0    0  0.11364986712E+03 -0.83204312145E+02  0.17542234876E+04  0.20532599213E+04  0.10577036495E+04 0.  0.
         23    2    4    4    0    0  0.21557406244E+03  0.22764792853E+03  0.16761593845E+04  0.17076859251E+04  0.91570631803E+02 0.  0.
         23    2    4    4    0    0 -0.10192419531E+03 -0.31085224067E+03  0.78064103047E+02  0.34557399620E+03  0.79433780884E+02 0.  0.
          1    1    3    3  502    0 -0.82383702138E+02  0.28179169057E+02  0.64719155431E+03  0.65302224152E+03  0.00000000000E+00 0. -1.
         -2    1    3    3    0  502 -0.31266164985E+02  0.55025143087E+02  0.20901340664E+03  0.21838485204E+03  0.00000000000E+00 0.  1.
         13    1    5    5    0    0  0.10773988924E+03  0.15386101719E+03  0.11674674263E+04  0.11824809884E+04  0.00000000000E+00 0. -1.
        -13    1    5    5    0    0  0.10783417319E+03  0.73786911342E+02  0.50869195817E+03  0.52520493667E+03  0.00000000000E+00 0.  1.
          1    1    6    6  503    0  0.13370846440E+02 -0.36092520943E+02  0.12583809638E+02  0.40494467123E+02  0.00000000000E+00 0. -1.
         -1    1    6    6    0  503 -0.11529504175E+03 -0.27475971973E+03  0.65480293409E+02  0.30507952908E+03  0.00000000000E+00 0.  1.
<mgrwt>
<rscale>  0 0.13188406E+04</rscale>
<asrwt>0</asrwt>
<pdfrwt beam="1">  1        1 0.42577654E+00 0.13188406E+04</pdfrwt>
<pdfrwt beam="2">  1       -2 0.24172199E-01 0.13188406E+04</pdfrwt>
<totfact> 0.11626458E+01</totfact>
</mgrwt>
</event>
<event>
12    5  0.5197392E-008  0.3282620E+04  0.7818608E-02  0.8167332E-01
          1   -1    0    0  501    0  0.00000000000E+00  0.00000000000E+00  0.28163423025E+04  0.28163423025E+04  0.00000000000E+00 0. -1.
         -2   -1    0    0    0  501 -0.00000000000E+00 -0.00000000000E+00 -0.95652392622E+03  0.95652392622E+03  0.00000000000E+00 0.  1.
        -24    2    1    2    0    0 -0.66034099906E+03  0.36634781769E+03  0.23552008260E+04  0.24745837294E+04  0.79578541324E+02 0.  0.
        254    2    1    2    0    0  0.66034099906E+03 -0.36634781769E+03 -0.49538244975E+03  0.12982824993E+04  0.93266967249E+03 0.  0.
         23    2    4    4    0    0  0.75072543609E+03 -0.13527938739E+03 -0.63672803266E+03  0.99808671520E+03  0.94155777517E+02 0.  0.
         23    2    4    4    0    0 -0.90384437026E+02 -0.23106843030E+03  0.14134558292E+03  0.30019578413E+03  0.92611927200E+02 0.  0.
          1    1    3    3  502    0 -0.62378649200E+03  0.34030854068E+03  0.22648002618E+04  0.23736553491E+04  0.00000000000E+00 0. -1.
         -2    1    3    3    0  502 -0.36554507066E+02  0.26039277009E+02  0.90400564214E+02  0.10092838027E+03  0.00000000000E+00 0.  1.
         13    1    5    5    0    0  0.57521558118E+03 -0.10186230496E+03 -0.43318176562E+03  0.72725190689E+03  0.00000000000E+00 0. -1.
        -13    1    5    5    0    0  0.17550985491E+03 -0.33417082426E+02 -0.20354626704E+03  0.27083480831E+03  0.00000000000E+00 0.  1.
          4    1    6    6  503    0 -0.99654206445E+02 -0.16385539851E+03  0.76915738350E+02  0.20662909594E+03  0.00000000000E+00 0. -1.
         -4    1    6    6    0  503  0.92697694190E+01 -0.67213031795E+02  0.64429844565E+02  0.93566688190E+02  0.00000000000E+00 0.  1.
<mgrwt>
<rscale>  0 0.32826202E+04</rscale>
<asrwt>0</asrwt>
<pdfrwt beam="1">  1        1 0.43328343E+00 0.32826202E+04</pdfrwt>
<pdfrwt beam="2">  1       -2 0.14715753E+00 0.32826202E+04</pdfrwt>
<totfact> 0.18689881E-01</totfact>
</mgrwt>
</event>
<event>
12    5  0.5197392E-008  0.1511526E+04  0.7818608E-02  0.8876824E-01
          1   -1    0    0  501    0  0.00000000000E+00  0.00000000000E+00  0.71180006943E+03  0.71180006943E+03  0.00000000000E+00 0. -1.
         -2   -1    0    0    0  501 -0.00000000000E+00 -0.00000000000E+00 -0.80244122730E+03  0.80244122730E+03  0.00000000000E+00 0.  1.
        -24    2    1    2    0    0 -0.23900260538E+03  0.17982610707E+03  0.35471234959E+03  0.47079170842E+03  0.79776610626E+02 0.  0.
        254    2    1    2    0    0  0.23900260538E+03 -0.17982610707E+03 -0.44535350746E+03  0.10434495883E+04  0.89497911852E+03 0.  0.
         23    2    4    4    0    0 -0.20096380453E+03  0.23467824211E+03 -0.79318793262E+02  0.33072971158E+03  0.87351835144E+02 0.  0.
         23    2    4    4    0    0  0.43996640991E+03 -0.41450434919E+03 -0.36603471419E+03  0.71271987673E+03  0.92757281926E+02 0.  0.
          1    1    3    3  502    0 -0.23663020750E+03  0.15240838050E+03  0.31441792145E+03  0.42199620718E+03  0.00000000000E+00 0. -1.
         -2    1    3    3    0  502 -0.23723978831E+01  0.27417726571E+02  0.40294428139E+02  0.48795501239E+02  0.00000000000E+00 0.  1.
         13    1    5    5    0    0 -0.18494488740E+03  0.22028222088E+03 -0.46331264018E+02  0.29133392222E+03  0.00000000000E+00 0.  1.
        -13    1    5    5    0    0 -0.16018917139E+02  0.14396021227E+02 -0.32987529244E+02  0.39395789357E+02  0.00000000000E+00 0. -1.
          4    1    6    6  503    0  0.16080699703E+03 -0.11257955415E+03 -0.80824863831E+02  0.21228684585E+03  0.00000000000E+00 0. -1.
         -4    1    6    6    0  503  0.27915941289E+03 -0.30192479504E+03 -0.28520985036E+03  0.50043303089E+03  0.00000000000E+00 0.  1.
<mgrwt>
<rscale>  0 0.15115260E+04</rscale>
<asrwt>0</asrwt>
<pdfrwt beam="1">  1        1 0.10950770E+00 0.15115260E+04</pdfrwt>
<pdfrwt beam="2">  1       -2 0.12345250E+00 0.15115260E+04</pdfrwt>
<totfact> 0.11115426E+01</totfact>
</mgrwt>
</event>
<event>
12    5  0.5197392E-008  0.1245376E+04  0.7818608E-02  0.9074040E-01
          1   -1    0    0  501    0  0.00000000000E+00  0.00000000000E+00  0.14755372861E+04  0.14755372861E+04  0.00000000000E+00 0. -1.
         -2   -1    0    0    0  501 -0.00000000000E+00 -0.00000000000E+00 -0.26277920994E+03  0.26277920994E+03  0.00000000000E+00 0.  1.
        -24    2    1    2    0    0 -0.27612181158E+03  0.74909674111E+01  0.36957901738E+03  0.46720866123E+03  0.73456882709E+02 0.  0.
        254    2    1    2    0    0  0.27612181158E+03 -0.74909674111E+01  0.84317905877E+03  0.12711078348E+04  0.91020043570E+03 0.  0.
         23    2    4    4    0    0  0.26603545895E+03 -0.43268665954E+03  0.44214442796E+03  0.67990752549E+03  0.93754665425E+02 0.  0.
         23    2    4    4    0    0  0.10086352630E+02  0.42519569212E+03  0.40103463081E+03  0.59120030932E+03  0.88294504459E+02 0.  0.
          3    1    3    3  502    0 -0.17283834414E+03 -0.15198948552E+02  0.27597631229E+03  0.32598623619E+03  0.00000000000E+00 0. -1.
         -4    1    3    3    0  502 -0.10328346744E+03  0.22689915964E+02  0.93602705089E+02  0.14122242504E+03  0.00000000000E+00 0.  1.
         13    1    5    5    0    0  0.24561233942E+03 -0.39261375794E+03  0.36122447143E+03  0.58732793477E+03  0.00000000000E+00 0. -1.
        -13    1    5    5    0    0  0.20423119525E+02 -0.40072901592E+02  0.80919956535E+02  0.92579590725E+02  0.00000000000E+00 0.  1.
          3    1    6    6  503    0  0.28278302360E+02  0.40869559075E+03  0.37462802065E+03  0.55513773259E+03  0.00000000000E+00 0. -1.
         -3    1    6    6    0  503 -0.18191949731E+02  0.16500101370E+02  0.26406610161E+02  0.36062576730E+02  0.00000000000E+00 0.  1.
<mgrwt>
<rscale>  0 0.12453763E+04</rscale>
<asrwt>0</asrwt>
<pdfrwt beam="1">  1        1 0.22700573E+00 0.12453763E+04</pdfrwt>
<pdfrwt beam="2">  1       -2 0.40427572E-01 0.12453763E+04</pdfrwt>
<totfact> 0.34102154E+01</totfact>
</mgrwt>
</event>
<event>
12    5  0.5197392E-008  0.1423112E+04  0.7818608E-02  0.8937257E-01
          1   -1    0    0  501    0  0.00000000000E+00  0.00000000000E+00  0.20168416675E+04  0.20168416675E+04  0.00000000000E+00 0. -1.
         -2   -1    0    0    0  501 -0.00000000000E+00 -0.00000000000E+00 -0.25104208471E+03  0.25104208471E+03  0.00000000000E+00 0.  1.
        -24    2    1    2    0    0  0.23770341651E+03 -0.21402616923E+03  0.92953422253E+03  0.98657173263E+03  0.83545182031E+02 0.  0.
        254    2    1    2    0    0 -0.23770341651E+03  0.21402616923E+03  0.83626536029E+03  0.12813120196E+04  0.91657548703E+03 0.  0.
         23    2    4    4    0    0  0.31290278383E+03  0.70220698478E+02  0.53899120223E+03  0.63224133927E+03  0.79865489283E+02 0.  0.
         23    2    4    4    0    0 -0.55060620035E+03  0.14380547076E+03  0.29727415807E+03  0.64907068034E+03  0.95255560131E+02 0.  0.
          1    1    3    3  502    0  0.13813135094E+03 -0.17418053545E+03  0.66262092451E+03  0.69891746197E+03  0.00000000000E+00 0. -1.
         -2    1    3    3    0  502  0.99572065572E+02 -0.39845633781E+02  0.26691329802E+03  0.28765427067E+03  0.00000000000E+00 0.  1.
         13    1    5    5    0    0  0.28960501498E+03  0.42623072646E+02  0.49752984690E+03  0.57725535041E+03  0.00000000000E+00 0. -1.
        -13    1    5    5    0    0  0.23297768855E+02  0.27597625832E+02  0.41461355328E+02  0.54985988859E+02  0.00000000000E+00 0.  1.
          2    1    6    6  503    0 -0.24994141161E+03  0.11200330720E+03  0.12467039634E+03  0.30092882512E+03  0.00000000000E+00 0. -1.
         -2    1    6    6    0  503 -0.30066478874E+03  0.31802163552E+02  0.17260376172E+03  0.34814185522E+03  0.00000000000E+00 0.  1.
<mgrwt>
<rscale>  0 0.14231123E+04</rscale>
<asrwt>0</asrwt>
<pdfrwt beam="1">  1        1 0.31028332E+00 0.14231123E+04</pdfrwt>
<pdfrwt beam="2">  1       -2 0.38621861E-01 0.14231123E+04</pdfrwt>
<totfact> 0.15722322E+01</totfact>
</mgrwt>
</event>
<event>
12    5  0.5197392E-008  0.1424322E+04  0.7818608E-02  0.8936399E-01
         -2   -1    0    0    0  501 -0.00000000000E+00  0.00000000000E+00  0.89656767981E+03  0.89656767981E+03  0.00000000000E+00 0.  1.
          1   -1    0    0  501    0  0.00000000000E+00 -0.00000000000E+00 -0.56568303176E+03  0.56568303176E+03  0.00000000000E+00 0. -1.
        -24    2    1    2    0    0  0.50449185718E+02  0.24773269068E+03 -0.24392001228E+03  0.36060680184E+03  0.81386035450E+02 0.  0.
        254    2    1    2    0    0 -0.50449185718E+02 -0.24773269068E+03  0.57480466033E+03  0.11016439097E+04  0.90515319143E+03 0.  0.
         23    2    4    4    0    0  0.26869669591E+03 -0.75633364828E+02 -0.11543796130E+03  0.31544475536E+03  0.90890871441E+02 0.  0.
         23    2    4    4    0    0 -0.31914588163E+03 -0.17209932586E+03  0.69024262162E+03  0.78619915437E+03  0.10100476181E+03 0.  0.
          3    1    3    3  502    0  0.55513375469E+02  0.22257711511E+03 -0.17954218132E+03  0.29130345329E+03  0.00000000000E+00 0. -1.
         -4    1    3    3    0  502 -0.50641897511E+01  0.25155575574E+02 -0.64377830958E+02  0.69303348542E+02  0.00000000000E+00 0.  1.
         13    1    5    5    0    0  0.22961803524E+03 -0.71788611330E+02 -0.60768996394E+02  0.24813487814E+03  0.00000000000E+00 0.  1.
        -13    1    5    5    0    0  0.39078660665E+02 -0.38447534986E+01 -0.54668964902E+02  0.67309877227E+02  0.00000000000E+00 0. -1.
          3    1    6    6  503    0 -0.63738735160E+01  0.11780002092E+02  0.20328129526E+02  0.24343943043E+02  0.00000000000E+00 0. -1.
         -3    1    6    6    0  503 -0.31277200811E+03 -0.18387932795E+03  0.66991449210E+03  0.76185521133E+03  0.00000000000E+00 0.  1.
<mgrwt>
<rscale>  0 0.14243218E+04</rscale>
<asrwt>0</asrwt>
<pdfrwt beam="1">  1        1 0.87028158E-01 0.14243218E+04</pdfrwt>
<pdfrwt beam="2">  1       -2 0.13793349E+00 0.14243218E+04</pdfrwt>
<totfact> 0.11839915E+01</totfact>
</mgrwt>
</event>
<event>
12    5  0.5197392E-008  0.1465266E+04  0.7818608E-02  0.8907885E-01
         -2   -1    0    0    0  501 -0.00000000000E+00  0.00000000000E+00  0.64009905806E+03  0.64009905806E+03  0.00000000000E+00 0.  1.
          1   -1    0    0  501    0  0.00000000000E+00 -0.00000000000E+00 -0.83854351248E+03  0.83854351248E+03  0.00000000000E+00 0. -1.
        -24    2    1    2    0    0  0.20842337591E+03 -0.54579458301E+02  0.36193322057E+03  0.42868620204E+03  0.79730689032E+02 0.  0.
        254    2    1    2    0    0 -0.20842337591E+03  0.54579458301E+02 -0.56037767499E+03  0.10499563685E+04  0.86137449244E+03 0.  0.
         23    2    4    4    0    0 -0.51683004755E+03 -0.57058332479E+02 -0.44681370286E+03  0.69143634813E+03  0.89848690006E+02 0.  0.
         23    2    4    4    0    0  0.30840667164E+03  0.11163779078E+03 -0.11356397213E+03  0.35852002036E+03  0.89789519404E+02 0.  0.
          1    1    3    3  502    0  0.54700805273E+01 -0.70916388716E+01 -0.21044841802E+01  0.92001074192E+01  0.00000000000E+00 0. -1.
         -2    1    3    3    0  502  0.20295329538E+03 -0.47487819429E+02  0.36403770475E+03  0.41948609462E+03  0.00000000000E+00 0.  1.
         13    1    5    5    0    0 -0.51859681266E+03 -0.62035293969E+02 -0.44360722817E+03  0.68525791106E+03  0.00000000000E+00 0.  1.
        -13    1    5    5    0    0  0.17667651067E+01  0.49769614894E+01 -0.32064746964E+01  0.61784370668E+01  0.00000000000E+00 0. -1.
          3    1    6    6  503    0  0.45766687735E+02 -0.14574268987E+02 -0.85716384183E+01  0.48790081040E+02  0.00000000000E+00 0. -1.
         -3    1    6    6    0  503  0.26263998390E+03  0.12621205977E+03 -0.10499233371E+03  0.30972993932E+03  0.00000000000E+00 0.  1.
<mgrwt>
<rscale>  0 0.14652657E+04</rscale>
<asrwt>0</asrwt>
<pdfrwt beam="1">  1        1 0.12900669E+00 0.14652657E+04</pdfrwt>
<pdfrwt beam="2">  1       -2 0.98476778E-01 0.14652657E+04</pdfrwt>
<totfact> 0.14910781E+01</totfact>
</mgrwt>
</event>
<event>
12    5  0.5197392E-008  0.1807197E+04  0.7818608E-02  0.8702481E-01
          1   -1    0    0  501    0  0.00000000000E+00  0.00000000000E+00  0.19519479394E+04  0.19519479394E+04  0.00000000000E+00 0. -1.
         -2   -1    0    0    0  501 -0.00000000000E+00 -0.00000000000E+00 -0.41829526104E+03  0.41829526104E+03  0.00000000000E+00 0.  1.
        -24    2    1    2    0    0 -0.46241970335E+03 -0.46644862367E+03  0.67219339889E+03  0.94327664125E+03  0.80749958747E+02 0.  0.
        254    2    1    2    0    0  0.46241970335E+03  0.46644862367E+03  0.86145927950E+03  0.14269665592E+04  0.92882461766E+03 0.  0.
         23    2    4    4    0    0  0.12590786129E+03  0.67996164705E+03  0.69688685024E+03  0.98669763434E+03  0.98591625344E+02 0.  0.
         23    2    4    4    0    0  0.33651184206E+03 -0.21351302338E+03  0.16457242926E+03  0.44026892490E+03  0.89020282833E+02 0.  0.
          3    1    3    3  502    0 -0.14660724394E+03 -0.17649871569E+03  0.18867896485E+03  0.29706099103E+03  0.00000000000E+00 0. -1.
         -4    1    3    3    0  502 -0.31581245942E+03 -0.28994990798E+03  0.48351443404E+03  0.64621565021E+03  0.00000000000E+00 0.  1.
         13    1    5    5    0    0  0.17606784408E+02  0.34788412113E+03  0.32303384897E+03  0.47506234135E+03  0.00000000000E+00 0.  1.
        -13    1    5    5    0    0  0.10830107688E+03  0.33207752592E+03  0.37385300126E+03  0.51163529299E+03  0.00000000000E+00 0. -1.
          3    1    6    6  503    0  0.46458571141E+01 -0.18953597758E+02 -0.45559523567E+01  0.20039450047E+02  0.00000000000E+00 0. -1.
         -3    1    6    6    0  503  0.33186598495E+03 -0.19455942562E+03  0.16912838162E+03  0.42022947485E+03  0.00000000000E+00 0.  1.
<mgrwt>
<rscale>  0 0.18071974E+04</rscale>
<asrwt>0</asrwt>
<pdfrwt beam="1">  1        1 0.30029968E+00 0.18071974E+04</pdfrwt>
<pdfrwt beam="2">  1       -2 0.64353118E-01 0.18071974E+04</pdfrwt>
<totfact> 0.59336846E+00</totfact>
</mgrwt>
</event>
<event>
12    5  0.5197392E-008  0.2524919E+04  0.7818608E-02  0.8394161E-01
          1   -1    0    0  501    0  0.00000000000E+00  0.00000000000E+00  0.16010532492E+04  0.16010532492E+04  0.00000000000E+00 0. -1.
         -2   -1    0    0    0  501 -0.00000000000E+00 -0.00000000000E+00 -0.99547204146E+03  0.99547204146E+03  0.00000000000E+00 0.  1.
        -24    2    1    2    0    0 -0.38487078485E+03 -0.95454361568E+03  0.66965621403E+03  0.12305865739E+04  0.81393092759E+02 0.  0.
        254    2    1    2    0    0  0.38487078485E+03  0.95454361568E+03 -0.64075006275E+02  0.13659387168E+04  0.89577002426E+03 0.  0.
         23    2    4    4    0    0  0.52852889527E+03  0.71098345992E+03 -0.34687017044E+03  0.95580459822E+03  0.91669195569E+02 0.  0.
         23    2    4    4    0    0 -0.14365811043E+03  0.24356015576E+03  0.28279516417E+03  0.41013411858E+03  0.90981801377E+02 0.  0.
          3    1    3    3  502    0 -0.22076945775E+03 -0.44486020738E+03  0.33820687216E+03  0.60085243277E+03  0.00000000000E+00 0. -1.
         -4    1    3    3    0  502 -0.16410132709E+03 -0.50968340829E+03  0.33144934186E+03  0.62973414110E+03  0.00000000000E+00 0.  1.
         13    1    5    5    0    0  0.21780025120E+03  0.31773128926E+03 -0.10483287564E+03  0.39922431466E+03  0.00000000000E+00 0. -1.
        -13    1    5    5    0    0  0.31072864407E+03  0.39325217066E+03 -0.24203729480E+03  0.55658028356E+03  0.00000000000E+00 0.  1.
          4    1    6    6  503    0 -0.44458690325E+02  0.95299604690E+02  0.48891172114E+02  0.11596954993E+03  0.00000000000E+00 0. -1.
         -4    1    6    6    0  503 -0.99199420101E+02  0.14826055106E+03  0.23390399206E+03  0.29416456865E+03  0.00000000000E+00 0.  1.
<mgrwt>
<rscale>  0 0.25249188E+04</rscale>
<asrwt>0</asrwt>
<pdfrwt beam="1">  1        1 0.24631588E+00 0.25249188E+04</pdfrwt>
<pdfrwt beam="2">  1       -2 0.15314955E+00 0.25249188E+04</pdfrwt>
<totfact> 0.12296454E+00</totfact>
</mgrwt>
</event>
<event>
12    5  0.5197392E-008  0.1126777E+04  0.7818608E-02  0.9179479E-01
          3   -1    0    0  501    0  0.00000000000E+00  0.00000000000E+00  0.22095849634E+03  0.22095849634E+03  0.00000000000E+00 0. -1.
         -2   -1    0    0    0  501 -0.00000000000E+00 -0.00000000000E+00 -0.14364991284E+04  0.14364991284E+04  0.00000000000E+00 0.  1.
        -24    2    1    2    0    0 -0.15352987346E+03  0.22738327497E+02 -0.38262812686E+03  0.42032012235E+03  0.78589237177E+02 0.  0.
        254    2    1    2    0    0  0.15352987346E+03 -0.22738327497E+02 -0.83291250518E+03  0.12371375024E+04  0.90148627551E+03 0.  0.
         23    2    4    4    0    0  0.19959547470E+03 -0.32711295678E+03 -0.57946160252E+02  0.39836679087E+03  0.92179729709E+02 0.  0.
         23    2    4    4    0    0 -0.46065601235E+02  0.30437462928E+03 -0.77496634493E+03  0.83877071151E+03  0.90540135568E+02 0.  0.
          3    1    3    3  502    0 -0.12859759436E+03  0.28458599923E+02 -0.22568681500E+03  0.26130781016E+03  0.00000000000E+00 0. -1.
         -4    1    3    3    0  502 -0.24932279099E+02 -0.57202724259E+01 -0.15694131186E+03  0.15901231219E+03  0.00000000000E+00 0.  1.
         13    1    5    5    0    0  0.19808766939E+03 -0.27219418892E+03 -0.65360944240E+02  0.34292922634E+03  0.00000000000E+00 0.  1.
        -13    1    5    5    0    0  0.15078053118E+01 -0.54918767855E+02  0.74147839881E+01  0.55437564531E+02  0.00000000000E+00 0. -1.
          1    1    6    6  503    0 -0.42140383602E+02  0.11492687833E+03 -0.40510228977E+03  0.42319246740E+03  0.00000000000E+00 0. -1.
         -1    1    6    6    0  503 -0.39252176334E+01  0.18944775095E+03 -0.36986405516E+03  0.41557824411E+03  0.00000000000E+00 0.  1.
<mgrwt>
<rscale>  0 0.11267772E+04</rscale>
<asrwt>0</asrwt>
<pdfrwt beam="1">  1        3 0.33993616E-01 0.11267772E+04</pdfrwt>
<pdfrwt beam="2">  1       -2 0.22099986E+00 0.11267772E+04</pdfrwt>
<totfact> 0.34867377E+00</totfact>
</mgrwt>
</event>
<event>
12    5  0.5197392E-008  0.1566632E+04  0.7818608E-02  0.8841314E-01
          1   -1    0    0  501    0  0.00000000000E+00  0.00000000000E+00  0.29773131238E+04  0.29773131238E+04  0.00000000000E+00 0. -1.
         -2   -1    0    0    0  501 -0.00000000000E+00 -0.00000000000E+00 -0.20608642004E+03  0.20608642004E+03  0.00000000000E+00 0.  1.
        -24    2    1    2    0    0  0.28408259703E+03 -0.20937841833E+03  0.17002937177E+04  0.17383781024E+04  0.80109028598E+02 0.  0.
        254    2    1    2    0    0 -0.28408259703E+03  0.20937841833E+03  0.10709329861E+04  0.14450214414E+04  0.90368537755E+03 0.  0.
         23    2    4    4    0    0  0.91052479164E+02  0.48078701210E+03  0.52554968807E+03  0.72370304298E+03  0.89982858522E+02 0.  0.
         23    2    4    4    0    0 -0.37513507619E+03 -0.27140859377E+03  0.54538329799E+03  0.72131839846E+03  0.92023584304E+02 0.  0.
          1    1    3    3  502    0  0.27712878945E+03 -0.18634802880E+03  0.15049017914E+04  0.15415107380E+04  0.00000000000E+00 0. -1.
         -2    1    3    3    0  502  0.69538075778E+01 -0.23030389526E+02  0.19539192627E+03  0.19686736432E+03  0.00000000000E+00 0.  1.
         13    1    5    5    0    0  0.10343531815E+03  0.46898678050E+03  0.51080767971E+03  0.70112192305E+03  0.00000000000E+00 0.  1.
        -13    1    5    5    0    0 -0.12382838987E+02  0.11800231602E+02  0.14742008359E+02  0.22581119938E+02  0.00000000000E+00 0. -1.
          3    1    6    6  503    0 -0.81475481926E+02 -0.56390942840E+02  0.64507365416E+02  0.11823448221E+03  0.00000000000E+00 0. -1.
         -3    1    6    6    0  503 -0.29365959426E+03 -0.21501765093E+03  0.48087593257E+03  0.60308391625E+03  0.00000000000E+00 0.  1.
<mgrwt>
<rscale>  0 0.15666318E+04</rscale>
<asrwt>0</asrwt>
<pdfrwt beam="1">  1        1 0.45804814E+00 0.15666318E+04</pdfrwt>
<pdfrwt beam="2">  1       -2 0.31705605E-01 0.15666318E+04</pdfrwt>
<totfact> 0.48752171E+00</totfact>
</mgrwt>
</event>
<event>
12    5  0.5197392E-008  0.1677246E+04  0.7818608E-02  0.8774449E-01
         -2   -1    0    0    0  501 -0.00000000000E+00  0.00000000000E+00  0.77844818984E+03  0.77844818984E+03  0.00000000000E+00 0.  1.
          1   -1    0    0  501    0  0.00000000000E+00 -0.00000000000E+00 -0.90344918538E+03  0.90344918538E+03  0.00000000000E+00 0. -1.
        -24    2    1    2    0    0  0.58981889030E+03  0.18448420278E+02 -0.66602212029E+02  0.59931905747E+03  0.80751535213E+02 0.  0.
        254    2    1    2    0    0 -0.58981889030E+03 -0.18448420278E+02 -0.58398783517E+02  0.10825783178E+04  0.90572552608E+03 0.  0.
         23    2    4    4    0    0 -0.55114712590E+03  0.67959190888E+02  0.34407955434E+03  0.65945963005E+03  0.90081396160E+02 0.  0.
         23    2    4    4    0    0 -0.38671764397E+02 -0.86407611166E+02 -0.40247833786E+03  0.42311868770E+03  0.89882316431E+02 0.  0.
          3    1    3    3  502    0  0.30961632542E+03  0.13639427966E+02  0.54365263668E+01  0.30996428630E+03  0.00000000000E+00 0. -1.
         -4    1    3    3    0  502  0.28020256488E+03  0.48089923115E+01 -0.72038738396E+02  0.28935477118E+03  0.00000000000E+00 0.  1.
         13    1    5    5    0    0 -0.22947629787E+03  0.57120211642E+02  0.18610469348E+03  0.30092697918E+03  0.00000000000E+00 0.  1.
        -13    1    5    5    0    0 -0.32167082803E+03  0.10838979247E+02  0.15797486086E+03  0.35853265087E+03  0.00000000000E+00 0. -1.
          1    1    6    6  503    0 -0.16714643433E+02  0.13391969545E+02 -0.13679461784E+03  0.13846115565E+03  0.00000000000E+00 0. -1.
         -1    1    6    6    0  503 -0.21957120965E+02 -0.99799580711E+02 -0.26568372001E+03  0.28465753205E+03  0.00000000000E+00 0.  1.
<mgrwt>
<rscale>  0 0.16772458E+04</rscale>
<asrwt>0</asrwt>
<pdfrwt beam="1">  1        1 0.13899218E+00 0.16772458E+04</pdfrwt>
<pdfrwt beam="2">  1       -2 0.11976126E+00 0.16772458E+04</pdfrwt>
<totfact> 0.80598812E+00</totfact>
</mgrwt>
</event>
<event>
12    5  0.5197392E-008  0.1701275E+04  0.7818608E-02  0.8760637E-01
          1   -1    0    0  501    0  0.00000000000E+00  0.00000000000E+00  0.89936964382E+03  0.89936964382E+03  0.00000000000E+00 0. -1.
         -2   -1    0    0    0  501 -0.00000000000E+00 -0.00000000000E+00 -0.80454634883E+03  0.80454634883E+03  0.00000000000E+00 0.  1.
        -24    2    1    2    0    0 -0.20878828277E+03  0.50676154907E+03 -0.23337016182E+03  0.60111281588E+03  0.80468443205E+02 0.  0.
        254    2    1    2    0    0  0.20878828277E+03 -0.50676154907E+03  0.32819345681E+03  0.11028031768E+04  0.89892384937E+03 0.  0.
         23    2    4    4    0    0  0.40063426499E+03  0.87788733756E+02  0.96466251031E+02  0.43024536734E+03  0.87124408016E+02 0.  0.
         23    2    4    4    0    0 -0.19184598222E+03 -0.59455028283E+03  0.23172720578E+03  0.67255780943E+03  0.91332302169E+02 0.  0.
          3    1    3    3  502    0 -0.10128309472E+02  0.27689560882E+02  0.57080544550E+01  0.30031255722E+02  0.00000000000E+00 0. -1.
         -4    1    3    3    0  502 -0.19865997330E+03  0.47907198819E+03 -0.23907821628E+03  0.57108156016E+03  0.00000000000E+00 0.  1.
         13    1    5    5    0    0  0.33287966836E+03  0.37874444206E+02  0.73159173675E+02  0.34292216584E+03  0.00000000000E+00 0. -1.
        -13    1    5    5    0    0  0.67754596634E+02  0.49914289549E+02  0.23307077356E+02  0.87323201505E+02  0.00000000000E+00 0.  1.
          2    1    6    6  503    0 -0.11754676229E+03 -0.46848339130E+03  0.15460243202E+03  0.50714479317E+03  0.00000000000E+00 0. -1.
         -2    1    6    6    0  503 -0.74299219929E+02 -0.12606689153E+03  0.77124773754E+02  0.16541301626E+03  0.00000000000E+00 0.  1.
<mgrwt>
<rscale>  0 0.17012755E+04</rscale>
<asrwt>0</asrwt>
<pdfrwt beam="1">  1        1 0.13836456E+00 0.17012755E+04</pdfrwt>
<pdfrwt beam="2">  1       -2 0.12377636E+00 0.17012755E+04</pdfrwt>
<totfact> 0.74650586E+00</totfact>
</mgrwt>
</event>
<event>
12    5  0.5197392E-008  0.2347598E+04  0.7818608E-02  0.8459387E-01
          1   -1    0    0  501    0  0.00000000000E+00  0.00000000000E+00  0.28583373786E+04  0.28583373786E+04  0.00000000000E+00 0. -1.
         -2   -1    0    0    0  501 -0.00000000000E+00 -0.00000000000E+00 -0.48203004782E+03  0.48203004782E+03  0.00000000000E+00 0.  1.
        -24    2    1    2    0    0  0.33620612850E+03 -0.39984958405E+03 -0.19780539916E+03  0.56431282679E+03  0.80048359366E+02 0.  0.
        254    2    1    2    0    0 -0.33620612850E+03  0.39984958405E+03  0.25741127299E+04  0.27760545996E+04  0.89861479121E+03 0.  0.
         23    2    4    4    0    0 -0.60052930197E+03  0.27132066940E+03  0.21590308037E+04  0.22590607536E+04  0.87699080929E+02 0.  0.
         23    2    4    4    0    0  0.26432317347E+03  0.12852891466E+03  0.41508192622E+03  0.51699384604E+03  0.92753487464E+02 0.  0.
          3    1    3    3  502    0  0.12671753012E+03 -0.94016927317E+02 -0.56698121274E+02  0.16766392581E+03  0.00000000000E+00 0. -1.
         -4    1    3    3    0  502  0.20948859837E+03 -0.30583265674E+03 -0.14110727789E+03  0.39664890098E+03  0.00000000000E+00 0.  1.
         13    1    5    5    0    0 -0.52475441425E+03  0.25724405528E+03  0.18266438149E+04  0.19178553975E+04  0.00000000000E+00 0. -1.
        -13    1    5    5    0    0 -0.75774887718E+02  0.14076614117E+02  0.33238698883E+03  0.34120535608E+03  0.00000000000E+00 0.  1.
          1    1    6    6  503    0  0.24428766949E+03  0.12918696181E+03  0.33414392697E+03  0.43361030949E+03  0.00000000000E+00 0. -1.
         -1    1    6    6    0  503  0.20035503988E+02 -0.65804715714E+00  0.80937999241E+02  0.83383536548E+02  0.00000000000E+00 0.  1.
<mgrwt>
<rscale>  0 0.23475984E+04</rscale>
<asrwt>0</asrwt>
<pdfrwt beam="1">  1        1 0.43974420E+00 0.23475984E+04</pdfrwt>
<pdfrwt beam="2">  1       -2 0.74158471E-01 0.23475984E+04</pdfrwt>
<totfact> 0.98091128E-01</totfact>
</mgrwt>
</event>
<event>
12    5  0.5197392E-008  0.1582101E+04  0.7818608E-02  0.8831620E-01
         -2   -1    0    0    0  501 -0.00000000000E+00  0.00000000000E+00  0.56590771588E+03  0.56590771588E+03  0.00000000000E+00 0.  1.
          1   -1    0    0  501    0  0.00000000000E+00 -0.00000000000E+00 -0.11057650749E+04  0.11057650749E+04  0.00000000000E+00 0. -1.
        -24    2    1    2    0    0  0.28051401776E+03  0.12079261487E+02 -0.65884786717E+03  0.72057621572E+03  0.79470421361E+02 0.  0.
        254    2    1    2    0    0 -0.28051401776E+03 -0.12079261487E+02  0.11899050811E+03  0.95109657509E+03  0.90088397222E+03 0.  0.
         23    2    4    4    0    0 -0.26353962264E+03 -0.74421316940E+02 -0.35865496343E+03  0.46029294896E+03  0.90799509670E+02 0.  0.
         23    2    4    4    0    0 -0.16974395126E+02  0.62342055452E+02  0.47764547154E+03  0.49080362613E+03  0.92565333518E+02 0.  0.
          1    1    3    3  502    0  0.28075798711E+03  0.40651441655E+01 -0.61589252455E+03  0.67687899548E+03  0.00000000000E+00 0. -1.
         -2    1    3    3    0  502 -0.24396934737E+00  0.80141173219E+01 -0.42955342618E+02  0.43697220242E+02  0.00000000000E+00 0.  1.
         13    1    5    5    0    0  0.15943026785E+01 -0.73715113557E+01 -0.38508863566E+02  0.39240458125E+02  0.00000000000E+00 0.  1.
        -13    1    5    5    0    0 -0.26513392532E+03 -0.67049805584E+02 -0.32014609986E+03  0.42105249084E+03  0.00000000000E+00 0. -1.
          1    1    6    6  503    0 -0.58984471086E+01  0.16794525468E+02  0.39792784968E+03  0.39832577285E+03  0.00000000000E+00 0. -1.
         -1    1    6    6    0  503 -0.11075948017E+02  0.45547529984E+02  0.79717621859E+02  0.92477853279E+02  0.00000000000E+00 0.  1.
<mgrwt>
<rscale>  0 0.15821011E+04</rscale>
<asrwt>0</asrwt>
<pdfrwt beam="1">  1        1 0.17011770E+00 0.15821011E+04</pdfrwt>
<pdfrwt beam="2">  1       -2 0.87062727E-01 0.15821011E+04</pdfrwt>
<totfact> 0.12065308E+01</totfact>
</mgrwt>
</event>
<event>
12    5  0.5197392E-008  0.1850172E+04  0.7818608E-02  0.8680064E-01
         -2   -1    0    0    0  501 -0.00000000000E+00  0.00000000000E+00  0.22490939933E+04  0.22490939933E+04  0.00000000000E+00 0.  1.
          1   -1    0    0  501    0  0.00000000000E+00 -0.00000000000E+00 -0.38050184302E+03  0.38050184302E+03  0.00000000000E+00 0. -1.
        -24    2    1    2    0    0 -0.49559372988E+02 -0.69994208045E+03  0.79503166582E+03  0.10632821194E+04  0.78220638363E+02 0.  0.
        254    2    1    2    0    0  0.49559372988E+02  0.69994208045E+03  0.10735604844E+04  0.15663137169E+04  0.89912818809E+03 0.  0.
         23    2    4    4    0    0 -0.12831870165E+03  0.23170080821E+02  0.78974755862E+03  0.80562233801E+03  0.91233783794E+02 0.  0.
         23    2    4    4    0    0  0.17787807464E+03  0.67677199963E+03  0.28381292579E+03  0.76069137890E+03  0.91873000149E+02 0.  0.
          1    1    3    3  502    0  0.16537243302E+01 -0.45092397727E+03  0.53366318937E+03  0.69866413087E+03  0.00000000000E+00 0. -1.
         -2    1    3    3    0  502 -0.51213097318E+02 -0.24901810319E+03  0.26136847645E+03  0.36461798850E+03  0.00000000000E+00 0.  1.
         13    1    5    5    0    0 -0.89775491728E+02 -0.24359005613E+01  0.68812005184E+03  0.69395589072E+03  0.00000000000E+00 0. -1.
        -13    1    5    5    0    0 -0.38543209924E+02  0.25605981382E+02  0.10162750679E+03  0.11166644728E+03  0.00000000000E+00 0.  1.
          2    1    6    6  503    0  0.17923881299E+03  0.67948507994E+03  0.28258119308E+03  0.75741577527E+03  0.00000000000E+00 0. -1.
         -2    1    6    6    0  503 -0.13607383551E+01 -0.27130803091E+01  0.12317327105E+01  0.32756036245E+01  0.00000000000E+00 0.  1.
<mgrwt>
<rscale>  0 0.18501723E+04</rscale>
<asrwt>0</asrwt>
<pdfrwt beam="1">  1        1 0.58538746E-01 0.18501723E+04</pdfrwt>
<pdfrwt beam="2">  1       -2 0.34601445E+00 0.18501723E+04</pdfrwt>
<totfact> 0.87136498E-01</totfact>
</mgrwt>
</event>
<event>
12    5  0.5197392E-008  0.1303320E+04  0.7818608E-02  0.9026937E-01
          1   -1    0    0  501    0  0.00000000000E+00  0.00000000000E+00  0.10819152834E+04  0.10819152834E+04  0.00000000000E+00 0. -1.
         -4   -1    0    0    0  501 -0.00000000000E+00 -0.00000000000E+00 -0.39250826866E+03  0.39250826866E+03  0.00000000000E+00 0.  1.
        -24    2    1    2    0    0 -0.20266009496E+03  0.21335656967E+03  0.34781251745E+03  0.46232094127E+03  0.78580948930E+02 0.  0.
        254    2    1    2    0    0  0.20266009496E+03 -0.21335656967E+03  0.34159449730E+03  0.10121026108E+04  0.90613064968E+03 0.  0.
         23    2    4    4    0    0  0.22510787470E+03 -0.51977861846E+03  0.44365169704E+02  0.57501438970E+03  0.88486793456E+02 0.  0.
         23    2    4    4    0    0 -0.22447779731E+02  0.30642204880E+03  0.29722932760E+03  0.43708822110E+03  0.91117863413E+02 0.  0.
          1    1    3    3  502    0 -0.37802327501E+02  0.15452759864E+02  0.85172268408E+02  0.94456969344E+02  0.00000000000E+00 0. -1.
         -2    1    3    3    0  502 -0.16485776746E+03  0.19790380980E+03  0.26264024904E+03  0.36786397193E+03  0.00000000000E+00 0.  1.
         13    1    5    5    0    0  0.15282716667E+03 -0.24331431069E+03  0.30104686085E+02  0.28890186704E+03  0.00000000000E+00 0.  1.
        -13    1    5    5    0    0  0.72280708027E+02 -0.27646430778E+03  0.14260483619E+02  0.28611252265E+03  0.00000000000E+00 0. -1.
          4    1    6    6  503    0 -0.25874173522E+02  0.31090113866E+03  0.29795758130E+03  0.43140202959E+03  0.00000000000E+00 0. -1.
         -4    1    6    6    0  503  0.34263937906E+01 -0.44790898674E+01 -0.72825369862E+00  0.56861915109E+01  0.00000000000E+00 0.  1.
<mgrwt>
<rscale>  0 0.13033199E+04</rscale>
<asrwt>0</asrwt>
<pdfrwt beam="1">  1        1 0.16644850E+00 0.13033199E+04</pdfrwt>
<pdfrwt beam="2">  1       -4 0.60385888E-01 0.13033199E+04</pdfrwt>
<totfact> 0.16221122E+01</totfact>
</mgrwt>
</event>
<event>
12    5  0.5197392E-008  0.2569798E+04  0.7818608E-02  0.8378533E-01
          1   -1    0    0  501    0  0.00000000000E+00  0.00000000000E+00  0.15280875978E+04  0.15280875978E+04  0.00000000000E+00 0. -1.
         -2   -1    0    0    0  501 -0.00000000000E+00 -0.00000000000E+00 -0.10804132000E+04  0.10804132000E+04  0.00000000000E+00 0.  1.
        -24    2    1    2    0    0 -0.40156713273E+03  0.98249465500E+03  0.59369545747E+03  0.12188209541E+04  0.80612113015E+02 0.  0.
        254    2    1    2    0    0  0.40156713273E+03 -0.98249465500E+03 -0.14602105967E+03  0.13896798437E+04  0.88506271462E+03 0.  0.
         23    2    4    4    0    0  0.27521414577E+02 -0.98228231880E+03 -0.17990651453E+03  0.10032012466E+04  0.91708260749E+02 0.  0.
         23    2    4    4    0    0  0.37404571816E+03 -0.21233619755E+00  0.33885454860E+02  0.38647859707E+03  0.91144048550E+02 0.  0.
          1    1    3    3  502    0 -0.39445341378E+03  0.94897006593E+03  0.58820572894E+03  0.11841130272E+04  0.00000000000E+00 0. -1.
         -2    1    3    3    0  502 -0.71137189501E+01  0.33524589071E+02  0.54897285274E+01  0.34707926890E+02  0.00000000000E+00 0.  1.
         13    1    5    5    0    0 -0.30188383508E+02 -0.39586788439E+03 -0.90615733853E+02  0.40722712534E+03  0.00000000000E+00 0.  1.
        -13    1    5    5    0    0  0.57709798085E+02 -0.58641443441E+03 -0.89290780676E+02  0.59597412125E+03  0.00000000000E+00 0. -1.
          3    1    6    6  503    0 -0.44864991331E+01  0.39152261206E+01 -0.18640737129E+01  0.62395865932E+01  0.00000000000E+00 0. -1.
         -3    1    6    6    0  503  0.37853221729E+03 -0.41275623182E+01  0.35749528573E+02  0.38023901048E+03  0.00000000000E+00 0.  1.
<mgrwt>
<rscale>  0 0.25697984E+04</rscale>
<asrwt>0</asrwt>
<pdfrwt beam="1">  1        1 0.23509040E+00 0.25697984E+04</pdfrwt>
<pdfrwt beam="2">  1       -2 0.16621742E+00 0.25697984E+04</pdfrwt>
<totfact> 0.11004777E+00</totfact>
</mgrwt>
</event>
<event>
12    5  0.5197392E-008  0.1988236E+04  0.7818608E-02  0.8612141E-01
         -2   -1    0    0    0  501 -0.00000000000E+00  0.00000000000E+00  0.56292654375E+03  0.56292654375E+03  0.00000000000E+00 0.  1.
          1   -1    0    0  501    0  0.00000000000E+00 -0.00000000000E+00 -0.17555936046E+04  0.17555936046E+04  0.00000000000E+00 0. -1.
        -24    2    1    2    0    0  0.49693959133E+03  0.61567497546E+03 -0.33353791204E+03  0.86230066285E+03  0.79437154733E+02 0.  0.
        254    2    1    2    0    0 -0.49693959133E+03 -0.61567497546E+03 -0.85912914882E+03  0.14562194855E+04  0.86975149486E+03 0.  0.
         23    2    4    4    0    0 -0.29365600306E+03 -0.48805224231E+02  0.91416343273E+02  0.32628437866E+03  0.97410214524E+02 0.  0.
         23    2    4    4    0    0 -0.20328358827E+03 -0.56686975123E+03 -0.95054549210E+03  0.11299351069E+04  0.10271845528E+03 0.  0.
          3    1    3    3  502    0  0.64543570620E+02  0.84931549686E+02 -0.75554185439E+02  0.13071983621E+03  0.00000000000E+00 0. -1.
         -4    1    3    3    0  502  0.43239602071E+03  0.53074342577E+03 -0.25798372660E+03  0.73158082664E+03  0.00000000000E+00 0.  1.
         13    1    5    5    0    0 -0.29230041395E+03 -0.29852718322E+02  0.81834967568E+02  0.30500439129E+03  0.00000000000E+00 0. -1.
        -13    1    5    5    0    0 -0.13555891068E+01 -0.18952505909E+02  0.95813757048E+01  0.21279987369E+02  0.00000000000E+00 0.  1.
          4    1    6    6  503    0 -0.12168828943E+03 -0.29641952862E+03 -0.59534262214E+03  0.67609571398E+03  0.00000000000E+00 0. -1.
         -4    1    6    6    0  503 -0.81595298842E+02 -0.27045022260E+03 -0.35520286996E+03  0.45383939288E+03  0.00000000000E+00 0.  1.
<mgrwt>
<rscale>  0 0.19882356E+04</rscale>
<asrwt>0</asrwt>
<pdfrwt beam="1">  1        1 0.27009132E+00 0.19882356E+04</pdfrwt>
<pdfrwt beam="2">  1       -2 0.86604084E-01 0.19882356E+04</pdfrwt>
<totfact> 0.41110766E+00</totfact>
</mgrwt>
</event>
<event>
12    5  0.5197392E-008  0.1508451E+04  0.7818608E-02  0.8878852E-01
          1   -1    0    0  501    0  0.00000000000E+00  0.00000000000E+00  0.54726840730E+03  0.54726840730E+03  0.00000000000E+00 0. -1.
         -2   -1    0    0    0  501 -0.00000000000E+00 -0.00000000000E+00 -0.10394468216E+04  0.10394468216E+04  0.00000000000E+00 0.  1.
        -24    2    1    2    0    0  0.25645023341E+03  0.40038928147E+03 -0.22442659485E+03  0.53174304877E+03  0.79404499314E+02 0.  0.
        254    2    1    2    0    0 -0.25645023341E+03 -0.40038928147E+03 -0.26775181942E+03  0.10549721801E+04  0.90288258652E+03 0.  0.
         23    2    4    4    0    0 -0.41979715935E+03 -0.43471725467E+03 -0.47494157320E+03  0.77416771732E+03  0.92506270532E+02 0.  0.
         23    2    4    4    0    0  0.16334692594E+03  0.34327973197E+02  0.20718975378E+03  0.28080446277E+03  0.89793787551E+02 0.  0.
          3    1    3    3  502    0  0.16519964123E+03  0.29694082882E+03 -0.12653891764E+03  0.36259740066E+03  0.00000000000E+00 0. -1.
         -4    1    3    3    0  502  0.91250592174E+02  0.10344845265E+03 -0.97887677206E+02  0.16914564812E+03  0.00000000000E+00 0.  1.
         13    1    5    5    0    0 -0.27858400868E+03 -0.31537417857E+03 -0.37681135132E+03  0.56485105726E+03  0.00000000000E+00 0. -1.
        -13    1    5    5    0    0 -0.14121315067E+03 -0.11934307610E+03 -0.98130221874E+02  0.20931666007E+03  0.00000000000E+00 0.  1.
          2    1    6    6  503    0  0.11848499345E+03  0.56246216217E+02  0.18346266883E+03  0.22552357164E+03  0.00000000000E+00 0. -1.
         -2    1    6    6    0  503  0.44861932490E+02 -0.21918243019E+02  0.23727084947E+02  0.55280891128E+02  0.00000000000E+00 0.  1.
<mgrwt>
<rscale>  0 0.15084514E+04</rscale>
<asrwt>0</asrwt>
<pdfrwt beam="1">  1        1 0.84195140E-01 0.15084514E+04</pdfrwt>
<pdfrwt beam="2">  1       -2 0.15991489E+00 0.15084514E+04</pdfrwt>
<totfact> 0.83269151E+00</totfact>
</mgrwt>
</event>
<event>
12    5  0.5197392E-008  0.3268476E+04  0.7818608E-02  0.8170963E-01
         -2   -1    0    0    0  501 -0.00000000000E+00  0.00000000000E+00  0.10708737302E+04  0.10708737302E+04  0.00000000000E+00 0.  1.
          1   -1    0    0  501    0  0.00000000000E+00 -0.00000000000E+00 -0.24939764721E+04  0.24939764721E+04  0.00000000000E+00 0. -1.
        -24    2    1    2    0    0  0.21868918484E+03 -0.12386111606E+04  0.24854499312E+03  0.12844387834E+04  0.77626078048E+02 0.  0.
        254    2    1    2    0    0 -0.21868918484E+03  0.12386111606E+04 -0.16716477350E+04  0.22804114189E+04  0.90768250098E+03 0.  0.
         23    2    4    4    0    0 -0.33656986695E+03  0.11844805191E+04 -0.99525357470E+03  0.15852599613E+04  0.79032218244E+02 0.  0.
         23    2    4    4    0    0  0.11788068211E+03  0.54130641522E+02 -0.67639416034E+03  0.69515145759E+03  0.94342499873E+02 0.  0.
          3    1    3    3  502    0  0.70713610855E+02 -0.34095004759E+03  0.35183884558E+02  0.34997893572E+03  0.00000000000E+00 0. -1.
         -4    1    3    3    0  502  0.14797557399E+03 -0.89766111300E+03  0.21336110856E+03  0.93445984769E+03  0.00000000000E+00 0.  1.
         13    1    5    5    0    0 -0.14743325426E+01  0.72597348277E+02 -0.57001771972E+02  0.92313328622E+02  0.00000000000E+00 0. -1.
        -13    1    5    5    0    0 -0.33509553441E+03  0.11118831708E+04 -0.93825180272E+03  0.14929466327E+04  0.00000000000E+00 0.  1.
          2    1    6    6  503    0  0.21962453482E+02 -0.15536621776E+02 -0.42730910324E+02  0.50494224187E+02  0.00000000000E+00 0. -1.
         -2    1    6    6    0  503  0.95918228626E+02  0.69667263299E+02 -0.63366325001E+03  0.64465723340E+03  0.00000000000E+00 0.  1.
<mgrwt>
<rscale>  0 0.32684760E+04</rscale>
<asrwt>0</asrwt>
<pdfrwt beam="1">  1        1 0.38368869E+00 0.32684760E+04</pdfrwt>
<pdfrwt beam="2">  1       -2 0.16474980E+00 0.32684760E+04</pdfrwt>
<totfact> 0.23270071E-01</totfact>
</mgrwt>
</event>
<event>
12    5  0.5197392E-008  0.1695106E+04  0.7818608E-02  0.8764160E-01
         -2   -1    0    0    0  501 -0.00000000000E+00  0.00000000000E+00  0.39849848323E+03  0.39849848323E+03  0.00000000000E+00 0.  1.
          1   -1    0    0  501    0  0.00000000000E+00 -0.00000000000E+00 -0.18026324516E+04  0.18026324516E+04  0.00000000000E+00 0. -1.
        -24    2    1    2    0    0  0.55184376752E+03 -0.24941989582E+03 -0.46236021187E+03  0.76606954956E+03  0.79647731080E+02 0.  0.
        254    2    1    2    0    0 -0.55184376752E+03  0.24941989582E+03 -0.94177375652E+03  0.14350613853E+04  0.89761993232E+03 0.  0.
         23    2    4    4    0    0 -0.11631683202E+03  0.52501042251E+03 -0.59454896139E+03  0.80709267390E+03  0.93512392878E+02 0.  0.
         23    2    4    4    0    0 -0.43552693550E+03 -0.27559052668E+03 -0.34722479513E+03  0.62796871139E+03  0.90254053576E+02 0.  0.
          1    1    3    3  502    0  0.34176841686E+02 -0.58684767909E+01 -0.49999878765E+02  0.60848035334E+02  0.00000000000E+00 0. -1.
         -2    1    3    3    0  502  0.51766692583E+03 -0.24355141903E+03 -0.41236033310E+03  0.70522151423E+03  0.00000000000E+00 0.  1.
         13    1    5    5    0    0 -0.92583594793E+02  0.26985900586E+03 -0.36321673804E+03  0.46186795068E+03  0.00000000000E+00 0. -1.
        -13    1    5    5    0    0 -0.23733237224E+02  0.25515141664E+03 -0.23133222335E+03  0.34522472322E+03  0.00000000000E+00 0.  1.
          1    1    6    6  503    0 -0.39590079868E+03 -0.27404870943E+03 -0.33463430340E+03  0.58636188020E+03  0.00000000000E+00 0. -1.
         -1    1    6    6    0  503 -0.39626136820E+02 -0.15418172495E+01 -0.12590491730E+02  0.41606831191E+02  0.00000000000E+00 0.  1.
<mgrwt>
<rscale>  0 0.16951062E+04</rscale>
<asrwt>0</asrwt>
<pdfrwt beam="1">  1        1 0.27732807E+00 0.16951062E+04</pdfrwt>
<pdfrwt beam="2">  1       -2 0.61307459E-01 0.16951062E+04</pdfrwt>
<totfact> 0.83895682E+00</totfact>
</mgrwt>
</event>
<event>
12    5  0.5197392E-008  0.1683351E+04  0.7818608E-02  0.8770917E-01
          1   -1    0    0  501    0  0.00000000000E+00  0.00000000000E+00  0.17354033205E+04  0.17354033205E+04  0.00000000000E+00 0. -1.
         -2   -1    0    0    0  501 -0.00000000000E+00 -0.00000000000E+00 -0.40821503219E+03  0.40821503219E+03  0.00000000000E+00 0.  1.
        -24    2    1    2    0    0 -0.50860852427E+03 -0.19809506799E+03  0.78333361633E+03  0.95814641978E+03  0.80676640589E+02 0.  0.
        254    2    1    2    0    0  0.50860852427E+03  0.19809506799E+03  0.54385467193E+03  0.11854719329E+04  0.90091148983E+03 0.  0.
         23    2    4    4    0    0  0.15257455626E+03 -0.13469114823E+02 -0.23688005558E+03  0.29705183514E+03  0.93097904159E+02 0.  0.
         23    2    4    4    0    0  0.35603396801E+03  0.21156418282E+03  0.78073472751E+03  0.88842009773E+03  0.90686082022E+02 0.  0.
          1    1    3    3  502    0 -0.15236745202E+02 -0.77323713227E+00  0.51754920209E+02  0.53956724009E+02  0.00000000000E+00 0. -1.
         -2    1    3    3    0  502 -0.49337177907E+03 -0.19732183086E+03  0.73157869612E+03  0.90418969577E+03  0.00000000000E+00 0.  1.
         13    1    5    5    0    0  0.14494627497E+02 -0.30440966646E+02 -0.19448703274E+02  0.38922984670E+02  0.00000000000E+00 0.  1.
        -13    1    5    5    0    0  0.13807992876E+03  0.16971851822E+02 -0.21743135230E+03  0.25812885047E+03  0.00000000000E+00 0. -1.
          4    1    6    6  503    0  0.15127613928E+03  0.94175966030E+02  0.43216007078E+03  0.46745685327E+03  0.00000000000E+00 0. -1.
         -4    1    6    6    0  503  0.20475782873E+03  0.11738821679E+03  0.34857465673E+03  0.42096324446E+03  0.00000000000E+00 0.  1.
<mgrwt>
<rscale>  0 0.16833511E+04</rscale>
<asrwt>0</asrwt>
<pdfrwt beam="1">  1        1 0.26698512E+00 0.16833511E+04</pdfrwt>
<pdfrwt beam="2">  1       -2 0.62802313E-01 0.16833511E+04</pdfrwt>
<totfact> 0.88630144E+00</totfact>
</mgrwt>
</event>
<event>
12    5  0.5197392E-008  0.2711642E+04  0.7818608E-02  0.8331238E-01
         -2   -1    0    0    0  501 -0.00000000000E+00  0.00000000000E+00  0.16310647868E+04  0.16310647868E+04  0.00000000000E+00 0.  1.
          1   -1    0    0  501    0  0.00000000000E+00 -0.00000000000E+00 -0.11270246265E+04  0.11270246265E+04  0.00000000000E+00 0. -1.
        -24    2    1    2    0    0  0.11501510828E+04 -0.19772729918E+01 -0.18639493405E+03  0.11680043034E+04  0.81483486321E+02 0.  0.
        254    2    1    2    0    0 -0.11501510828E+04  0.19772729918E+01  0.69043509436E+03  0.15900851098E+04  0.85370874071E+03 0.  0.
         23    2    4    4    0    0 -0.11386249973E+04 -0.22501256645E+03  0.45653209877E+03  0.12506084632E+04  0.92208629597E+02 0.  0.
         23    2    4    4    0    0 -0.11526085483E+02  0.22698983945E+03  0.23390299559E+03  0.33947664662E+03  0.94215414838E+02 0.  0.
          1    1    3    3  502    0  0.66842390144E+03 -0.15562436751E+02 -0.70235438891E+02  0.67228395662E+03  0.00000000000E+00 0. -1.
         -2    1    3    3    0  502  0.48172718135E+03  0.13585163759E+02 -0.11615949516E+03  0.49572034681E+03  0.00000000000E+00 0.  1.
         13    1    5    5    0    0 -0.11041431197E+04 -0.22255381084E+03  0.45824218606E+03  0.12159967634E+04  0.00000000000E+00 0. -1.
        -13    1    5    5    0    0 -0.34481877573E+02 -0.24587556108E+01 -0.17100872910E+01  0.34611699736E+02  0.00000000000E+00 0.  1.
          4    1    6    6  503    0  0.20733072984E+02  0.17013647567E+03  0.20710626611E+03  0.26882947408E+03  0.00000000000E+00 0. -1.
         -4    1    6    6    0  503 -0.32259158467E+02  0.56853363773E+02  0.26796729484E+02  0.70647172543E+02  0.00000000000E+00 0.  1.
<mgrwt>
<rscale>  0 0.27116417E+04</rscale>
<asrwt>0</asrwt>
<pdfrwt beam="1">  1        1 0.17338840E+00 0.27116417E+04</pdfrwt>
<pdfrwt beam="2">  1       -2 0.25093305E+00 0.27116417E+04</pdfrwt>
<totfact> 0.58731386E-01</totfact>
</mgrwt>
</event>
<event>
12    5  0.5197392E-008  0.2003704E+04  0.7818608E-02  0.8604891E-01
          1   -1    0    0  501    0  0.00000000000E+00  0.00000000000E+00  0.15814683800E+04  0.15814683800E+04  0.00000000000E+00 0. -1.
         -2   -1    0    0    0  501 -0.00000000000E+00 -0.00000000000E+00 -0.63466779942E+03  0.63466779942E+03  0.00000000000E+00 0.  1.
        -24    2    1    2    0    0  0.24226413984E+03 -0.72035299273E+03  0.51735935316E+03  0.92278062864E+03  0.79139375191E+02 0.  0.
        254    2    1    2    0    0 -0.24226413984E+03  0.72035299273E+03  0.42944122742E+03  0.12933555508E+04  0.95433142321E+03 0.  0.
         23    2    4    4    0    0  0.72694037861E+02  0.84195563193E+03  0.40775408416E+03  0.94288615124E+03  0.92721042734E+02 0.  0.
         23    2    4    4    0    0 -0.31495817770E+03 -0.12160263920E+03  0.21687143255E+02  0.35046939954E+03  0.91501979592E+02 0.  0.
          3    1    3    3  502    0  0.63836249719E+02 -0.19079687214E+03  0.96036393069E+02  0.22293833674E+03  0.00000000000E+00 0. -1.
         -4    1    3    3    0  502  0.17842789012E+03 -0.52955612059E+03  0.42132296009E+03  0.69984229190E+03  0.00000000000E+00 0.  1.
         13    1    5    5    0    0  0.82992235345E+02  0.73897215383E+03  0.38306722491E+03  0.83648553727E+03  0.00000000000E+00 0.  1.
        -13    1    5    5    0    0 -0.10298197484E+02  0.10298347810E+03  0.24686859259E+02  0.10640061397E+03  0.00000000000E+00 0. -1.
          4    1    6    6  503    0 -0.19788547822E+03 -0.12171054987E+03  0.22381147264E+02  0.23339459333E+03  0.00000000000E+00 0. -1.
         -4    1    6    6    0  503 -0.11707269948E+03  0.10791067190E+00 -0.69400400995E+00  0.11707480621E+03  0.00000000000E+00 0.  1.
<mgrwt>
<rscale>  0 0.20037036E+04</rscale>
<asrwt>0</asrwt>
<pdfrwt beam="1">  1        1 0.24330283E+00 0.20037036E+04</pdfrwt>
<pdfrwt beam="2">  1       -2 0.97641200E-01 0.20037036E+04</pdfrwt>
<totfact> 0.40880461E+00</totfact>
</mgrwt>
</event>
<event>
12    5  0.5197392E-008  0.1413648E+04  0.7818608E-02  0.8943998E-01
         -2   -1    0    0    0  501 -0.00000000000E+00  0.00000000000E+00  0.15780216310E+03  0.15780216310E+03  0.00000000000E+00 0.  1.
          1   -1    0    0  501    0  0.00000000000E+00 -0.00000000000E+00 -0.31659898803E+04  0.31659898803E+04  0.00000000000E+00 0. -1.
        -24    2    1    2    0    0 -0.21204042367E+02 -0.38039466679E+03 -0.41827133567E+03  0.57122524431E+03  0.78725190106E+02 0.  0.
        254    2    1    2    0    0  0.21204042367E+02  0.38039466679E+03 -0.25899163815E+04  0.27525667991E+04  0.85076871488E+03 0.  0.
         23    2    4    4    0    0 -0.40015246523E+03  0.25414555961E+03 -0.13712242572E+04  0.14537106695E+04  0.91141572439E+02 0.  0.
         23    2    4    4    0    0  0.42135650760E+03  0.12624910718E+03 -0.12186921243E+04  0.12988561296E+04  0.91305026571E+02 0.  0.
          1    1    3    3  502    0  0.23925911304E+02 -0.49011916789E+02 -0.61935219091E+02  0.82526290253E+02  0.00000000000E+00 0. -1.
         -2    1    3    3    0  502 -0.45129953671E+02 -0.33138275000E+03 -0.35633611658E+03  0.48869895405E+03  0.00000000000E+00 0.  1.
         13    1    5    5    0    0 -0.34314150116E+03  0.23234555663E+03 -0.12656067393E+04  0.13317248087E+04  0.00000000000E+00 0. -1.
        -13    1    5    5    0    0 -0.57010964073E+02  0.21800002975E+02 -0.10561751786E+03  0.12198586079E+03  0.00000000000E+00 0.  1.
          3    1    6    6  503    0  0.38312146267E+03  0.10675811355E+03 -0.11589756164E+04  0.12253178483E+04  0.00000000000E+00 0. -1.
         -3    1    6    6    0  503  0.38235044931E+02  0.19490993631E+02 -0.59716507956E+02  0.73538281297E+02  0.00000000000E+00 0.  1.
<mgrwt>
<rscale>  0 0.14136478E+04</rscale>
<asrwt>0</asrwt>
<pdfrwt beam="1">  1        1 0.48707539E+00 0.14136478E+04</pdfrwt>
<pdfrwt beam="2">  1       -2 0.24277255E-01 0.14136478E+04</pdfrwt>
<totfact> 0.58886779E+00</totfact>
</mgrwt>
</event>
<event>
12    5  0.5197392E-008  0.2040801E+04  0.7818608E-02  0.8587779E-01
          1   -1    0    0  501    0  0.00000000000E+00  0.00000000000E+00  0.73356221772E+03  0.73356221772E+03  0.00000000000E+00 0. -1.
         -2   -1    0    0    0  501 -0.00000000000E+00 -0.00000000000E+00 -0.14193982563E+04  0.14193982563E+04  0.00000000000E+00 0.  1.
        -24    2    1    2    0    0  0.12565486326E+03  0.61615379277E+03 -0.84586463574E+03  0.10573506236E+04  0.84075670011E+02 0.  0.
        254    2    1    2    0    0 -0.12565486326E+03 -0.61615379277E+03  0.16002859720E+03  0.10956098504E+04  0.88278941504E+03 0.  0.
         23    2    4    4    0    0 -0.19706940198E+03  0.10201913827E+03  0.26874302962E+03  0.36007504345E+03  0.90481861025E+02 0.  0.
         23    2    4    4    0    0  0.71414538723E+02 -0.71817293104E+03 -0.10871443242E+03  0.73553480692E+03  0.91215290122E+02 0.  0.
          1    1    3    3  502    0  0.51858178125E+02  0.22524298210E+03 -0.37968098527E+03  0.44450120607E+03  0.00000000000E+00 0. -1.
         -2    1    3    3    0  502  0.73796685134E+02  0.39091081066E+03 -0.46618365047E+03  0.61284941755E+03  0.00000000000E+00 0.  1.
         13    1    5    5    0    0 -0.11608560823E+03  0.71373128414E+02  0.95517473907E+02  0.16641388079E+03  0.00000000000E+00 0.  1.
        -13    1    5    5    0    0 -0.80983793751E+02  0.30646009859E+02  0.17322555571E+03  0.19366116266E+03  0.00000000000E+00 0. -1.
          1    1    6    6  503    0 -0.16807309311E+02 -0.71581838793E+02 -0.24703819650E+02  0.77567544737E+02  0.00000000000E+00 0. -1.
         -1    1    6    6    0  503  0.88221848034E+02 -0.64659109225E+03 -0.84010612775E+02  0.65796726218E+03  0.00000000000E+00 0.  1.
<mgrwt>
<rscale>  0 0.20408008E+04</rscale>
<asrwt>0</asrwt>
<pdfrwt beam="1">  1        1 0.11285573E+00 0.20408008E+04</pdfrwt>
<pdfrwt beam="2">  1       -2 0.21836896E+00 0.20408008E+04</pdfrwt>
<totfact> 0.20771992E+00</totfact>
</mgrwt>
</event>
<event>
12    5  0.5197392E-008  0.2464592E+04  0.7818608E-02  0.8415710E-01
          1   -1    0    0  501    0  0.00000000000E+00  0.00000000000E+00  0.15803387259E+04  0.15803387259E+04  0.00000000000E+00 0. -1.
         -2   -1    0    0    0  501 -0.00000000000E+00 -0.00000000000E+00 -0.96090350628E+03  0.96090350628E+03  0.00000000000E+00 0.  1.
        -24    2    1    2    0    0 -0.86462593164E+03  0.55186909151E+03  0.54938462095E+03  0.11662829710E+04  0.79088626712E+02 0.  0.
        254    2    1    2    0    0  0.86462593164E+03 -0.55186909151E+03  0.70050598676E+02  0.13749592612E+04  0.91294489851E+03 0.  0.
         23    2    4    4    0    0 -0.11059291723E+03 -0.34168529340E+03 -0.45809853164E+01  0.37036840798E+03  0.90399884612E+02 0.  0.
         23    2    4    4    0    0  0.97521884887E+03 -0.21018379812E+03  0.74631583993E+02  0.10045908532E+04  0.91672661305E+02 0.  0.
          3    1    3    3  502    0 -0.25443770873E+03  0.13733967438E+03  0.12270370777E+03  0.31409701317E+03  0.00000000000E+00 0. -1.
         -4    1    3    3    0  502 -0.61018822291E+03  0.41452941713E+03  0.42668091319E+03  0.85218595783E+03  0.00000000000E+00 0.  1.
         13    1    5    5    0    0 -0.33974197972E+02 -0.23924236374E+03  0.83795102538E+01  0.24178786348E+03  0.00000000000E+00 0.  1.
        -13    1    5    5    0    0 -0.76618719261E+02 -0.10244292966E+03 -0.12960495570E+02  0.12858054450E+03  0.00000000000E+00 0. -1.
          3    1    6    6  503    0  0.81203187836E+03 -0.13929160819E+03  0.60534639178E+02  0.82611280472E+03  0.00000000000E+00 0. -1.
         -3    1    6    6    0  503  0.16318697051E+03 -0.70892189930E+02  0.14096944814E+02  0.17847804849E+03  0.00000000000E+00 0.  1.
<mgrwt>
<rscale>  0 0.24645917E+04</rscale>
<asrwt>0</asrwt>
<pdfrwt beam="1">  1        1 0.24312903E+00 0.24645917E+04</pdfrwt>
<pdfrwt beam="2">  1       -2 0.14783131E+00 0.24645917E+04</pdfrwt>
<totfact> 0.14029262E+00</totfact>
</mgrwt>
</event>
<event>
12    5  0.5197392E-008  0.1685222E+04  0.7818608E-02  0.8769838E-01
          1   -1    0    0  501    0  0.00000000000E+00  0.00000000000E+00  0.30816271155E+04  0.30816271155E+04  0.00000000000E+00 0. -1.
         -2   -1    0    0    0  501 -0.00000000000E+00 -0.00000000000E+00 -0.23039552684E+03  0.23039552684E+03  0.00000000000E+00 0.  1.
        -24    2    1    2    0    0 -0.44288019715E+03  0.15638717415E+03  0.29342602972E+03  0.55942821313E+03  0.79128209004E+02 0.  0.
        254    2    1    2    0    0  0.44288019715E+03 -0.15638717415E+03  0.25578055589E+04  0.27525944292E+04  0.90211251910E+03 0.  0.
         23    2    4    4    0    0  0.10276751392E+03 -0.48547230214E+03  0.16391409146E+04  0.17150802284E+04  0.92047454602E+02 0.  0.
         23    2    4    4    0    0  0.34011268323E+03  0.32908512799E+03  0.91866464428E+03  0.10375142008E+04  0.92289378308E+02 0.  0.
          3    1    3    3  502    0 -0.65479900049E+02  0.35714353919E+02  0.17549829298E+02  0.76623292116E+02  0.00000000000E+00 0. -1.
         -4    1    3    3    0  502 -0.37740029710E+03  0.12067282023E+03  0.27587620042E+03  0.48280492101E+03  0.00000000000E+00 0.  1.
         13    1    5    5    0    0  0.28713216000E+02 -0.33419495432E+03  0.11369282333E+04  0.11853761107E+04  0.00000000000E+00 0.  1.
        -13    1    5    5    0    0  0.74054297924E+02 -0.15127734781E+03  0.50221268134E+03  0.52970411769E+03  0.00000000000E+00 0. -1.
          3    1    6    6  503    0  0.18160952694E+03  0.23311589759E+03  0.60210569863E+03  0.67071328770E+03  0.00000000000E+00 0. -1.
         -3    1    6    6    0  503  0.15850315629E+03  0.95969230402E+02  0.31655894565E+03  0.36680091305E+03  0.00000000000E+00 0.  1.
<mgrwt>
<rscale>  0 0.16852218E+04</rscale>
<asrwt>0</asrwt>
<pdfrwt beam="1">  1        1 0.47409645E+00 0.16852218E+04</pdfrwt>
<pdfrwt beam="2">  1       -2 0.35445468E-01 0.16852218E+04</pdfrwt>
<totfact> 0.32733279E+00</totfact>
</mgrwt>
</event>
<event>
12    5  0.5197392E-008  0.1348046E+04  0.7818608E-02  0.8992308E-01
         -2   -1    0    0    0  501 -0.00000000000E+00  0.00000000000E+00  0.38592061116E+03  0.38592061116E+03  0.00000000000E+00 0.  1.
          1   -1    0    0  501    0  0.00000000000E+00 -0.00000000000E+00 -0.11772039577E+04  0.11772039577E+04  0.00000000000E+00 0. -1.
        -24    2    1    2    0    0  0.18636548685E+03  0.13463653864E+03  0.10690942946E+03  0.26407365968E+03  0.73798234425E+02 0.  0.
        254    2    1    2    0    0 -0.18636548685E+03 -0.13463653864E+03 -0.89819277602E+03  0.12990509092E+04  0.90990324188E+03 0.  0.
         23    2    4    4    0    0 -0.20151093378E+03 -0.50657196587E+03 -0.48277169242E+03  0.73387286636E+03  0.90989361650E+02 0.  0.
         23    2    4    4    0    0  0.15145446927E+02  0.37193542723E+03 -0.41542108360E+03  0.56517804285E+03  0.91028549506E+02 0.  0.
          3    1    3    3  502    0  0.20226568612E+02  0.51697778603E+02  0.29832573471E+02  0.63021875807E+02  0.00000000000E+00 0. -1.
         -4    1    3    3    0  502  0.16613891824E+03  0.82938760032E+02  0.77076855993E+02  0.20105178388E+03  0.00000000000E+00 0.  1.
         13    1    5    5    0    0 -0.40393667870E+02 -0.12574732555E+03 -0.69467341975E+02  0.14923052599E+03  0.00000000000E+00 0.  1.
        -13    1    5    5    0    0 -0.16111726591E+03 -0.38082464032E+03 -0.41330435045E+03  0.58464234036E+03  0.00000000000E+00 0. -1.
          4    1    6    6  503    0 -0.23615299204E+01  0.28297698533E+03 -0.25509641308E+03  0.38099308526E+03  0.00000000000E+00 0. -1.
         -4    1    6    6    0  503  0.17506976847E+02  0.88958441902E+02 -0.16032467052E+03  0.18418495759E+03  0.00000000000E+00 0.  1.
<mgrwt>
<rscale>  0 0.13480464E+04</rscale>
<asrwt>0</asrwt>
<pdfrwt beam="1">  1        1 0.18110830E+00 0.13480464E+04</pdfrwt>
<pdfrwt beam="2">  1       -2 0.59372403E-01 0.13480464E+04</pdfrwt>
<totfact> 0.25249949E+01</totfact>
</mgrwt>
</event>
<event>
12    5  0.5197392E-008  0.2865381E+04  0.7818608E-02  0.8283253E-01
         -2   -1    0    0    0  501 -0.00000000000E+00  0.00000000000E+00  0.10954079873E+04  0.10954079873E+04  0.00000000000E+00 0.  1.
          1   -1    0    0  501    0  0.00000000000E+00 -0.00000000000E+00 -0.18738237482E+04  0.18738237482E+04  0.00000000000E+00 0. -1.
        -24    2    1    2    0    0  0.10684094164E+04 -0.57143863867E+03 -0.81564309267E+03  0.14627898917E+04  0.80248450705E+02 0.  0.
        254    2    1    2    0    0 -0.10684094164E+04  0.57143863867E+03  0.37227331774E+02  0.15064418438E+04  0.89439384827E+03 0.  0.
         23    2    4    4    0    0 -0.93557384867E+01 -0.13212837950E+03  0.15773786504E+03  0.22607570657E+03  0.93185581079E+02 0.  0.
         23    2    4    4    0    0 -0.10590536779E+04  0.70356701817E+03 -0.12051053326E+03  0.12803661373E+04  0.90627893498E+02 0.  0.
          3    1    3    3  502    0  0.37433772558E+03 -0.23463985686E+03 -0.32593839419E+03  0.54901769738E+03  0.00000000000E+00 0. -1.
         -4    1    3    3    0  502  0.69407169081E+03 -0.33679878180E+03 -0.48970469848E+03  0.91377219433E+03  0.00000000000E+00 0.  1.
         13    1    5    5    0    0  0.50558012124E+01 -0.11852889187E+03  0.73547051611E+02  0.13958448386E+03  0.00000000000E+00 0. -1.
        -13    1    5    5    0    0 -0.14411539699E+02 -0.13599487635E+02  0.84190813427E+02  0.86491222710E+02  0.00000000000E+00 0.  1.
          3    1    6    6  503    0 -0.10090153643E+04  0.68975436396E+03 -0.12287920968E+03  0.12284023722E+04  0.00000000000E+00 0. -1.
         -3    1    6    6    0  503 -0.50038313656E+02  0.13812654206E+02  0.23686764107E+01  0.51963765045E+02  0.00000000000E+00 0.  1.
<mgrwt>
<rscale>  0 0.28653806E+04</rscale>
<asrwt>0</asrwt>
<pdfrwt beam="1">  1        1 0.28828058E+00 0.28653806E+04</pdfrwt>
<pdfrwt beam="2">  1       -2 0.16852431E+00 0.28653806E+04</pdfrwt>
<totfact> 0.59972263E-01</totfact>
</mgrwt>
</event>
<event>
12    5  0.5197392E-008  0.1299343E+04  0.7818608E-02  0.9030086E-01
          1   -1    0    0  501    0  0.00000000000E+00  0.00000000000E+00  0.14678186183E+04  0.14678186183E+04  0.00000000000E+00 0. -1.
         -2   -1    0    0    0  501 -0.00000000000E+00 -0.00000000000E+00 -0.28755116914E+03  0.28755116914E+03  0.00000000000E+00 0.  1.
        -24    2    1    2    0    0 -0.10811835667E+03  0.22769481293E+03  0.39293904407E+02  0.26649830777E+03  0.77089754415E+02 0.  0.
        254    2    1    2    0    0  0.10811835667E+03 -0.22769481293E+03  0.11409735448E+04  0.14888714797E+04  0.92270425722E+03 0.  0.
         23    2    4    4    0    0 -0.36373992758E+03 -0.27188690595E+03  0.66250256932E+03  0.80856202105E+03  0.92917506416E+02 0.  0.
         23    2    4    4    0    0  0.47185828425E+03  0.44192093016E+02  0.47847097545E+03  0.68030945864E+03  0.96349902220E+02 0.  0.
          3    1    3    3  502    0  0.61958723317E+01  0.13974089846E+02  0.17367342107E+02  0.23136304650E+02  0.00000000000E+00 0. -1.
         -4    1    3    3    0  502 -0.11431422900E+03  0.21372072308E+03  0.21926562300E+02  0.24336200312E+03  0.00000000000E+00 0.  1.
         13    1    5    5    0    0  0.42756249285E+01 -0.69269571047E+01  0.24516133838E+02  0.25832238029E+02  0.00000000000E+00 0. -1.
        -13    1    5    5    0    0 -0.36801555251E+03 -0.26495994884E+03  0.63798643548E+03  0.78272978303E+03  0.00000000000E+00 0.  1.
          2    1    6    6  503    0  0.74157066759E+02  0.40987038046E+02  0.66728855657E+02  0.10785150910E+03  0.00000000000E+00 0. -1.
         -2    1    6    6    0  503  0.39770121749E+03  0.32050549693E+01  0.41174211980E+03  0.57245794954E+03  0.00000000000E+00 0.  1.
<mgrwt>
<rscale>  0 0.12993428E+04</rscale>
<asrwt>0</asrwt>
<pdfrwt beam="1">  1        1 0.22581824E+00 0.12993428E+04</pdfrwt>
<pdfrwt beam="2">  1       -2 0.44238642E-01 0.12993428E+04</pdfrwt>
<totfact> 0.28771153E+01</totfact>
</mgrwt>
</event>
<event>
12    5  0.5197392E-008  0.1417182E+04  0.7818608E-02  0.8941474E-01
          1   -1    0    0  501    0  0.00000000000E+00  0.00000000000E+00  0.15550401570E+04  0.15550401570E+04  0.00000000000E+00 0. -1.
         -2   -1    0    0    0  501 -0.00000000000E+00 -0.00000000000E+00 -0.32288626978E+03  0.32288626978E+03  0.00000000000E+00 0.  1.
        -24    2    1    2    0    0  0.25953387146E+03 -0.24898740330E+03  0.66233293518E+03  0.75790489075E+03  0.79889604816E+02 0.  0.
        254    2    1    2    0    0 -0.25953387146E+03  0.24898740330E+03  0.56982095205E+03  0.11200215360E+04  0.89465063928E+03 0.  0.
         23    2    4    4    0    0  0.19138816819E+03 -0.10353912935E+03  0.47841158066E+03  0.53340795000E+03  0.91085774872E+02 0.  0.
         23    2    4    4    0    0 -0.45092203965E+03  0.35252653265E+03  0.91409371390E+02  0.58661358604E+03  0.90300520978E+02 0.  0.
          1    1    3    3  502    0  0.21183549759E+03 -0.16939774900E+03  0.43859265894E+03  0.51568730436E+03  0.00000000000E+00 0. -1.
         -2    1    3    3    0  502  0.47698373867E+02 -0.79589654303E+02  0.22374027624E+03  0.24221758639E+03  0.00000000000E+00 0.  1.
         13    1    5    5    0    0  0.59742954656E+02 -0.59411242805E+02  0.27114619347E+03  0.28393515921E+03  0.00000000000E+00 0. -1.
        -13    1    5    5    0    0  0.13164521353E+03 -0.44127886540E+02  0.20726538719E+03  0.24947279079E+03  0.00000000000E+00 0.  1.
          1    1    6    6  503    0 -0.33881600070E+02  0.60247957378E+02 -0.49676051476E+00  0.69123266434E+02  0.00000000000E+00 0. -1.
         -1    1    6    6    0  503 -0.41704043958E+03  0.29227857527E+03  0.91906131905E+02  0.51749031961E+03  0.00000000000E+00 0.  1.
<mgrwt>
<rscale>  0 0.14171819E+04</rscale>
<asrwt>0</asrwt>
<pdfrwt beam="1">  1        1 0.23923694E+00 0.14171819E+04</pdfrwt>
<pdfrwt beam="2">  1       -2 0.49674812E-01 0.14171819E+04</pdfrwt>
<totfact> 0.19637121E+01</totfact>
</mgrwt>
</event>
<event>
12    5  0.5197392E-008  0.1597105E+04  0.7818608E-02  0.8822329E-01
          1   -1    0    0  501    0  0.00000000000E+00  0.00000000000E+00  0.19047148376E+04  0.19047148376E+04  0.00000000000E+00 0. -1.
         -2   -1    0    0    0  501 -0.00000000000E+00 -0.00000000000E+00 -0.33479326680E+03  0.33479326680E+03  0.00000000000E+00 0.  1.
        -24    2    1    2    0    0 -0.43483831683E+03  0.24528299342E+03  0.85245173371E+03  0.99113144593E+03  0.80121633497E+02 0.  0.
        254    2    1    2    0    0  0.43483831683E+03 -0.24528299342E+03  0.71746983713E+03  0.12483766585E+04  0.89130982587E+03 0.  0.
         23    2    4    4    0    0  0.21028013163E+02  0.22678681765E+02 -0.18905022951E+03  0.21237682492E+03  0.91692020061E+02 0.  0.
         23    2    4    4    0    0  0.41381030367E+03 -0.26796167519E+03  0.90652006664E+03  0.10359998336E+04  0.92057575495E+02 0.  0.
          1    1    3    3  502    0 -0.25587690389E+03  0.16739575241E+03  0.58430552216E+03  0.65947499657E+03  0.00000000000E+00 0. -1.
         -2    1    3    3    0  502 -0.17896141294E+03  0.77887241013E+02  0.26814621155E+03  0.33165644936E+03  0.00000000000E+00 0.  1.
         13    1    5    5    0    0  0.35951441522E+02  0.48604577131E+02 -0.15841478416E+03  0.16955870638E+03  0.00000000000E+00 0. -1.
        -13    1    5    5    0    0 -0.14923428359E+02 -0.25925895366E+02 -0.30635445342E+02  0.42818118546E+02  0.00000000000E+00 0.  1.
          4    1    6    6  503    0  0.37996515180E+03 -0.24929035750E+03  0.76989447380E+03  0.89401157694E+03  0.00000000000E+00 0. -1.
         -4    1    6    6    0  503  0.33845151873E+02 -0.18671317691E+02  0.13662559284E+03  0.14198825666E+03  0.00000000000E+00 0.  1.
<mgrwt>
<rscale>  0 0.15971045E+04</rscale>
<asrwt>0</asrwt>
<pdfrwt beam="1">  1        1 0.29303305E+00 0.15971045E+04</pdfrwt>
<pdfrwt beam="2">  1       -2 0.51506658E-01 0.15971045E+04</pdfrwt>
<totfact> 0.10379153E+01</totfact>
</mgrwt>
</event>
<event>
12    5  0.5197392E-008  0.1896124E+04  0.7818608E-02  0.8656788E-01
         -2   -1    0    0    0  501 -0.00000000000E+00  0.00000000000E+00  0.73448078234E+03  0.73448078234E+03  0.00000000000E+00 0.  1.
          1   -1    0    0  501    0  0.00000000000E+00 -0.00000000000E+00 -0.12237503569E+04  0.12237503569E+04  0.00000000000E+00 0. -1.
        -24    2    1    2    0    0  0.51135030967E+02  0.69857360552E+03 -0.40911875101E+03  0.81495366709E+03  0.78431201345E+02 0.  0.
        254    2    1    2    0    0 -0.51135030967E+02 -0.69857360552E+03 -0.80150823499E+02  0.11432774721E+04  0.90002186084E+03 0.  0.
         23    2    4    4    0    0  0.37599305898E+03 -0.28669356176E+03 -0.21605136923E+03  0.52783527511E+03  0.91476252393E+02 0.  0.
         23    2    4    4    0    0 -0.42712808994E+03 -0.41188004376E+03  0.13590054573E+03  0.61544219700E+03  0.90645263792E+02 0.  0.
          3    1    3    3  502    0  0.48137837745E+02  0.51867158960E+03 -0.26505519087E+03  0.58445848739E+03  0.00000000000E+00 0. -1.
         -4    1    3    3    0  502  0.29971932216E+01  0.17990201592E+03 -0.14406356015E+03  0.23049517970E+03  0.00000000000E+00 0.  1.
         13    1    5    5    0    0  0.28848061188E+03 -0.24760432577E+03 -0.13873756429E+03  0.40469380686E+03  0.00000000000E+00 0.  1.
        -13    1    5    5    0    0  0.87512447100E+02 -0.39089235988E+02 -0.77313804938E+02  0.12314146824E+03  0.00000000000E+00 0. -1.
          3    1    6    6  503    0 -0.44315523438E+02 -0.16469715523E+02 -0.44013195558E+01  0.47481457021E+02  0.00000000000E+00 0. -1.
         -3    1    6    6    0  503 -0.38281256651E+03 -0.39541032824E+03  0.14030186528E+03  0.56796073998E+03  0.00000000000E+00 0.  1.
<mgrwt>
<rscale>  0 0.18961235E+04</rscale>
<asrwt>0</asrwt>
<pdfrwt beam="1">  1        1 0.18826929E+00 0.18961235E+04</pdfrwt>
<pdfrwt beam="2">  1       -2 0.11299704E+00 0.18961235E+04</pdfrwt>
<totfact> 0.51883240E+00</totfact>
</mgrwt>
</event>
<event>
12    5  0.5197392E-008  0.1997333E+04  0.7818608E-02  0.8607869E-01
         -4   -1    0    0    0  501 -0.00000000000E+00  0.00000000000E+00  0.43975466259E+03  0.43975466259E+03  0.00000000000E+00 0.  1.
          1   -1    0    0  501    0  0.00000000000E+00 -0.00000000000E+00 -0.22679339503E+04  0.22679339503E+04  0.00000000000E+00 0. -1.
        -24    2    1    2    0    0  0.21589907115E+03 -0.14234757922E+03 -0.17344336114E+04  0.17559622024E+04  0.90928882204E+02 0.  0.
        254    2    1    2    0    0 -0.21589907115E+03  0.14234757922E+03 -0.93745676334E+02  0.95172641053E+03  0.91110903103E+03 0.  0.
         23    2    4    4    0    0 -0.94231799499E+02  0.10055032092E+03 -0.49388174972E+03  0.52181060834E+03  0.96835578159E+02 0.  0.
         23    2    4    4    0    0 -0.12166727165E+03  0.41797258305E+02  0.40013607339E+03  0.42991580218E+03  0.90381325219E+02 0.  0.
          1    1    3    3  502    0  0.18484433688E+03 -0.15051028390E+03 -0.16050316810E+04  0.16226359639E+04  0.00000000000E+00 0. -1.
         -2    1    3    3    0  502  0.31054734271E+02  0.81627046830E+01 -0.12940193038E+03  0.13332623843E+03  0.00000000000E+00 0.  1.
         13    1    5    5    0    0 -0.49986017441E+02  0.10869542701E+03 -0.40330874023E+03  0.42067949527E+03  0.00000000000E+00 0.  1.
        -13    1    5    5    0    0 -0.44245782058E+02 -0.81451060972E+01 -0.90573009492E+02  0.10113111307E+03  0.00000000000E+00 0. -1.
          3    1    6    6  503    0  0.31563803698E+01  0.31066076702E+02  0.64547416492E+02  0.71703785357E+02  0.00000000000E+00 0. -1.
         -3    1    6    6    0  503 -0.12482365202E+03  0.10731181603E+02  0.33558865690E+03  0.35821201683E+03  0.00000000000E+00 0.  1.
<mgrwt>
<rscale>  0 0.19973328E+04</rscale>
<asrwt>0</asrwt>
<pdfrwt beam="1">  1        1 0.34891291E+00 0.19973328E+04</pdfrwt>
<pdfrwt beam="2">  1       -4 0.67654564E-01 0.19973328E+04</pdfrwt>
<totfact> 0.18123732E+00</totfact>
</mgrwt>
</event>
<event>
12    5  0.5197392E-008  0.1426421E+04  0.7818608E-02  0.8934913E-01
          1   -1    0    0  501    0  0.00000000000E+00  0.00000000000E+00  0.30178390778E+04  0.30178390778E+04  0.00000000000E+00 0. -1.
         -2   -1    0    0    0  501 -0.00000000000E+00 -0.00000000000E+00 -0.16855411987E+03  0.16855411987E+03  0.00000000000E+00 0.  1.
        -24    2    1    2    0    0  0.42506911647E+03  0.11253958967E+03  0.10933334659E+04  0.11811622818E+04  0.80108397250E+02 0.  0.
        254    2    1    2    0    0 -0.42506911647E+03 -0.11253958967E+03  0.17559514920E+04  0.20052309158E+04  0.86269141094E+03 0.  0.
         23    2    4    4    0    0 -0.47116446626E+03 -0.19057417903E+03  0.17909841070E+04  0.18642383208E+04  0.97190396928E+02 0.  0.
         23    2    4    4    0    0  0.46095349791E+02  0.78034589360E+02 -0.35032614984E+02  0.14099259504E+03  0.10216383574E+03 0.  0.
          1    1    3    3  502    0  0.19822284736E+03  0.24762292439E+02  0.57195609068E+03  0.60583763337E+03  0.00000000000E+00 0. -1.
         -2    1    3    3    0  502  0.22684626910E+03  0.87777297232E+02  0.52137737521E+03  0.57532464844E+03  0.00000000000E+00 0.  1.
         13    1    5    5    0    0 -0.41935277716E+03 -0.19366821657E+03  0.16673655354E+04  0.17301652980E+04  0.00000000000E+00 0. -1.
        -13    1    5    5    0    0 -0.51811689096E+02  0.30940375367E+01  0.12361857160E+03  0.13407302279E+03  0.00000000000E+00 0.  1.
          2    1    6    6  503    0  0.27631136871E+02  0.97222700745E+02 -0.54930825493E+01  0.10122206884E+03  0.00000000000E+00 0. -1.
         -2    1    6    6    0  503  0.18464212920E+02 -0.19188111385E+02 -0.29539532435E+02  0.39770526194E+02  0.00000000000E+00 0.  1.
<mgrwt>
<rscale>  0 0.14264210E+04</rscale>
<asrwt>0</asrwt>
<pdfrwt beam="1">  1        1 0.46428289E+00 0.14264210E+04</pdfrwt>
<pdfrwt beam="2">  1       -2 0.25931405E-01 0.14264210E+04</pdfrwt>
<totfact> 0.67030939E+00</totfact>
</mgrwt>
</event>
<event>
12    5  0.5197392E-008  0.1459699E+04  0.7818608E-02  0.8911704E-01
         -2   -1    0    0    0  501 -0.00000000000E+00  0.00000000000E+00  0.57297421740E+03  0.57297421740E+03  0.00000000000E+00 0.  1.
          1   -1    0    0  501    0  0.00000000000E+00 -0.00000000000E+00 -0.92967548353E+03  0.92967548353E+03  0.00000000000E+00 0. -1.
        -24    2    1    2    0    0 -0.18016780559E+03 -0.33915806219E+03  0.12485922478E+03  0.41124748932E+03  0.77756299700E+02 0.  0.
        254    2    1    2    0    0  0.18016780559E+03  0.33915806219E+03 -0.48156049091E+03  0.10914022116E+04  0.90098260348E+03 0.  0.
         23    2    4    4    0    0  0.51943685386E+03  0.33888199062E+03 -0.28476100280E+03  0.68867257710E+03  0.92333314747E+02 0.  0.
         23    2    4    4    0    0 -0.33926904827E+03  0.27607156966E+00 -0.19679948811E+03  0.40272963451E+03  0.91419673272E+02 0.  0.
          1    1    3    3  502    0 -0.26346453581E+00 -0.47810861413E+02  0.34167270283E+01  0.47933515479E+02  0.00000000000E+00 0. -1.
         -2    1    3    3    0  502 -0.17990434105E+03 -0.29134720078E+03  0.12144249775E+03  0.36331397385E+03  0.00000000000E+00 0.  1.
         13    1    5    5    0    0  0.12814600424E+03  0.44954738797E+02 -0.40502426684E+02  0.14171370262E+03  0.00000000000E+00 0.  1.
        -13    1    5    5    0    0  0.39129084962E+03  0.29392725183E+03 -0.24425857612E+03  0.54695887448E+03  0.00000000000E+00 0. -1.
          2    1    6    6  503    0 -0.33658253061E+03 -0.95310268755E+01 -0.20052033880E+03  0.39190183294E+03  0.00000000000E+00 0. -1.
         -2    1    6    6    0  503 -0.26865176615E+01  0.98070984452E+01  0.37208506913E+01  0.10827801574E+02  0.00000000000E+00 0.  1.
<mgrwt>
<rscale>  0 0.14596987E+04</rscale>
<asrwt>0</asrwt>
<pdfrwt beam="1">  1        1 0.14302700E+00 0.14596987E+04</pdfrwt>
<pdfrwt beam="2">  1       -2 0.88149880E-01 0.14596987E+04</pdfrwt>
<totfact> 0.16230821E+01</totfact>
</mgrwt>
</event>
<event>
12    5  0.5197392E-008  0.2095681E+04  0.7818608E-02  0.8563148E-01
         -2   -1    0    0    0  501 -0.00000000000E+00  0.00000000000E+00  0.36898854502E+03  0.36898854502E+03  0.00000000000E+00 0.  1.
          1   -1    0    0  501    0  0.00000000000E+00 -0.00000000000E+00 -0.29756201595E+04  0.29756201595E+04  0.00000000000E+00 0. -1.
        -24    2    1    2    0    0 -0.52362813555E+03 -0.45800030432E+03 -0.18449916968E+04  0.19734356518E+04  0.80642466686E+02 0.  0.
        254    2    1    2    0    0  0.52362813555E+03  0.45800030432E+03 -0.76163991766E+03  0.13711730527E+04  0.90336563649E+03 0.  0.
         23    2    4    4    0    0 -0.74799468628E+02  0.24273485280E+03 -0.67000009799E+03  0.72227934349E+03  0.90951357639E+02 0.  0.
         23    2    4    4    0    0  0.59842760418E+03  0.21526545152E+03 -0.91639819667E+02  0.64889370921E+03  0.90611131988E+02 0.  0.
          3    1    3    3  502    0 -0.29394828644E+03 -0.28790045705E+03 -0.11779723268E+04  0.12477624257E+04  0.00000000000E+00 0. -1.
         -4    1    3    3    0  502 -0.22967984911E+03 -0.17009984726E+03 -0.66701937000E+03  0.72567322610E+03  0.00000000000E+00 0.  1.
         13    1    5    5    0    0 -0.58277507452E+02  0.68331925090E+02 -0.29520433906E+03  0.30856299464E+03  0.00000000000E+00 0.  1.
        -13    1    5    5    0    0 -0.16521961177E+02  0.17440292771E+03 -0.37479575893E+03  0.41371634885E+03  0.00000000000E+00 0. -1.
          2    1    6    6  503    0  0.12247208211E+03  0.92565653605E+01 -0.31466962264E+02  0.12678826685E+03  0.00000000000E+00 0. -1.
         -2    1    6    6    0  503  0.47595552208E+03  0.20600888616E+03 -0.60172857403E+02  0.52210544236E+03  0.00000000000E+00 0.  1.
<mgrwt>
<rscale>  0 0.20956810E+04</rscale>
<asrwt>0</asrwt>
<pdfrwt beam="1">  1        1 0.45778772E+00 0.20956810E+04</pdfrwt>
<pdfrwt beam="2">  1       -2 0.56767468E-01 0.20956810E+04</pdfrwt>
<totfact> 0.14670136E+00</totfact>
</mgrwt>
</event>
<event>
12    5  0.5197392E-008  0.2635088E+04  0.7818608E-02  0.8356379E-01
          1   -1    0    0  501    0  0.00000000000E+00  0.00000000000E+00  0.10910108535E+04  0.10910108535E+04  0.00000000000E+00 0. -1.
         -2   -1    0    0    0  501 -0.00000000000E+00 -0.00000000000E+00 -0.15911140066E+04  0.15911140066E+04  0.00000000000E+00 0.  1.
        -24    2    1    2    0    0  0.17739831439E+03  0.78387197223E+03  0.63168226812E+03  0.10254045161E+04  0.80662897445E+02 0.  0.
        254    2    1    2    0    0 -0.17739831439E+03 -0.78387197223E+03 -0.11317854212E+04  0.16567203439E+04  0.90435536577E+03 0.  0.
         23    2    4    4    0    0  0.12448139261E+03  0.11346378898E+03 -0.18085397940E+02  0.19209843969E+03  0.90581898836E+02 0.  0.
         23    2    4    4    0    0 -0.30187970699E+03 -0.89733576121E+03 -0.11137000232E+04  0.14646219042E+04  0.91906228167E+02 0.  0.
          1    1    3    3  502    0  0.14536829641E+03  0.47135050633E+03  0.39983425995E+03  0.63495722442E+03  0.00000000000E+00 0. -1.
         -2    1    3    3    0  502  0.32030017982E+02  0.31252146590E+03  0.23184800817E+03  0.39044729170E+03  0.00000000000E+00 0.  1.
         13    1    5    5    0    0  0.73110458255E+02  0.86238419201E+01 -0.15972130676E+02  0.75330065141E+02  0.00000000000E+00 0.  1.
        -13    1    5    5    0    0  0.51370934351E+02  0.10483994706E+03 -0.21132672634E+01  0.11676837455E+03  0.00000000000E+00 0. -1.
          1    1    6    6  503    0 -0.40212068448E+02 -0.24503227403E+03 -0.28329386248E+03  0.37671373519E+03  0.00000000000E+00 0. -1.
         -1    1    6    6    0  503 -0.26166763855E+03 -0.65230348718E+03 -0.83040616077E+03  0.10879081691E+04  0.00000000000E+00 0.  1.
<mgrwt>
<rscale>  0 0.26350883E+04</rscale>
<asrwt>0</asrwt>
<pdfrwt beam="1">  1        1 0.16784782E+00 0.26350883E+04</pdfrwt>
<pdfrwt beam="2">  1       -2 0.24478677E+00 0.26350883E+04</pdfrwt>
<totfact> 0.68647179E-01</totfact>
</mgrwt>
</event>
<event>
12    5  0.5197392E-008  0.2325562E+04  0.7818608E-02  0.8467910E-01
          1   -1    0    0  501    0  0.00000000000E+00  0.00000000000E+00  0.14693972625E+04  0.14693972625E+04  0.00000000000E+00 0. -1.
         -2   -1    0    0    0  501 -0.00000000000E+00 -0.00000000000E+00 -0.92014549834E+03  0.92014549834E+03  0.00000000000E+00 0.  1.
        -24    2    1    2    0    0  0.53473241203E+03 -0.41354300581E+03  0.97784786313E+03  0.11913615577E+04  0.78735935672E+02 0.  0.
        254    2    1    2    0    0 -0.53473241203E+03  0.41354300581E+03 -0.42859609893E+03  0.11981812032E+04  0.89162044030E+03 0.  0.
         23    2    4    4    0    0 -0.62423904935E+03  0.46112416076E+03 -0.35719201786E+02  0.78223402503E+03  0.91128075658E+02 0.  0.
         23    2    4    4    0    0  0.89506637324E+02 -0.47581154952E+02 -0.39287689715E+03  0.41594717817E+03  0.91566338155E+02 0.  0.
          1    1    3    3  502    0  0.27682264978E+03 -0.23110211111E+03  0.58544677007E+03  0.68759500127E+03  0.00000000000E+00 0. -1.
         -2    1    3    3    0  502  0.25790976224E+03 -0.18244089470E+03  0.39240109306E+03  0.50376655641E+03  0.00000000000E+00 0.  1.
         13    1    5    5    0    0 -0.37473151030E+03  0.26961616982E+03 -0.65618780112E+02  0.46628575803E+03  0.00000000000E+00 0.  1.
        -13    1    5    5    0    0 -0.24950753905E+03  0.19150799095E+03  0.29899578327E+02  0.31594826701E+03  0.00000000000E+00 0. -1.
          2    1    6    6  503    0 -0.16069344929E+02 -0.42114369745E+01 -0.20034341975E+02  0.26025658612E+02  0.00000000000E+00 0. -1.
         -2    1    6    6    0  503  0.10557598225E+03 -0.43369717978E+02 -0.37284255517E+03  0.38992151956E+03  0.00000000000E+00 0.  1.
<mgrwt>
<rscale>  0 0.23255617E+04</rscale>
<asrwt>0</asrwt>
<pdfrwt beam="1">  1        1 0.22606112E+00 0.23255617E+04</pdfrwt>
<pdfrwt beam="2">  1       -2 0.14156085E+00 0.23255617E+04</pdfrwt>
<totfact> 0.18981711E+00</totfact>
</mgrwt>
</event>
<event>
12    5  0.5197392E-008  0.1780213E+04  0.7818608E-02  0.8716893E-01
          1   -1    0    0  501    0  0.00000000000E+00  0.00000000000E+00  0.98848877424E+03  0.98848877424E+03  0.00000000000E+00 0. -1.
         -2   -1    0    0    0  501 -0.00000000000E+00 -0.00000000000E+00 -0.80151572382E+03  0.80151572382E+03  0.00000000000E+00 0.  1.
        -24    2    1    2    0    0 -0.40428793727E+03  0.18446083030E+03  0.57098449697E+03  0.72786807515E+03  0.79335395017E+02 0.  0.
        254    2    1    2    0    0  0.40428793727E+03 -0.18446083030E+03 -0.38401144656E+03  0.10621364229E+04  0.88498274314E+03 0.  0.
         23    2    4    4    0    0  0.34268595209E+03 -0.13562699447E+02  0.22441792175E+03  0.42041652077E+03  0.93643145817E+02 0.  0.
         23    2    4    4    0    0  0.61601985178E+02 -0.17089813086E+03 -0.60842936831E+03  0.64171990214E+03  0.92828664111E+02 0.  0.
          1    1    3    3  502    0 -0.31593855612E+03  0.16724568349E+03  0.41462013951E+03  0.54744693804E+03  0.00000000000E+00 0. -1.
         -2    1    3    3    0  502 -0.88349381145E+02  0.17215146817E+02  0.15636435747E+03  0.18042113710E+03  0.00000000000E+00 0.  1.
         13    1    5    5    0    0  0.29632264493E+03 -0.39472416564E+02  0.16791948259E+03  0.34287335009E+03  0.00000000000E+00 0. -1.
        -13    1    5    5    0    0  0.46363307159E+02  0.25909717117E+02  0.56498439161E+02  0.77543170682E+02  0.00000000000E+00 0.  1.
          4    1    6    6  503    0  0.53499440831E+01 -0.13783456872E+03 -0.43898601222E+03  0.46014748631E+03  0.00000000000E+00 0. -1.
         -4    1    6    6    0  503  0.56252041095E+02 -0.33063562141E+02 -0.16944335609E+03  0.18157241583E+03  0.00000000000E+00 0.  1.
<mgrwt>
<rscale>  0 0.17802127E+04</rscale>
<asrwt>0</asrwt>
<pdfrwt beam="1">  1        1 0.15207520E+00 0.17802127E+04</pdfrwt>
<pdfrwt beam="2">  1       -2 0.12331011E+00 0.17802127E+04</pdfrwt>
<totfact> 0.63504169E+00</totfact>
</mgrwt>
</event>
<event>
12    5  0.5197392E-008  0.1100545E+04  0.7818608E-02  0.9204661E-01
          1   -1    0    0  501    0  0.00000000000E+00  0.00000000000E+00  0.10159204457E+04  0.10159204457E+04  0.00000000000E+00 0. -1.
         -2   -1    0    0    0  501 -0.00000000000E+00 -0.00000000000E+00 -0.29805461920E+03  0.29805461920E+03  0.00000000000E+00 0.  1.
        -24    2    1    2    0    0 -0.42151642936E+02 -0.12241575230E+03  0.24693629380E+03  0.28991781386E+03  0.79450790976E+02 0.  0.
        254    2    1    2    0    0  0.42151642936E+02  0.12241575230E+03  0.47092953273E+03  0.10240572511E+04  0.90008680207E+03 0.  0.
         23    2    4    4    0    0 -0.27778082639E+01  0.17954660447E+03 -0.23452936428E+03  0.30908060404E+03  0.91006031053E+02 0.  0.
         23    2    4    4    0    0  0.44929451200E+02 -0.57130852165E+02  0.70545889701E+03  0.71497664703E+03  0.90756600712E+02 0.  0.
          1    1    3    3  502    0  0.52923919764E+01 -0.62800139825E+02  0.55874268399E+02  0.84224704476E+02  0.00000000000E+00 0. -1.
         -2    1    3    3    0  502 -0.47444034913E+02 -0.59615612475E+02  0.19106202540E+03  0.20569310939E+03  0.00000000000E+00 0.  1.
         13    1    5    5    0    0  0.10023619158E+01  0.16796920114E+03 -0.24215633210E+03  0.29471061474E+03  0.00000000000E+00 0.  1.
        -13    1    5    5    0    0 -0.37801701797E+01  0.11577403328E+02  0.76269678211E+01  0.14369989302E+02  0.00000000000E+00 0. -1.
          2    1    6    6  503    0  0.55598278005E+01 -0.40557968345E+02  0.10058722611E+03  0.10859857521E+03  0.00000000000E+00 0. -1.
         -2    1    6    6    0  503  0.39369623400E+02 -0.16572883820E+02  0.60487167090E+03  0.60637807182E+03  0.00000000000E+00 0.  1.
<mgrwt>
<rscale>  0 0.11005449E+04</rscale>
<asrwt>0</asrwt>
<pdfrwt beam="1">  1        1 0.15629545E+00 0.11005449E+04</pdfrwt>
<pdfrwt beam="2">  1       -2 0.45854557E-01 0.11005449E+04</pdfrwt>
<totfact> 0.57915932E+01</totfact>
</mgrwt>
</event>
<event>
12    5  0.5197392E-008  0.1390447E+04  0.7818608E-02  0.8960762E-01
         -2   -1    0    0    0  501 -0.00000000000E+00  0.00000000000E+00  0.45907702130E+03  0.45907702130E+03  0.00000000000E+00 0.  1.
          1   -1    0    0  501    0  0.00000000000E+00 -0.00000000000E+00 -0.10528428694E+04  0.10528428694E+04  0.00000000000E+00 0. -1.
        -24    2    1    2    0    0 -0.14362420456E+03  0.29885509874E+03 -0.42540655437E+03  0.54524171652E+03  0.79846795574E+02 0.  0.
        254    2    1    2    0    0  0.14362420456E+03 -0.29885509874E+03 -0.16835929369E+03  0.96667817412E+03  0.89228894332E+03 0.  0.
         23    2    4    4    0    0  0.11120715191E+03 -0.92414620266E+02  0.35600587562E+03  0.39474046653E+03  0.90401104891E+02 0.  0.
         23    2    4    4    0    0  0.32417052650E+02 -0.20644047848E+03 -0.52436516931E+03  0.57193770759E+03  0.92116090462E+02 0.  0.
          3    1    3    3  502    0 -0.10813522367E+03  0.17259360016E+03 -0.30778272624E+03  0.36906907753E+03  0.00000000000E+00 0. -1.
         -4    1    3    3    0  502 -0.35488980886E+02  0.12626149858E+03 -0.11762382812E+03  0.17617263900E+03  0.00000000000E+00 0.  1.
         13    1    5    5    0    0  0.62121384667E+02 -0.95031549598E+02  0.18734144809E+03  0.21905907885E+03  0.00000000000E+00 0. -1.
        -13    1    5    5    0    0  0.49085767240E+02  0.26169293320E+01  0.16866442753E+03  0.17568138768E+03  0.00000000000E+00 0.  1.
          4    1    6    6  503    0  0.11318299299E+02  0.38354297960E+01 -0.91080644891E+01  0.15025686656E+02  0.00000000000E+00 0. -1.
         -4    1    6    6    0  503  0.21098753351E+02 -0.21027590827E+03 -0.51525710482E+03  0.55691202094E+03  0.00000000000E+00 0.  1.
<mgrwt>
<rscale>  0 0.13904474E+04</rscale>
<asrwt>0</asrwt>
<pdfrwt beam="1">  1        1 0.16197583E+00 0.13904474E+04</pdfrwt>
<pdfrwt beam="2">  1       -2 0.70627234E-01 0.13904474E+04</pdfrwt>
<totfact> 0.21477309E+01</totfact>
</mgrwt>
</event>
<event>
12    5  0.5197392E-008  0.1528951E+04  0.7818608E-02  0.8865426E-01
         -2   -1    0    0    0  501 -0.00000000000E+00  0.00000000000E+00  0.23570360080E+04  0.23570360080E+04  0.00000000000E+00 0.  1.
          1   -1    0    0  501    0  0.00000000000E+00 -0.00000000000E+00 -0.24794813381E+03  0.24794813381E+03  0.00000000000E+00 0. -1.
        -24    2    1    2    0    0 -0.25831732284E+03  0.42481187279E+03  0.71169146408E+03  0.87169721671E+03  0.78475034435E+02 0.  0.
        254    2    1    2    0    0  0.25831732284E+03 -0.42481187279E+03  0.13973964101E+04  0.17332869251E+04  0.89686892642E+03 0.  0.
         23    2    4    4    0    0  0.33440682876E+03  0.29970704747E+01  0.11968667907E+04  0.12462224528E+04  0.93506030328E+02 0.  0.
         23    2    4    4    0    0 -0.76089505925E+02 -0.42780894327E+03  0.20052961935E+03  0.48706447222E+03  0.90606660934E+02 0.  0.
          3    1    3    3  502    0 -0.21062379224E+03  0.33808544445E+03  0.61904866504E+03  0.73612865676E+03  0.00000000000E+00 0. -1.
         -4    1    3    3    0  502 -0.47693530597E+02  0.86726428344E+02  0.92642799035E+02  0.13556855995E+03  0.00000000000E+00 0.  1.
         13    1    5    5    0    0  0.33151653784E+03  0.87004042446E+01  0.11940287539E+04  0.12392270078E+04  0.00000000000E+00 0.  1.
        -13    1    5    5    0    0  0.28902909249E+01 -0.57033337699E+01  0.28380368487E+01  0.69954450092E+01  0.00000000000E+00 0. -1.
          4    1    6    6  503    0 -0.30121499664E+02 -0.10454662160E+03  0.93500135367E+02  0.14345583342E+03  0.00000000000E+00 0. -1.
         -4    1    6    6    0  503 -0.45968006261E+02 -0.32326232167E+03  0.10702948399E+03  0.34360863879E+03  0.00000000000E+00 0.  1.
<mgrwt>
<rscale>  0 0.15289509E+04</rscale>
<asrwt>0</asrwt>
<pdfrwt beam="1">  1        1 0.38145868E-01 0.15289509E+04</pdfrwt>
<pdfrwt beam="2">  1       -2 0.36262091E+00 0.15289509E+04</pdfrwt>
<totfact> 0.12345876E+00</totfact>
</mgrwt>
</event>
<event>
12    5  0.5197392E-008  0.1804937E+04  0.7818608E-02  0.8703678E-01
          1   -1    0    0  501    0  0.00000000000E+00  0.00000000000E+00  0.10509370549E+04  0.10509370549E+04  0.00000000000E+00 0. -1.
         -2   -1    0    0    0  501 -0.00000000000E+00 -0.00000000000E+00 -0.77497473944E+03  0.77497473944E+03  0.00000000000E+00 0.  1.
        -24    2    1    2    0    0  0.27661014788E+03 -0.18434205983E+03 -0.48871851970E+03  0.59628964979E+03  0.78869423810E+02 0.  0.
        254    2    1    2    0    0 -0.27661014788E+03  0.18434205983E+03  0.76468083512E+03  0.12296221445E+04  0.90373595134E+03 0.  0.
         23    2    4    4    0    0 -0.51439019165E+03  0.34452014959E+03  0.34823369385E+03  0.71606918465E+03  0.90537113573E+02 0.  0.
         23    2    4    4    0    0  0.23778004378E+03 -0.16017808976E+03  0.41644714128E+03  0.51355295986E+03  0.90066927604E+02 0.  0.
          3    1    3    3  502    0  0.19963759771E+03 -0.96972495381E+02 -0.28006078651E+03  0.35734140457E+03  0.00000000000E+00 0. -1.
         -4    1    3    3    0  502  0.76972550170E+02 -0.87369564453E+02 -0.20865773319E+03  0.23894824522E+03  0.00000000000E+00 0.  1.
         13    1    5    5    0    0 -0.44560541836E+03  0.27145432770E+03  0.31892878177E+03  0.61152858375E+03  0.00000000000E+00 0. -1.
        -13    1    5    5    0    0 -0.68784773297E+02  0.73065821888E+02  0.29304912074E+02  0.10454060090E+03  0.00000000000E+00 0.  1.
          2    1    6    6  503    0  0.94112675715E+02 -0.32742422256E+02  0.20486445388E+03  0.22781287586E+03  0.00000000000E+00 0.  1.
         -2    1    6    6    0  503  0.14366736806E+03 -0.12743566750E+03  0.21158268739E+03  0.28574008400E+03  0.00000000000E+00 0. -1.
<mgrwt>
<rscale>  0 0.18049373E+04</rscale>
<asrwt>0</asrwt>
<pdfrwt beam="1">  1        1 0.16168262E+00 0.18049373E+04</pdfrwt>
<pdfrwt beam="2">  1       -2 0.11922688E+00 0.18049373E+04</pdfrwt>
<totfact> 0.61653747E+00</totfact>
</mgrwt>
</event>
<event>
12    5  0.5197392E-008  0.1871525E+04  0.7818608E-02  0.8669162E-01
          1   -1    0    0  501    0  0.00000000000E+00  0.00000000000E+00  0.65172692510E+03  0.65172692510E+03  0.00000000000E+00 0. -1.
         -2   -1    0    0    0  501 -0.00000000000E+00 -0.00000000000E+00 -0.13435861599E+04  0.13435861599E+04  0.00000000000E+00 0.  1.
        -24    2    1    2    0    0 -0.34820973274E+03  0.63109033916E+03 -0.20453124605E+03  0.75338515240E+03  0.78937463079E+02 0.  0.
        254    2    1    2    0    0  0.34820973274E+03 -0.63109033916E+03 -0.48732798875E+03  0.12419279326E+04  0.88621181836E+03 0.  0.
         23    2    4    4    0    0 -0.52314525497E+02 -0.36840260065E+03 -0.62716607536E+03  0.73480924838E+03  0.90277681007E+02 0.  0.
         23    2    4    4    0    0  0.40052425824E+03 -0.26268773852E+03  0.13983808661E+03  0.50711868422E+03  0.90499392332E+02 0.  0.
          3    1    3    3  502    0 -0.32040020431E+03  0.52200456529E+03 -0.17502850487E+03  0.63700866134E+03  0.00000000000E+00 0. -1.
         -4    1    3    3    0  502 -0.27809528435E+02  0.10908577388E+03 -0.29502741177E+02  0.11637649106E+03  0.00000000000E+00 0.  1.
         13    1    5    5    0    0 -0.60833354075E+01 -0.18423591230E+03 -0.38690744268E+03  0.42857583641E+03  0.00000000000E+00 0. -1.
        -13    1    5    5    0    0 -0.46231190089E+02 -0.18416668835E+03 -0.24025863267E+03  0.30623341197E+03  0.00000000000E+00 0.  1.
          4    1    6    6  503    0  0.90909389389E+02 -0.51142731557E+02  0.70182186717E+02  0.12572046533E+03  0.00000000000E+00 0. -1.
         -4    1    6    6    0  503  0.30961486885E+03 -0.21154500696E+03  0.69655899894E+02  0.38139821889E+03  0.00000000000E+00 0.  1.
<mgrwt>
<rscale>  0 0.18715248E+04</rscale>
<asrwt>0</asrwt>
<pdfrwt beam="1">  1        1 0.10026568E+00 0.18715248E+04</pdfrwt>
<pdfrwt beam="2">  1       -2 0.20670556E+00 0.18715248E+04</pdfrwt>
<totfact> 0.29941095E+00</totfact>
</mgrwt>
</event>
<event>
12    5  0.5197392E-008  0.1462349E+04  0.7818608E-02  0.8909884E-01
         -2   -1    0    0    0  501 -0.00000000000E+00  0.00000000000E+00  0.82218442809E+03  0.82218442809E+03  0.00000000000E+00 0.  1.
          1   -1    0    0  501    0  0.00000000000E+00 -0.00000000000E+00 -0.65023903920E+03  0.65023903920E+03  0.00000000000E+00 0. -1.
        -24    2    1    2    0    0  0.41957763269E+03  0.78600055178E+01  0.17410471685E+03  0.46109182884E+03  0.78651463143E+02 0.  0.
        254    2    1    2    0    0 -0.41957763269E+03 -0.78600055178E+01 -0.21593279640E+01  0.10113316384E+04  0.92015208018E+03 0.  0.
         23    2    4    4    0    0 -0.61197103306E+03 -0.12238025296E+03 -0.23696297554E+03  0.67365192764E+03  0.90388031400E+02 0.  0.
         23    2    4    4    0    0  0.19239340037E+03  0.11452024744E+03  0.23480364757E+03  0.33767971080E+03  0.93620118528E+02 0.  0.
          3    1    3    3  502    0  0.81443125942E+02  0.71522511139E+01  0.22429932661E+01  0.81787336905E+02  0.00000000000E+00 0. -1.
         -4    1    3    3    0  502  0.33813450675E+03  0.70775440397E+00  0.17186172359E+03  0.37930449194E+03  0.00000000000E+00 0.  1.
         13    1    5    5    0    0 -0.59579573161E+03 -0.10823506457E+03 -0.24108194833E+03  0.65177288131E+03  0.00000000000E+00 0. -1.
        -13    1    5    5    0    0 -0.16175301452E+02 -0.14145188381E+02  0.41189727879E+01  0.21879046328E+02  0.00000000000E+00 0.  1.
          3    1    6    6  503    0  0.91123025743E+02  0.84734664350E+02  0.17977490260E+03  0.21863756486E+03  0.00000000000E+00 0. -1.
         -3    1    6    6    0  503  0.10127037462E+03  0.29785583088E+02  0.55028744975E+02  0.11904214594E+03  0.00000000000E+00 0.  1.
<mgrwt>
<rscale>  0 0.14623494E+04</rscale>
<asrwt>0</asrwt>
<pdfrwt beam="1">  1        1 0.10003678E+00 0.14623494E+04</pdfrwt>
<pdfrwt beam="2">  1       -2 0.12648991E+00 0.14623494E+04</pdfrwt>
<totfact> 0.12028499E+01</totfact>
</mgrwt>
</event>
<event>
12    5  0.5197392E-008  0.2096517E+04  0.7818608E-02  0.8562779E-01
          1   -1    0    0  501    0  0.00000000000E+00  0.00000000000E+00  0.10390112260E+04  0.10390112260E+04  0.00000000000E+00 0. -1.
         -2   -1    0    0    0  501 -0.00000000000E+00 -0.00000000000E+00 -0.10575884780E+04  0.10575884780E+04  0.00000000000E+00 0.  1.
        -24    2    1    2    0    0 -0.15169612563E+03 -0.38679329970E+03 -0.75654306323E+03  0.86642788902E+03  0.75624791753E+02 0.  0.
        254    2    1    2    0    0  0.15169612563E+03  0.38679329970E+03  0.73796581128E+03  0.12301718150E+04  0.89224905967E+03 0.  0.
         23    2    4    4    0    0  0.16308562132E+03  0.52753998691E+03  0.97397327814E+02  0.56790863693E+03  0.90214315762E+02 0.  0.
         23    2    4    4    0    0 -0.11389495685E+02 -0.14074668720E+03  0.64056848347E+03  0.66226317803E+03  0.91242448426E+02 0.  0.
          1    1    3    3  502    0 -0.19491293918E+02 -0.20588726001E+02 -0.25314740971E+02  0.38008450210E+02  0.00000000000E+00 0. -1.
         -2    1    3    3    0  502 -0.13220483171E+03 -0.36620457370E+03 -0.73122832226E+03  0.82841943881E+03  0.00000000000E+00 0.  1.
         13    1    5    5    0    0  0.33036995075E+01  0.10180418433E+03 -0.42804934319E+01  0.10194767777E+03  0.00000000000E+00 0. -1.
        -13    1    5    5    0    0  0.15978192181E+03  0.42573580257E+03  0.10167782125E+03  0.46596095916E+03  0.00000000000E+00 0.  1.
          2    1    6    6  503    0 -0.13385652629E+02  0.77741017116E+01  0.11746164806E+03  0.11847721772E+03  0.00000000000E+00 0. -1.
         -2    1    6    6    0  503  0.19961569436E+01 -0.14852078892E+03  0.52310683541E+03  0.54378596031E+03  0.00000000000E+00 0.  1.
<mgrwt>
<rscale>  0 0.20965174E+04</rscale>
<asrwt>0</asrwt>
<pdfrwt beam="1">  1        1 0.15984788E+00 0.20965174E+04</pdfrwt>
<pdfrwt beam="2">  1       -2 0.16270592E+00 0.20965174E+04</pdfrwt>
<totfact> 0.27384167E+00</totfact>
</mgrwt>
</event>
<event>
12    5  0.5197392E-008  0.1731730E+04  0.7818608E-02  0.8743472E-01
         -2   -1    0    0    0  501 -0.00000000000E+00  0.00000000000E+00  0.38065168181E+03  0.38065168181E+03  0.00000000000E+00 0.  1.
          1   -1    0    0  501    0  0.00000000000E+00 -0.00000000000E+00 -0.19695753014E+04  0.19695753014E+04  0.00000000000E+00 0. -1.
        -24    2    1    2    0    0  0.26855919690E+03  0.54841241594E+03 -0.78290610028E+03  0.99642214678E+03  0.83874385464E+02 0.  0.
        254    2    1    2    0    0 -0.26855919690E+03 -0.54841241594E+03 -0.80601751935E+03  0.13538048365E+04  0.90013503073E+03 0.  0.
         23    2    4    4    0    0 -0.15139375579E+03 -0.66799862240E+03 -0.20095477934E+03  0.71950187571E+03  0.90321077209E+02 0.  0.
         23    2    4    4    0    0 -0.11716544111E+03  0.11958620646E+03 -0.60506274001E+03  0.63430296076E+03  0.90613052691E+02 0.  0.
          1    1    3    3  502    0  0.23583489291E+03  0.48717896121E+03 -0.64490899396E+03  0.84194361298E+03  0.00000000000E+00 0. -1.
         -2    1    3    3    0  502  0.32724303994E+02  0.61233454736E+02 -0.13799710632E+03  0.15447853379E+03  0.00000000000E+00 0.  1.
         13    1    5    5    0    0 -0.14169707671E+03 -0.59482316143E+03 -0.14936764611E+03  0.62944685926E+03  0.00000000000E+00 0. -1.
        -13    1    5    5    0    0 -0.96966790757E+01 -0.73175460969E+02 -0.51587133232E+02  0.90055016453E+02  0.00000000000E+00 0.  1.
          3    1    6    6  503    0 -0.76060798973E+02  0.12658439282E+03 -0.44322084988E+03  0.46717617171E+03  0.00000000000E+00 0. -1.
         -3    1    6    6    0  503 -0.41104642138E+02 -0.69981863644E+01 -0.16184189013E+03  0.16712678905E+03  0.00000000000E+00 0.  1.
<mgrwt>
<rscale>  0 0.17317299E+04</rscale>
<asrwt>0</asrwt>
<pdfrwt beam="1">  1        1 0.30301158E+00 0.17317299E+04</pdfrwt>
<pdfrwt beam="2">  1       -2 0.58561797E-01 0.17317299E+04</pdfrwt>
<totfact> 0.71004346E+00</totfact>
</mgrwt>
</event>
<event>
12    5  0.5197392E-008  0.1598366E+04  0.7818608E-02  0.8821552E-01
         -2   -1    0    0    0  501 -0.00000000000E+00  0.00000000000E+00  0.92201501317E+03  0.92201501317E+03  0.00000000000E+00 0.  1.
          1   -1    0    0  501    0  0.00000000000E+00 -0.00000000000E+00 -0.69271485123E+03  0.69271485123E+03  0.00000000000E+00 0. -1.
        -24    2    1    2    0    0 -0.26803949835E+03 -0.26024669458E+02 -0.39941275383E+03  0.48813899594E+03  0.78909285480E+02 0.  0.
        254    2    1    2    0    0  0.26803949835E+03  0.26024669458E+02  0.62871291577E+03  0.11265908685E+04  0.89521204100E+03 0.  0.
         23    2    4    4    0    0  0.39694629814E+03  0.36857736027E+03  0.29486809295E+03  0.62353249530E+03  0.91814739200E+02 0.  0.
         23    2    4    4    0    0 -0.12890679979E+03 -0.34255269081E+03  0.33384482282E+03  0.50305837317E+03  0.87498869012E+02 0.  0.
          1    1    3    3  502    0 -0.20536428552E+03 -0.42964275742E+02 -0.34324605233E+03  0.40229127656E+03  0.00000000000E+00 0. -1.
         -2    1    3    3    0  502 -0.62675212837E+02  0.16939606284E+02 -0.56166701505E+02  0.85847719382E+02  0.00000000000E+00 0.  1.
         13    1    5    5    0    0  0.29436634874E+03  0.22199514366E+03  0.17451330015E+03  0.40790719901E+03  0.00000000000E+00 0. -1.
        -13    1    5    5    0    0  0.10257994941E+03  0.14658221661E+03  0.12035479281E+03  0.21562529628E+03  0.00000000000E+00 0.  1.
          1    1    6    6  503    0 -0.62265593108E+01 -0.27650382113E+01 -0.44477416465E+01  0.81362081410E+01  0.00000000000E+00 0. -1.
         -1    1    6    6    0  503 -0.12268024048E+03 -0.33978765260E+03  0.33829256446E+03  0.49492216503E+03  0.00000000000E+00 0.  1.
<mgrwt>
<rscale>  0 0.15983660E+04</rscale>
<asrwt>0</asrwt>
<pdfrwt beam="1">  1        1 0.10657152E+00 0.15983660E+04</pdfrwt>
<pdfrwt beam="2">  1       -2 0.14184846E+00 0.15983660E+04</pdfrwt>
<totfact> 0.80691584E+00</totfact>
</mgrwt>
</event>
<event>
12    5  0.5197392E-008  0.2217274E+04  0.7818608E-02  0.8511272E-01
         -2   -1    0    0    0  501 -0.00000000000E+00  0.00000000000E+00  0.17130602647E+04  0.17130602647E+04  0.00000000000E+00 0.  1.
          1   -1    0    0  501    0  0.00000000000E+00 -0.00000000000E+00 -0.71747412131E+03  0.71747412131E+03  0.00000000000E+00 0. -1.
        -24    2    1    2    0    0  0.79054148733E+02 -0.32083810498E+03 -0.53346740192E+03  0.63259797222E+03  0.80037975396E+02 0.  0.
        254    2    1    2    0    0 -0.79054148733E+02  0.32083810498E+03  0.15290535453E+04  0.17979364138E+04  0.88621890951E+03 0.  0.
         23    2    4    4    0    0  0.19506571612E+03  0.53170269692E+03  0.78132270063E+03  0.96920420148E+03  0.90184422837E+02 0.  0.
         23    2    4    4    0    0 -0.27411986486E+03 -0.21086459194E+03  0.74773084468E+03  0.82873221231E+03  0.89944912000E+02 0.  0.
          1    1    3    3  502    0  0.65979151715E+02 -0.31917399055E+03 -0.52040519002E+03  0.61404140455E+03  0.00000000000E+00 0. -1.
         -2    1    3    3    0  502  0.13074997018E+02 -0.16641144300E+01 -0.13062211900E+02  0.18556567667E+02  0.00000000000E+00 0.  1.
         13    1    5    5    0    0 -0.95483844004E+01  0.22592177606E+02  0.39848827554E+02  0.46792170190E+02  0.00000000000E+00 0. -1.
        -13    1    5    5    0    0  0.20461410052E+03  0.50911051932E+03  0.74147387308E+03  0.92241203129E+03  0.00000000000E+00 0.  1.
          3    1    6    6  503    0 -0.16535909729E+02  0.10970113194E+01  0.10702064575E+02  0.19727491746E+02  0.00000000000E+00 0. -1.
         -3    1    6    6    0  503 -0.25758395513E+03 -0.21196160326E+03  0.73702878010E+03  0.80900472056E+03  0.00000000000E+00 0.  1.
<mgrwt>
<rscale>  0 0.22172744E+04</rscale>
<asrwt>0</asrwt>
<pdfrwt beam="1">  1        1 0.11038063E+00 0.22172744E+04</pdfrwt>
<pdfrwt beam="2">  1       -2 0.26354773E+00 0.22172744E+04</pdfrwt>
<totfact> 0.11107047E+00</totfact>
</mgrwt>
</event>
<event>
12    5  0.5197392E-008  0.1079956E+04  0.7818608E-02  0.9224951E-01
          1   -1    0    0  501    0  0.00000000000E+00  0.00000000000E+00  0.78942543307E+03  0.78942543307E+03  0.00000000000E+00 0. -1.
         -2   -1    0    0    0  501 -0.00000000000E+00 -0.00000000000E+00 -0.36935254892E+03  0.36935254892E+03  0.00000000000E+00 0.  1.
        -24    2    1    2    0    0 -0.26182785869E+02 -0.11692186973E+03 -0.39425593881E+02  0.14959617177E+03  0.80426210012E+02 0.  0.
        254    2    1    2    0    0  0.26182785869E+02  0.11692186973E+03  0.45949847803E+03  0.10091818102E+04  0.89047897947E+03 0.  0.
         23    2    4    4    0    0 -0.29332836368E+03 -0.23499108376E+03  0.82310281407E+02  0.39526725881E+03  0.90547695033E+02 0.  0.
         23    2    4    4    0    0  0.31951114955E+03  0.35191295349E+03  0.37718819663E+03  0.61391455141E+03  0.93220379962E+02 0.  0.
          3    1    3    3  502    0  0.12380415425E+02 -0.29006231136E+01 -0.25413775157E+02  0.28417393763E+02  0.00000000000E+00 0. -1.
         -4    1    3    3    0  502 -0.38563201295E+02 -0.11402124662E+03 -0.14011818723E+02  0.12117877800E+03  0.00000000000E+00 0.  1.
         13    1    5    5    0    0 -0.15055981547E+03 -0.11909947871E+03 -0.42706239996E+01  0.19201870246E+03  0.00000000000E+00 0. -1.
        -13    1    5    5    0    0 -0.14276854821E+03 -0.11589160505E+03  0.86580905406E+02  0.20324855635E+03  0.00000000000E+00 0.  1.
          2    1    6    6  503    0  0.26442216788E+03  0.28569980650E+03  0.35027183096E+03  0.52367338854E+03  0.00000000000E+00 0. -1.
         -2    1    6    6    0  503  0.55088981671E+02  0.66213146988E+02  0.26916365664E+02  0.90241162870E+02  0.00000000000E+00 0.  1.
<mgrwt>
<rscale>  0 0.10799561E+04</rscale>
<asrwt>0</asrwt>
<pdfrwt beam="1">  1        1 0.12145007E+00 0.10799561E+04</pdfrwt>
<pdfrwt beam="2">  1       -2 0.56823469E-01 0.10799561E+04</pdfrwt>
<totfact> 0.57352537E+01</totfact>
</mgrwt>
</event>
<event>
12    5  0.5197392E-008  0.1776909E+04  0.7818608E-02  0.8718676E-01
         -2   -1    0    0    0  501 -0.00000000000E+00  0.00000000000E+00  0.29327151180E+03  0.29327151180E+03  0.00000000000E+00 0.  1.
          1   -1    0    0  501    0  0.00000000000E+00 -0.00000000000E+00 -0.26915387620E+04  0.26915387620E+04  0.00000000000E+00 0. -1.
        -24    2    1    2    0    0 -0.28296945621E+03 -0.45322644601E+03 -0.23585748219E+03  0.58895603824E+03  0.75858674927E+02 0.  0.
        254    2    1    2    0    0  0.28296945621E+03  0.45322644601E+03 -0.21624097680E+04  0.23958542356E+04  0.88239197004E+03 0.  0.
         23    2    4    4    0    0  0.20312489629E+03  0.69681818138E+03 -0.18012975145E+04  0.19441606447E+04  0.90953698304E+02 0.  0.
         23    2    4    4    0    0  0.79844559926E+02 -0.24359173537E+03 -0.36111225353E+03  0.45169359089E+03  0.88954781278E+02 0.  0.
          3    1    3    3  502    0 -0.24278514522E+03 -0.34722750747E+03 -0.20911781024E+03  0.47248473758E+03  0.00000000000E+00 0. -1.
         -4    1    3    3    0  502 -0.40184310989E+02 -0.10599893855E+03 -0.26739671947E+02  0.11647130066E+03  0.00000000000E+00 0.  1.
         13    1    5    5    0    0  0.77356666241E+02  0.42073459357E+03 -0.10250063338E+04  0.11106933134E+04  0.00000000000E+00 0.  1.
        -13    1    5    5    0    0  0.12576823005E+03  0.27608358782E+03 -0.77629118073E+03  0.83346733135E+03  0.00000000000E+00 0. -1.
          4    1    6    6  503    0  0.78982555200E+02 -0.23183861200E+03 -0.28989655243E+03  0.37950941642E+03  0.00000000000E+00 0. -1.
         -4    1    6    6    0  503  0.86200472633E+00 -0.11753123368E+02 -0.71215701093E+02  0.72184174466E+02  0.00000000000E+00 0.  1.
<mgrwt>
<rscale>  0 0.17769093E+04</rscale>
<asrwt>0</asrwt>
<pdfrwt beam="1">  1        1 0.41408287E+00 0.17769093E+04</pdfrwt>
<pdfrwt beam="2">  1       -2 0.45118696E-01 0.17769093E+04</pdfrwt>
<totfact> 0.38561897E+00</totfact>
</mgrwt>
</event>
<event>
12    5  0.5197392E-008  0.1503693E+04  0.7818608E-02  0.8882001E-01
         -2   -1    0    0    0  501 -0.00000000000E+00  0.00000000000E+00  0.37852035832E+03  0.37852035832E+03  0.00000000000E+00 0.  1.
          1   -1    0    0  501    0  0.00000000000E+00 -0.00000000000E+00 -0.14933748543E+04  0.14933748543E+04  0.00000000000E+00 0. -1.
        -24    2    1    2    0    0 -0.25916127905E+03  0.77110974120E+02 -0.83610688469E+03  0.88240006254E+03  0.80277499071E+02 0.  0.
        254    2    1    2    0    0  0.25916127905E+03 -0.77110974120E+02 -0.27874761125E+03  0.98949515003E+03  0.91010425241E+03 0.  0.
         23    2    4    4    0    0 -0.40852636097E+02 -0.33036556507E+03  0.17116448792E+03  0.38504433010E+03  0.90285711813E+02 0.  0.
         23    2    4    4    0    0  0.30001391515E+03  0.25325459094E+03 -0.44991209917E+03  0.60445081993E+03  0.93774514757E+02 0.  0.
          3    1    3    3  502    0 -0.24634045852E+03  0.73753131842E+02 -0.70154492062E+03  0.74718700579E+03  0.00000000000E+00 0. -1.
         -2    1    3    3    0  502 -0.12820820528E+02  0.33578422784E+01 -0.13456196407E+03  0.13521305676E+03  0.00000000000E+00 0.  1.
         13    1    5    5    0    0 -0.78162197149E+01 -0.28926489594E+03  0.12599217301E+03  0.31560941205E+03  0.00000000000E+00 0.  1.
        -13    1    5    5    0    0 -0.33036416382E+02 -0.41100669123E+02  0.45172314911E+02  0.69434918047E+02  0.00000000000E+00 0. -1.
          1    1    6    6  503    0  0.22689610122E+03  0.14573094734E+03 -0.34165203239E+03  0.43525332969E+03  0.00000000000E+00 0. -1.
         -1    1    6    6    0  503  0.73117813925E+02  0.10752364360E+03 -0.10826006677E+03  0.16919749024E+03  0.00000000000E+00 0.  1.
<mgrwt>
<rscale>  0 0.15036925E+04</rscale>
<asrwt>0</asrwt>
<pdfrwt beam="1">  1        1 0.22974997E+00 0.15036925E+04</pdfrwt>
<pdfrwt beam="2">  1       -2 0.58233902E-01 0.15036925E+04</pdfrwt>
<totfact> 0.15475233E+01</totfact>
</mgrwt>
</event>
<event>
12    5  0.5197392E-008  0.1621096E+04  0.7818608E-02  0.8807692E-01
          1   -1    0    0  501    0  0.00000000000E+00  0.00000000000E+00  0.10448162397E+04  0.10448162397E+04  0.00000000000E+00 0. -1.
         -2   -1    0    0    0  501 -0.00000000000E+00 -0.00000000000E+00 -0.62880735290E+03  0.62880735290E+03  0.00000000000E+00 0.  1.
        -24    2    1    2    0    0  0.20364237705E+03 -0.75691995406E+02  0.67333512233E+03  0.71205432356E+03  0.80260057514E+02 0.  0.
        254    2    1    2    0    0 -0.20364237705E+03  0.75691995406E+02 -0.25732623548E+03  0.96156926909E+03  0.90066596022E+03 0.  0.
         23    2    4    4    0    0  0.26854274842E+03  0.28462702412E+03 -0.12778788247E+03  0.42154194593E+03  0.90775099508E+02 0.  0.
         23    2    4    4    0    0 -0.47218512547E+03 -0.20893502871E+03 -0.12953835302E+03  0.54002732316E+03  0.90756189421E+02 0.  0.
          1    1    3    3  502    0  0.17675151228E+03 -0.81257266803E+02  0.49916557376E+03  0.53573324568E+03  0.00000000000E+00 0. -1.
         -2    1    3    3    0  502  0.26890864772E+02  0.55652713972E+01  0.17416954857E+03  0.17632107787E+03  0.00000000000E+00 0.  1.
         13    1    5    5    0    0  0.32296873018E+02  0.64129787496E+02  0.54161631854E+01  0.72007308481E+02  0.00000000000E+00 0. -1.
        -13    1    5    5    0    0  0.23624587540E+03  0.22049723662E+03 -0.13320404565E+03  0.34953463745E+03  0.00000000000E+00 0.  1.
          4    1    6    6  503    0 -0.41205865277E+03 -0.17446188327E+03 -0.79337985125E+02  0.45444889473E+03  0.00000000000E+00 0. -1.
         -4    1    6    6    0  503 -0.60126472697E+02 -0.34473145437E+02 -0.50200367892E+02  0.85578428425E+02  0.00000000000E+00 0.  1.
<mgrwt>
<rscale>  0 0.16210961E+04</rscale>
<asrwt>0</asrwt>
<pdfrwt beam="1">  1        1 0.16074096E+00 0.16210961E+04</pdfrwt>
<pdfrwt beam="2">  1       -2 0.96739593E-01 0.16210961E+04</pdfrwt>
<totfact> 0.10476999E+01</totfact>
</mgrwt>
</event>
<event>
12    5  0.5197392E-008  0.2156299E+04  0.7818608E-02  0.8536841E-01
          1   -1    0    0  501    0  0.00000000000E+00  0.00000000000E+00  0.21037330566E+04  0.21037330566E+04  0.00000000000E+00 0. -1.
         -2   -1    0    0    0  501 -0.00000000000E+00 -0.00000000000E+00 -0.55254455997E+03  0.55254455997E+03  0.00000000000E+00 0.  1.
        -24    2    1    2    0    0  0.80891772063E+03 -0.34250440494E+03  0.83027416459E+03  0.12114002005E+04  0.80486715102E+02 0.  0.
        254    2    1    2    0    0 -0.80891772063E+03  0.34250440494E+03  0.72091433208E+03  0.14448774161E+04  0.89235426101E+03 0.  0.
         23    2    4    4    0    0 -0.79817602763E+03 -0.50374133995E+02  0.65330734647E+03  0.10364403233E+04  0.88178967633E+02 0.  0.
         23    2    4    4    0    0 -0.10741693003E+02  0.39287853894E+03  0.67606985606E+02  0.40843709279E+03  0.88211246097E+02 0.  0.
          3    1    3    3  502    0  0.16996605474E+03 -0.58611446795E+02  0.13023752306E+03  0.22200354473E+03  0.00000000000E+00 0. -1.
         -4    1    3    3    0  502  0.63895166589E+03 -0.28389295815E+03  0.70003664152E+03  0.98939665580E+03  0.00000000000E+00 0.  1.
         13    1    5    5    0    0 -0.43945507246E+03 -0.63033351093E+02  0.39470565709E+03  0.59404252356E+03  0.00000000000E+00 0. -1.
        -13    1    5    5    0    0 -0.35872095516E+03  0.12659217098E+02  0.25860168938E+03  0.44239779972E+03  0.00000000000E+00 0.  1.
          2    1    6    6  503    0 -0.37888487056E+02  0.10283134556E+03  0.94966634517E+00  0.10959345303E+03  0.00000000000E+00 0. -1.
         -2    1    6    6    0  503  0.27146794053E+02  0.29004719338E+03  0.66657319261E+02  0.29884363976E+03  0.00000000000E+00 0.  1.
<mgrwt>
<rscale>  0 0.21562989E+04</rscale>
<asrwt>0</asrwt>
<pdfrwt beam="1">  1        1 0.32365124E+00 0.21562989E+04</pdfrwt>
<pdfrwt beam="2">  1       -2 0.85006856E-01 0.21562989E+04</pdfrwt>
<totfact> 0.24537180E+00</totfact>
</mgrwt>
</event>
<event>
12    5  0.5197392E-008  0.1734570E+04  0.7818608E-02  0.8741890E-01
         -2   -1    0    0    0  501 -0.00000000000E+00  0.00000000000E+00  0.56414577736E+03  0.56414577736E+03  0.00000000000E+00 0.  1.
          1   -1    0    0  501    0  0.00000000000E+00 -0.00000000000E+00 -0.13333131049E+04  0.13333131049E+04  0.00000000000E+00 0. -1.
        -24    2    1    2    0    0  0.56783610400E+02  0.61731732173E+03 -0.26595972926E+03  0.67848559661E+03  0.72822202003E+02 0.  0.
        254    2    1    2    0    0 -0.56783610400E+02 -0.61731732173E+03 -0.50320759827E+03  0.12189732856E+04  0.92107162046E+03 0.  0.
         23    2    4    4    0    0 -0.15345116793E+03 -0.63269736605E+03 -0.71341681465E+03  0.97020304168E+03  0.92071563042E+02 0.  0.
         23    2    4    4    0    0  0.96667557528E+02  0.15380044315E+02  0.21020921638E+03  0.24877024395E+03  0.90097487106E+02 0.  0.
          1    1    3    3  502    0  0.18804090460E+02  0.46869939951E+03 -0.17836702144E+03  0.50184411450E+03  0.00000000000E+00 0. -1.
         -2    1    3    3    0  502  0.37979519940E+02  0.14861792222E+03 -0.87592707828E+02  0.17664148212E+03  0.00000000000E+00 0.  1.
         13    1    5    5    0    0 -0.27990861400E+02 -0.57451175041E+02 -0.38667392383E+02  0.74694665600E+02  0.00000000000E+00 0. -1.
        -13    1    5    5    0    0 -0.12546030653E+03 -0.57524619101E+03 -0.67474942227E+03  0.89550837608E+03  0.00000000000E+00 0.  1.
          4    1    6    6  503    0  0.32441209429E+02  0.92807708596E+00  0.44769695946E+01  0.32761816998E+02  0.00000000000E+00 0. -1.
         -4    1    6    6    0  503  0.64226348100E+02  0.14451967229E+02  0.20573224679E+03  0.21600842696E+03  0.00000000000E+00 0.  1.
<mgrwt>
<rscale>  0 0.17345696E+04</rscale>
<asrwt>0</asrwt>
<pdfrwt beam="1">  1        1 0.20512509E+00 0.17345696E+04</pdfrwt>
<pdfrwt beam="2">  1       -2 0.86791658E-01 0.17345696E+04</pdfrwt>
<totfact> 0.81901426E+00</totfact>
</mgrwt>
</event>
<event>
12    5  0.5197392E-008  0.1511725E+04  0.7818608E-02  0.8876693E-01
          1   -1    0    0  501    0  0.00000000000E+00  0.00000000000E+00  0.16910018391E+04  0.16910018391E+04  0.00000000000E+00 0. -1.
         -2   -1    0    0    0  501 -0.00000000000E+00 -0.00000000000E+00 -0.33786378585E+03  0.33786378585E+03  0.00000000000E+00 0.  1.
        -24    2    1    2    0    0 -0.44062508292E+03 -0.87808464398E+02  0.18324757276E+03  0.49183113613E+03  0.80357970489E+02 0.  0.
        254    2    1    2    0    0  0.44062508292E+03  0.87808464398E+02  0.11698904804E+04  0.15370344888E+04  0.88992724049E+03 0.  0.
         23    2    4    4    0    0  0.61654130281E+03 -0.16914174791E+03  0.60277174315E+03  0.88345876076E+03  0.91834082287E+02 0.  0.
         23    2    4    4    0    0 -0.17591621989E+03  0.25695021231E+03  0.56711873730E+03  0.65357572802E+03  0.92561558103E+02 0.  0.
          1    1    3    3  502    0 -0.17260558055E+03  0.52020524923E+01  0.72311304465E+02  0.18721290698E+03  0.00000000000E+00 0. -1.
         -2    1    3    3    0  502 -0.26801950237E+03 -0.93010516891E+02  0.11093626829E+03  0.30461822914E+03  0.00000000000E+00 0.  1.
         13    1    5    5    0    0  0.23210023436E+03 -0.96666168751E+02  0.19331046266E+03  0.31714949464E+03  0.00000000000E+00 0. -1.
        -13    1    5    5    0    0  0.38444106845E+03 -0.72475579164E+02  0.40946128048E+03  0.56630926613E+03  0.00000000000E+00 0.  1.
          4    1    6    6  503    0 -0.32817564676E+02  0.12319836132E+03  0.19351884998E+03  0.23174204211E+03  0.00000000000E+00 0. -1.
         -4    1    6    6    0  503 -0.14309865521E+03  0.13375185099E+03  0.37359988731E+03  0.42183368591E+03  0.00000000000E+00 0.  1.
<mgrwt>
<rscale>  0 0.15117252E+04</rscale>
<asrwt>0</asrwt>
<pdfrwt beam="1">  1        1 0.26015412E+00 0.15117252E+04</pdfrwt>
<pdfrwt beam="2">  1       -2 0.51979045E-01 0.15117252E+04</pdfrwt>
<totfact> 0.14329852E+01</totfact>
</mgrwt>
</event>
<event>
12    5  0.5197392E-008  0.2019807E+04  0.7818608E-02  0.8597416E-01
          1   -1    0    0  501    0  0.00000000000E+00  0.00000000000E+00  0.14542696578E+04  0.14542696578E+04  0.00000000000E+00 0. -1.
         -2   -1    0    0    0  501 -0.00000000000E+00 -0.00000000000E+00 -0.70131755366E+03  0.70131755366E+03  0.00000000000E+00 0.  1.
        -24    2    1    2    0    0  0.45157077618E+03 -0.47080178228E+03 -0.20858949055E+03  0.68928649843E+03  0.77690522282E+02 0.  0.
        254    2    1    2    0    0 -0.45157077618E+03  0.47080178228E+03  0.96154159464E+03  0.14663007130E+04  0.89437411557E+03 0.  0.
         23    2    4    4    0    0  0.16960300123E+03 -0.10644613386E+03  0.66102795069E+02  0.23005582587E+03  0.91979052296E+02 0.  0.
         23    2    4    4    0    0 -0.62117377741E+03  0.57724791613E+03  0.89543879957E+03  0.12362448871E+04  0.86132216651E+02 0.  0.
          1    1    3    3  502    0  0.22416407469E+02 -0.41510561143E+01 -0.42918026339E+01  0.23197977509E+02  0.00000000000E+00 0. -1.
         -2    1    3    3    0  502  0.42915436871E+03 -0.46665072616E+03 -0.20429768792E+03  0.66608852092E+03  0.00000000000E+00 0.  1.
         13    1    5    5    0    0  0.11367499006E+02  0.15393225463E+02 -0.15541361105E+01  0.19198613566E+02  0.00000000000E+00 0.  1.
        -13    1    5    5    0    0  0.15823550222E+03 -0.12183935932E+03  0.67656931179E+02  0.21085721230E+03  0.00000000000E+00 0. -1.
          4    1    6    6  503    0 -0.27173705760E+03  0.30795394507E+03  0.45241526981E+03  0.61102883493E+03  0.00000000000E+00 0. -1.
         -4    1    6    6    0  503 -0.34943671981E+03  0.26929397106E+03  0.44302352977E+03  0.62521605220E+03  0.00000000000E+00 0.  1.
<mgrwt>
<rscale>  0 0.20198068E+04</rscale>
<asrwt>0</asrwt>
<pdfrwt beam="1">  1        1 0.22373379E+00 0.20198068E+04</pdfrwt>
<pdfrwt beam="2">  1       -2 0.10789501E+00 0.20198068E+04</pdfrwt>
<totfact> 0.39389227E+00</totfact>
</mgrwt>
</event>
<event>
12    5  0.5197392E-008  0.1122022E+04  0.7818608E-02  0.9183990E-01
         -2   -1    0    0    0  501 -0.00000000000E+00  0.00000000000E+00  0.14982562682E+03  0.14982562682E+03  0.00000000000E+00 0.  1.
          1   -1    0    0  501    0  0.00000000000E+00 -0.00000000000E+00 -0.21006632686E+04  0.21006632686E+04  0.00000000000E+00 0. -1.
        -24    2    1    2    0    0  0.98917031855E+02  0.11643187713E+03 -0.54459090188E+03  0.57109391262E+03  0.78917966388E+02 0.  0.
        254    2    1    2    0    0 -0.98917031855E+02 -0.11643187713E+03 -0.14062467399E+04  0.16793949828E+04  0.90526054458E+03 0.  0.
         23    2    4    4    0    0 -0.10328148325E+03 -0.12587001867E+03  0.71701835057E+02  0.19870821949E+03  0.88506931710E+02 0.  0.
         23    2    4    4    0    0  0.43644513953E+01  0.94381415378E+01 -0.14779485750E+04  0.14806867633E+04  0.89404551612E+02 0.  0.
          3    1    3    3  502    0  0.10725706220E+03  0.11792884713E+03 -0.53524495122E+03  0.55847869090E+03  0.00000000000E+00 0. -1.
         -4    1    3    3    0  502 -0.83400303505E+01 -0.14969700004E+01 -0.93459506616E+01  0.12615221726E+02  0.00000000000E+00 0.  1.
         13    1    5    5    0    0 -0.10366569245E+03 -0.76743958185E+02  0.25929564754E+02  0.13156197489E+03  0.00000000000E+00 0. -1.
        -13    1    5    5    0    0  0.38420919727E+00 -0.49126060482E+02  0.45772270304E+02  0.67146244601E+02  0.00000000000E+00 0.  1.
          3    1    6    6  503    0  0.50282089875E+01  0.40782582280E+01 -0.14739564399E+04  0.14739706584E+04  0.00000000000E+00 0. -1.
         -3    1    6    6    0  503 -0.66375759212E+00  0.53598833097E+01 -0.39921351261E+01  0.67161049798E+01  0.00000000000E+00 0.  1.
<mgrwt>
<rscale>  0 0.11220217E+04</rscale>
<asrwt>0</asrwt>
<pdfrwt beam="1">  1        1 0.32317893E+00 0.11220217E+04</pdfrwt>
<pdfrwt beam="2">  1       -2 0.23050099E-01 0.11220217E+04</pdfrwt>
<totfact> 0.37071298E+01</totfact>
</mgrwt>
</event>
<event>
12    5  0.5197392E-008  0.7684498E+04  0.7818608E-02  0.7510687E-01
         -2   -1    0    0    0  501 -0.00000000000E+00  0.00000000000E+00  0.56375534162E+04  0.56375534162E+04  0.00000000000E+00 0.  1.
          1   -1    0    0  501    0  0.00000000000E+00 -0.00000000000E+00 -0.26186671831E+04  0.26186671831E+04  0.00000000000E+00 0. -1.
        -24    2    1    2    0    0 -0.23384294185E+04 -0.37561196320E+02  0.46927451434E+04  0.52438680806E+04  0.81440018133E+02 0.  0.
        254    2    1    2    0    0  0.23384294185E+04  0.37561196320E+02 -0.16738589103E+04  0.30123525187E+04  0.89599166083E+03 0.  0.
         23    2    4    4    0    0  0.23010023078E+04 -0.29203720208E+02 -0.13549311040E+04  0.26719951916E+04  0.90859944463E+02 0.  0.
         23    2    4    4    0    0  0.37427110764E+02  0.66764916528E+02 -0.31892780627E+03  0.34035732710E+03  0.90938560587E+02 0.  0.
          3    1    3    3  502    0 -0.27664045692E+03  0.16490358645E+02  0.52093328581E+03  0.59006216842E+03  0.00000000000E+00 0. -1.
         -4    1    3    3    0  502 -0.20617889616E+04 -0.54051554964E+02  0.41718118576E+04  0.46538059122E+04  0.00000000000E+00 0.  1.
         13    1    5    5    0    0  0.20494821646E+04 -0.14718274636E+01 -0.12224095846E+04  0.23863496185E+04  0.00000000000E+00 0. -1.
        -13    1    5    5    0    0  0.25152014320E+03 -0.27731892745E+02 -0.13252151945E+03  0.28564557310E+03  0.00000000000E+00 0.  1.
          1    1    6    6  503    0 -0.79938964218E+01  0.59525828778E+02 -0.25260443113E+03  0.25964634659E+03  0.00000000000E+00 0. -1.
         -1    1    6    6    0  503  0.45421007186E+02  0.72390877503E+01 -0.66323375139E+02  0.80710980511E+02  0.00000000000E+00 0.  1.
<mgrwt>
<rscale>  0 0.76844977E+04</rscale>
<asrwt>0</asrwt>
<pdfrwt beam="1">  1        1 0.40287188E+00 0.76844977E+04</pdfrwt>
<pdfrwt beam="2">  1       -2 0.86731591E+00 0.76844977E+04</pdfrwt>
<totfact> 0.12686213E-05</totfact>
</mgrwt>
</event>
<event>
12    5  0.5197392E-008  0.2014643E+04  0.7818608E-02  0.8599805E-01
          1   -1    0    0  501    0  0.00000000000E+00  0.00000000000E+00  0.11119694692E+04  0.11119694692E+04  0.00000000000E+00 0. -1.
         -2   -1    0    0    0  501 -0.00000000000E+00 -0.00000000000E+00 -0.91252234543E+03  0.91252234543E+03  0.00000000000E+00 0.  1.
        -24    2    1    2    0    0  0.13097717234E+03  0.35566959805E+03 -0.60123158096E+03  0.71502754220E+03  0.78288501807E+02 0.  0.
        254    2    1    2    0    0 -0.13097717234E+03 -0.35566959805E+03  0.80067870475E+03  0.13094642724E+04  0.96434143845E+03 0.  0.
         23    2    4    4    0    0  0.24942148831E+03  0.14409237682E+03  0.19050505743E+02  0.30261024777E+03  0.90754329907E+02 0.  0.
         23    2    4    4    0    0 -0.38039866065E+03 -0.49976197487E+03  0.78162819901E+03  0.10068540247E+04  0.91363083230E+02 0.  0.
          3    1    3    3  502    0  0.40991289987E+02  0.14106936305E+03 -0.16734162300E+03  0.22267480736E+03  0.00000000000E+00 0. -1.
         -4    1    3    3    0  502  0.89985882351E+02  0.21460023500E+03 -0.43388995796E+03  0.49235273484E+03  0.00000000000E+00 0.  1.
         13    1    5    5    0    0  0.79467542845E+02  0.88333901416E+02 -0.17344191136E+02  0.12007826394E+03  0.00000000000E+00 0.  1.
        -13    1    5    5    0    0  0.16995394547E+03  0.55758475402E+02  0.36394696879E+02  0.18253198383E+03  0.00000000000E+00 0. -1.
          3    1    6    6  503    0 -0.30173588438E+03 -0.35632523914E+03  0.52578061197E+03  0.70317670034E+03  0.00000000000E+00 0. -1.
         -3    1    6    6    0  503 -0.78662776269E+02 -0.14343673573E+03  0.25584758704E+03  0.30367732434E+03  0.00000000000E+00 0.  1.
<mgrwt>
<rscale>  0 0.20146434E+04</rscale>
<asrwt>0</asrwt>
<pdfrwt beam="1">  1        1 0.17107223E+00 0.20146434E+04</pdfrwt>
<pdfrwt beam="2">  1       -2 0.14038805E+00 0.20146434E+04</pdfrwt>
<totfact> 0.35978386E+00</totfact>
</mgrwt>
</event>
<event>
12    5  0.5197392E-008  0.3545979E+04  0.7818608E-02  0.8102979E-01
         -2   -1    0    0    0  501 -0.00000000000E+00  0.00000000000E+00  0.29439504248E+04  0.29439504248E+04  0.00000000000E+00 0.  1.
          1   -1    0    0  501    0  0.00000000000E+00 -0.00000000000E+00 -0.10677800536E+04  0.10677800536E+04  0.00000000000E+00 0. -1.
        -24    2    1    2    0    0  0.13636650053E+04 -0.90115990595E+03  0.56869089793E+03  0.17325033506E+04  0.80542533602E+02 0.  0.
        254    2    1    2    0    0 -0.13636650053E+04  0.90115990595E+03  0.13074794733E+04  0.22792271278E+04  0.90205449064E+03 0.  0.
         23    2    4    4    0    0  0.28837260763E+01 -0.11780303083E+03  0.18074500948E+03  0.23393940827E+03  0.90404747324E+02 0.  0.
         23    2    4    4    0    0 -0.13665487314E+04  0.10189629368E+04  0.11267344639E+04  0.20452877195E+04  0.89052803750E+02 0.  0.
          3    1    3    3  502    0  0.13310010502E+04 -0.86316809853E+03  0.54986390568E+03  0.16789798321E+04  0.00000000000E+00 0. -1.
         -4    1    3    3    0  502  0.32663955155E+02 -0.37991807416E+02  0.18826992257E+02  0.53523518518E+02  0.00000000000E+00 0.  1.
         13    1    5    5    0    0  0.12988029198E+02 -0.47013810472E+02  0.14698020651E+03  0.15486177186E+03  0.00000000000E+00 0.  1.
        -13    1    5    5    0    0 -0.10104303122E+02 -0.70789220355E+02  0.33764802975E+02  0.79077636408E+02  0.00000000000E+00 0. -1.
          3    1    6    6  503    0 -0.99043933436E+03  0.77208785760E+03  0.86339059373E+03  0.15239859095E+04  0.00000000000E+00 0. -1.
         -3    1    6    6    0  503 -0.37610939703E+03  0.24687507918E+03  0.26334387013E+03  0.52130181007E+03  0.00000000000E+00 0.  1.
<mgrwt>
<rscale>  0 0.35459789E+04</rscale>
<asrwt>0</asrwt>
<pdfrwt beam="1">  1        1 0.16427386E+00 0.35459789E+04</pdfrwt>
<pdfrwt beam="2">  1       -2 0.45291545E+00 0.35459789E+04</pdfrwt>
<totfact> 0.31730989E-02</totfact>
</mgrwt>
</event>
<event>
12    5  0.5197392E-008  0.2135258E+04  0.7818608E-02  0.8545869E-01
         -2   -1    0    0    0  501 -0.00000000000E+00  0.00000000000E+00  0.22482522295E+04  0.22482522295E+04  0.00000000000E+00 0.  1.
          1   -1    0    0  501    0  0.00000000000E+00 -0.00000000000E+00 -0.50698544627E+03  0.50698544627E+03  0.00000000000E+00 0. -1.
        -24    2    1    2    0    0  0.70450716603E+00  0.84584001607E+03  0.39426667975E+03  0.93639290887E+03  0.77069033429E+02 0.  0.
        254    2    1    2    0    0 -0.70450716603E+00 -0.84584001607E+03  0.13470001034E+04  0.18188447669E+04  0.88223646387E+03 0.  0.
         23    2    4    4    0    0 -0.19636131142E+03 -0.94635599395E+03  0.96490721543E+03  0.13686038867E+04  0.88787568762E+02 0.  0.
         23    2    4    4    0    0  0.19565680425E+03  0.10051597788E+03  0.38209288800E+03  0.45024088017E+03  0.91306233405E+02 0.  0.
          1    1    3    3  502    0 -0.57826515224E+00  0.76901270197E+03  0.38171015927E+03  0.85853568119E+03  0.00000000000E+00 0. -1.
         -2    1    3    3    0  502  0.12827723183E+01  0.76827314094E+02  0.12556520480E+02  0.77857227681E+02  0.00000000000E+00 0.  1.
         13    1    5    5    0    0 -0.28774949263E+02 -0.17231066161E+03  0.22418325104E+03  0.28421310993E+03  0.00000000000E+00 0.  1.
        -13    1    5    5    0    0 -0.16758636215E+03 -0.77404533234E+03  0.74072396439E+03  0.10843907768E+04  0.00000000000E+00 0. -1.
          2    1    6    6  503    0  0.17194228116E+03  0.65564332270E+02  0.24261250484E+03  0.30450559473E+03  0.00000000000E+00 0. -1.
         -2    1    6    6    0  503  0.23714523089E+02  0.34951645609E+02  0.13948038316E+03  0.14573528544E+03  0.00000000000E+00 0.  1.
<mgrwt>
<rscale>  0 0.21352575E+04</rscale>
<asrwt>0</asrwt>
<pdfrwt beam="1">  1        1 0.77997762E-01 0.21352575E+04</pdfrwt>
<pdfrwt beam="2">  1       -2 0.34588495E+00 0.21352575E+04</pdfrwt>
<totfact> 0.57740340E-01</totfact>
</mgrwt>
</event>
<event>
12    5  0.5197392E-008  0.3373346E+04  0.7818608E-02  0.8144479E-01
         -2   -1    0    0    0  501 -0.00000000000E+00  0.00000000000E+00  0.18234594264E+04  0.18234594264E+04  0.00000000000E+00 0.  1.
          1   -1    0    0  501    0  0.00000000000E+00 -0.00000000000E+00 -0.15601473992E+04  0.15601473992E+04  0.00000000000E+00 0. -1.
        -24    2    1    2    0    0  0.11860474662E+04  0.65736942635E+03  0.90957119566E+03  0.16349078208E+04  0.82223279539E+02 0.  0.
        254    2    1    2    0    0 -0.11860474662E+04 -0.65736942635E+03 -0.64625916847E+03  0.17486990048E+04  0.89523971195E+03 0.  0.
         23    2    4    4    0    0  0.78693593989E+02  0.68566825404E+02  0.27817336439E+02  0.13953743149E+03  0.88333455156E+02 0.  0.
         23    2    4    4    0    0 -0.12647410602E+04 -0.72593625175E+03 -0.67407650491E+03  0.16091615734E+04  0.92024147205E+02 0.  0.
          1    1    3    3  502    0  0.75569047146E+02  0.22256505492E+02  0.63240910355E+02  0.10102200585E+03  0.00000000000E+00 0. -1.
         -2    1    3    3    0  502  0.11104784191E+04  0.63511292086E+03  0.84633028530E+03  0.15338858150E+04  0.00000000000E+00 0.  1.
         13    1    5    5    0    0  0.31743906027E+02 -0.18618291328E+02  0.45550680169E+00  0.36803856160E+02  0.00000000000E+00 0.  1.
        -13    1    5    5    0    0  0.46949687962E+02  0.87185116731E+02  0.27361829637E+02  0.10273357533E+03  0.00000000000E+00 0. -1.
          1    1    6    6  503    0 -0.26635000222E+03 -0.19645958900E+03 -0.16072637149E+03  0.36792887939E+03  0.00000000000E+00 0. -1.
         -1    1    6    6    0  503 -0.99839105799E+03 -0.52947666275E+03 -0.51335013342E+03  0.12412326940E+04  0.00000000000E+00 0.  1.
<mgrwt>
<rscale>  0 0.33733458E+04</rscale>
<asrwt>0</asrwt>
<pdfrwt beam="1">  1        1 0.24002268E+00 0.33733458E+04</pdfrwt>
<pdfrwt beam="2">  1       -2 0.28053222E+00 0.33733458E+04</pdfrwt>
<totfact> 0.17994728E-01</totfact>
</mgrwt>
</event>
<event>
12    5  0.5197392E-008  0.1231566E+04  0.7818608E-02  0.9085667E-01
         -2   -1    0    0    0  501 -0.00000000000E+00  0.00000000000E+00  0.13835935723E+03  0.13835935723E+03  0.00000000000E+00 0.  1.
          1   -1    0    0  501    0  0.00000000000E+00 -0.00000000000E+00 -0.27406055440E+04  0.27406055440E+04  0.00000000000E+00 0. -1.
        -24    2    1    2    0    0  0.80114186364E+02  0.15245730290E+03 -0.97817212690E+02  0.21278271886E+03  0.77760956028E+02 0.  0.
        254    2    1    2    0    0 -0.80114186364E+02 -0.15245730290E+03 -0.25044289741E+04  0.26661821824E+04  0.89816559237E+03 0.  0.
         23    2    4    4    0    0  0.47753486069E+02 -0.48519821194E+03 -0.98703582456E+03  0.11047451147E+04  0.92327401601E+02 0.  0.
         23    2    4    4    0    0 -0.12786767243E+03  0.33274090904E+03 -0.15173931495E+04  0.15614370677E+04  0.92396385325E+02 0.  0.
          1    1    3    3  502    0  0.40484410034E+02  0.13488456402E+03 -0.93882206462E+02  0.16925336557E+03  0.00000000000E+00 0. -1.
         -2    1    3    3    0  502  0.39629776330E+02  0.17572738879E+02 -0.39350062279E+01  0.43529353288E+02  0.00000000000E+00 0.  1.
         13    1    5    5    0    0  0.71181562266E+02 -0.43442307334E+03 -0.86972046211E+03  0.97478402925E+03  0.00000000000E+00 0.  1.
        -13    1    5    5    0    0 -0.23428076197E+02 -0.50775138596E+02 -0.11731536245E+03  0.12996108541E+03  0.00000000000E+00 0. -1.
          1    1    6    6  503    0 -0.38289837593E+02  0.87850877194E+02 -0.25544011428E+03  0.27282510931E+03  0.00000000000E+00 0. -1.
         -1    1    6    6    0  503 -0.89577834840E+02  0.24489003185E+03 -0.12619530353E+04  0.12886119584E+04  0.00000000000E+00 0.  1.
<mgrwt>
<rscale>  0 0.12315655E+04</rscale>
<asrwt>0</asrwt>
<pdfrwt beam="1">  1        1 0.42163163E+00 0.12315655E+04</pdfrwt>
<pdfrwt beam="2">  1       -2 0.21286055E-01 0.12315655E+04</pdfrwt>
<totfact> 0.15377848E+01</totfact>
</mgrwt>
</event>
<event>
12    5  0.5197392E-008  0.2041216E+04  0.7818608E-02  0.8587590E-01
         -2   -1    0    0    0  501 -0.00000000000E+00  0.00000000000E+00  0.21465444259E+04  0.21465444259E+04  0.00000000000E+00 0.  1.
          1   -1    0    0  501    0  0.00000000000E+00 -0.00000000000E+00 -0.48526387676E+03  0.48526387676E+03  0.00000000000E+00 0. -1.
        -24    2    1    2    0    0  0.46139732405E+03 -0.31514803465E+03 -0.95703514469E+02  0.57171388794E+03  0.74106899799E+02 0.  0.
        254    2    1    2    0    0 -0.46139732405E+03  0.31514803465E+03  0.17569840636E+04  0.20600944147E+04  0.91912470503E+03 0.  0.
         23    2    4    4    0    0  0.77626773001E+02  0.42566096850E+03  0.41456622210E+03  0.60664519249E+03  0.94551896172E+02 0.  0.
         23    2    4    4    0    0 -0.53902409705E+03 -0.11051293386E+03  0.13424178415E+04  0.14534492222E+04  0.87572225326E+02 0.  0.
          3    1    3    3  502    0  0.34321727727E+03 -0.26352669058E+03 -0.93648344430E+02  0.44273516743E+03  0.00000000000E+00 0. -1.
         -4    1    3    3    0  502  0.11818004678E+03 -0.51621344068E+02 -0.20551700388E+01  0.12897872051E+03  0.00000000000E+00 0.  1.
         13    1    5    5    0    0  0.40557211550E+02  0.10996801661E+03  0.16562563070E+03  0.20290318290E+03  0.00000000000E+00 0.  1.
        -13    1    5    5    0    0  0.37069561451E+02  0.31569295189E+03  0.24894059140E+03  0.40374200959E+03  0.00000000000E+00 0. -1.
          4    1    6    6  503    0 -0.17050764996E+03 -0.54605160574E+02  0.53467718747E+03  0.56385661037E+03  0.00000000000E+00 0. -1.
         -4    1    6    6    0  503 -0.36851644709E+03 -0.55907773283E+02  0.80774065401E+03  0.88959261183E+03  0.00000000000E+00 0.  1.
<mgrwt>
<rscale>  0 0.20412158E+04</rscale>
<asrwt>0</asrwt>
<pdfrwt beam="1">  1        1 0.74655982E-01 0.20412158E+04</pdfrwt>
<pdfrwt beam="2">  1       -2 0.33023760E+00 0.20412158E+04</pdfrwt>
<totfact> 0.77454803E-01</totfact>
</mgrwt>
</event>
<event>
12    5  0.5197392E-008  0.1301155E+04  0.7818608E-02  0.9028650E-01
         -4   -1    0    0    0  501 -0.00000000000E+00  0.00000000000E+00  0.72585751651E+03  0.72585751651E+03  0.00000000000E+00 0.  1.
          1   -1    0    0  501    0  0.00000000000E+00 -0.00000000000E+00 -0.58310471404E+03  0.58310471404E+03  0.00000000000E+00 0. -1.
        -24    2    1    2    0    0 -0.23428498958E+03  0.43121951043E+02  0.27413325248E+03  0.37149552208E+03  0.78172397994E+02 0.  0.
        254    2    1    2    0    0  0.23428498958E+03 -0.43121951043E+02 -0.13138045001E+03  0.93746670847E+03  0.89712543595E+03 0.  0.
         23    2    4    4    0    0  0.11923582912E+03  0.38044650251E+03  0.11693602741E+03  0.42502008629E+03  0.89505949663E+02 0.  0.
         23    2    4    4    0    0  0.11504916046E+03 -0.42356845355E+03 -0.24831647742E+03  0.51244662218E+03  0.91070980329E+02 0.  0.
          3    1    3    3  502    0 -0.29560433527E+02 -0.33351329819E+01  0.49923750799E+01  0.30163987655E+02  0.00000000000E+00 0. -1.
         -4    1    3    3    0  502 -0.20472455605E+03  0.46457084025E+02  0.26914087740E+03  0.34133153442E+03  0.00000000000E+00 0.  1.
         13    1    5    5    0    0 -0.74331443682E+01  0.20622312752E+00  0.47770479603E+01  0.88382323115E+01  0.00000000000E+00 0. -1.
        -13    1    5    5    0    0  0.12666897349E+03  0.38024027938E+03  0.11215897945E+03  0.41618185398E+03  0.00000000000E+00 0.  1.
          4    1    6    6  503    0  0.88147794812E+02 -0.19179723391E+03 -0.15153191917E+03  0.25984251999E+03  0.00000000000E+00 0. -1.
         -4    1    6    6    0  503  0.26901365647E+02 -0.23177121965E+03 -0.96784558244E+02  0.25260410219E+03  0.00000000000E+00 0.  1.
<mgrwt>
<rscale>  0 0.13011548E+04</rscale>
<asrwt>0</asrwt>
<pdfrwt beam="1">  1        1 0.89708418E-01 0.13011548E+04</pdfrwt>
<pdfrwt beam="2">  1       -4 0.11167039E+00 0.13011548E+04</pdfrwt>
<totfact> 0.10665337E+01</totfact>
</mgrwt>
</event>
<event>
12    5  0.5197392E-008  0.1307405E+04  0.7818608E-02  0.9023713E-01
          1   -1    0    0  501    0  0.00000000000E+00  0.00000000000E+00  0.35387929685E+03  0.35387929685E+03  0.00000000000E+00 0. -1.
         -2   -1    0    0    0  501 -0.00000000000E+00 -0.00000000000E+00 -0.12075504437E+04  0.12075504437E+04  0.00000000000E+00 0.  1.
        -24    2    1    2    0    0 -0.12704144754E+03 -0.11695458235E+02 -0.60790522306E+03  0.62620110457E+03  0.79389860873E+02 0.  0.
        254    2    1    2    0    0  0.12704144754E+03  0.11695458235E+02 -0.24576592383E+03  0.93522863602E+03  0.89329468776E+03 0.  0.
         23    2    4    4    0    0  0.92575054337E+02  0.25959530544E+03  0.24252441870E+03  0.37883869174E+03  0.93492231777E+02 0.  0.
         23    2    4    4    0    0  0.34466393205E+02 -0.24789984721E+03 -0.48829034254E+03  0.55638994427E+03  0.92195688453E+02 0.  0.
          1    1    3    3  502    0 -0.10847795038E+03 -0.40665715271E+02 -0.46633397860E+03  0.48050863230E+03  0.00000000000E+00 0. -1.
         -2    1    3    3    0  502 -0.18563497161E+02  0.28970257036E+02 -0.14157124446E+03  0.14569247228E+03  0.00000000000E+00 0.  1.
         13    1    5    5    0    0  0.36221020211E+02  0.12546344379E+03  0.17523681722E+03  0.21854285653E+03  0.00000000000E+00 0.  1.
        -13    1    5    5    0    0  0.56354034125E+02  0.13413186166E+03  0.67287601485E+02  0.16029583521E+03  0.00000000000E+00 0. -1.
          3    1    6    6  503    0  0.54076766053E+02 -0.20593756053E+03 -0.34124654108E+03  0.40222354141E+03  0.00000000000E+00 0. -1.
         -3    1    6    6    0  503 -0.19610372848E+02 -0.41962286682E+02 -0.14704380145E+03  0.15416640286E+03  0.00000000000E+00 0.  1.
<mgrwt>
<rscale>  0 0.13074052E+04</rscale>
<asrwt>0</asrwt>
<pdfrwt beam="1">  1        1 0.54442968E-01 0.13074052E+04</pdfrwt>
<pdfrwt beam="2">  1       -2 0.18577699E+00 0.13074052E+04</pdfrwt>
<totfact> 0.10009853E+01</totfact>
</mgrwt>
</event>
<event>
12    5  0.5197392E-008  0.1501327E+04  0.7818608E-02  0.8883571E-01
          1   -1    0    0  501    0  0.00000000000E+00  0.00000000000E+00  0.13303473218E+04  0.13303473218E+04  0.00000000000E+00 0. -1.
         -2   -1    0    0    0  501 -0.00000000000E+00 -0.00000000000E+00 -0.42357061686E+03  0.42357061686E+03  0.00000000000E+00 0.  1.
        -24    2    1    2    0    0 -0.42018785315E+03  0.21632958413E+03  0.22250884925E+03  0.52842455076E+03  0.79787197867E+02 0.  0.
        254    2    1    2    0    0  0.42018785315E+03 -0.21632958413E+03  0.68426785568E+03  0.12254933879E+04  0.90014178023E+03 0.  0.
         23    2    4    4    0    0  0.31583395266E+03 -0.85885420142E+02  0.88493567266E+03  0.94801298534E+03  0.92141654894E+02 0.  0.
         23    2    4    4    0    0  0.10435390049E+03 -0.13044416399E+03 -0.20066781698E+03  0.27748040255E+03  0.93927549511E+02 0.  0.
          1    1    3    3  502    0 -0.15678439676E+02 -0.41324494371E+01 -0.12710032764E+01  0.16263642223E+02  0.00000000000E+00 0. -1.
         -2    1    3    3    0  502 -0.40450941347E+03  0.22046203357E+03  0.22377985252E+03  0.51216090853E+03  0.00000000000E+00 0.  1.
         13    1    5    5    0    0  0.23652869581E+03 -0.59819825763E+02  0.53102284368E+03  0.58438813815E+03  0.00000000000E+00 0. -1.
        -13    1    5    5    0    0  0.79305256848E+02 -0.26065594379E+02  0.35391282898E+03  0.36362484719E+03  0.00000000000E+00 0.  1.
          2    1    6    6  503    0 -0.77145442948E+01 -0.35434484408E+02 -0.78237545873E+02  0.86233580832E+02  0.00000000000E+00 0. -1.
         -2    1    6    6    0  503  0.11206844479E+03 -0.95009679585E+02 -0.12243027111E+03  0.19124682172E+03  0.00000000000E+00 0.  1.
<mgrwt>
<rscale>  0 0.15013275E+04</rscale>
<asrwt>0</asrwt>
<pdfrwt beam="1">  1        1 0.20466882E+00 0.15013275E+04</pdfrwt>
<pdfrwt beam="2">  1       -2 0.65164711E-01 0.15013275E+04</pdfrwt>
<totfact> 0.15854532E+01</totfact>
</mgrwt>
</event>
<event>
12    5  0.5197392E-008  0.2413041E+04  0.7818608E-02  0.8434637E-01
          1   -1    0    0  501    0  0.00000000000E+00  0.00000000000E+00  0.19046822341E+04  0.19046822341E+04  0.00000000000E+00 0. -1.
         -2   -1    0    0    0  501 -0.00000000000E+00 -0.00000000000E+00 -0.76427012170E+03  0.76427012170E+03  0.00000000000E+00 0.  1.
        -24    2    1    2    0    0 -0.14553415657E+03  0.68835747077E+03  0.13369126956E+04  0.15128122689E+04  0.79051925151E+02 0.  0.
        254    2    1    2    0    0  0.14553415657E+03 -0.68835747077E+03 -0.19650058315E+03  0.11561400870E+04  0.89612009422E+03 0.  0.
         23    2    4    4    0    0 -0.14850413162E+03 -0.10395121576E+03  0.27651596536E+03  0.34390305041E+03  0.94598607900E+02 0.  0.
         23    2    4    4    0    0  0.29403828819E+03 -0.58440625501E+03 -0.47301654851E+03  0.81223703658E+03  0.89415673189E+02 0.  0.
          1    1    3    3  502    0 -0.12139432114E+03  0.65255468735E+03  0.12334656991E+04  0.14007147575E+04  0.00000000000E+00 0. -1.
         -2    1    3    3    0  502 -0.24139835434E+02  0.35802783426E+02  0.10344699654E+03  0.11209751134E+03  0.00000000000E+00 0.  1.
         13    1    5    5    0    0 -0.12691115217E+03 -0.35363360290E+02  0.16386466043E+03  0.21025849503E+03  0.00000000000E+00 0.  1.
        -13    1    5    5    0    0 -0.21592979450E+02 -0.68587855473E+02  0.11265130493E+03  0.13364455538E+03  0.00000000000E+00 0. -1.
          2    1    6    6  503    0  0.28727047674E+03 -0.56545148327E+03 -0.43455873812E+03  0.76883093305E+03  0.00000000000E+00 0.  1.
         -2    1    6    6    0  503  0.67678114513E+01 -0.18954771740E+02 -0.38457810395E+02  0.43406103533E+02  0.00000000000E+00 0. -1.
<mgrwt>
<rscale>  0 0.24130410E+04</rscale>
<asrwt>0</asrwt>
<pdfrwt beam="1">  1        1 0.29302803E+00 0.24130410E+04</pdfrwt>
<pdfrwt beam="2">  1       -2 0.11758002E+00 0.24130410E+04</pdfrwt>
<totfact> 0.15189822E+00</totfact>
</mgrwt>
</event>
<event>
12    5  0.5197392E-008  0.1155658E+04  0.7818608E-02  0.9152579E-01
          1   -1    0    0  501    0  0.00000000000E+00  0.00000000000E+00  0.13166371749E+04  0.13166371749E+04  0.00000000000E+00 0. -1.
         -2   -1    0    0    0  501 -0.00000000000E+00 -0.00000000000E+00 -0.25359037239E+03  0.25359037239E+03  0.00000000000E+00 0.  1.
        -24    2    1    2    0    0 -0.53641465792E+02 -0.13994976694E+03 -0.52078168427E+01  0.16883012731E+03  0.77544480227E+02 0.  0.
        254    2    1    2    0    0  0.53641465792E+02  0.13994976694E+03  0.10682546193E+04  0.14013974200E+04  0.89458563192E+03 0.  0.
         23    2    4    4    0    0  0.37638596897E+03  0.29141461559E+03  0.35975943122E+03  0.60355012544E+03  0.90868199850E+02 0.  0.
         23    2    4    4    0    0 -0.32274450318E+03 -0.15146484866E+03  0.70849518812E+03  0.79784729454E+03  0.86540505540E+02 0.  0.
          3    1    3    3  502    0  0.37912554109E+01  0.74483238355E+01 -0.65721443669E+01  0.10632225878E+02  0.00000000000E+00 0. -1.
         -2    1    3    3    0  502 -0.57432721203E+02 -0.14739809077E+03  0.13643275242E+01  0.15819790143E+03  0.00000000000E+00 0.  1.
         13    1    5    5    0    0  0.11792256527E+03  0.70424497368E+02  0.58683875605E+02  0.14936244001E+03  0.00000000000E+00 0.  1.
        -13    1    5    5    0    0  0.25846340370E+03  0.22099011823E+03  0.30107555562E+03  0.45418768543E+03  0.00000000000E+00 0. -1.
          2    1    6    6  503    0 -0.26929647280E+03 -0.10665876884E+03  0.49811395570E+03  0.57620673034E+03  0.00000000000E+00 0. -1.
         -2    1    6    6    0  503 -0.53448030378E+02 -0.44806079814E+02  0.21038123243E+03  0.22164056419E+03  0.00000000000E+00 0.  1.
<mgrwt>
<rscale>  0 0.11556583E+04</rscale>
<asrwt>0</asrwt>
<pdfrwt beam="1">  1        1 0.20255956E+00 0.11556583E+04</pdfrwt>
<pdfrwt beam="2">  1       -2 0.39013904E-01 0.11556583E+04</pdfrwt>
<totfact> 0.47586750E+01</totfact>
</mgrwt>
</event>
<event>
12    5  0.5197392E-008  0.2734673E+04  0.7818608E-02  0.8323842E-01
          1   -1    0    0  501    0  0.00000000000E+00  0.00000000000E+00  0.24676096291E+04  0.24676096291E+04  0.00000000000E+00 0. -1.
         -2   -1    0    0    0  501 -0.00000000000E+00 -0.00000000000E+00 -0.75765991827E+03  0.75765991827E+03  0.00000000000E+00 0.  1.
        -24    2    1    2    0    0 -0.14773777233E+03  0.11123228919E+04  0.12957459362E+04  0.17159469801E+04  0.80173825433E+02 0.  0.
        254    2    1    2    0    0  0.14773777233E+03 -0.11123228919E+04  0.41420377470E+03  0.15093225673E+04  0.92054395880E+03 0.  0.
         23    2    4    4    0    0 -0.18763342305E+03 -0.10777496859E+04  0.26048112225E+03  0.11283475884E+04  0.92559052912E+02 0.  0.
         23    2    4    4    0    0  0.33537119538E+03 -0.34573205987E+02  0.15372265245E+03  0.38097497895E+03  0.88555832345E+02 0.  0.
          3    1    3    3  502    0 -0.63214748269E+02  0.72379316078E+03  0.86784270157E+03  0.11318231305E+04  0.00000000000E+00 0. -1.
         -4    1    3    3    0  502 -0.84523024060E+02  0.38852973107E+03  0.42790323459E+03  0.58412384962E+03  0.00000000000E+00 0.  1.
         13    1    5    5    0    0 -0.14474967162E+03 -0.94666925558E+03  0.20310768337E+03  0.97897286885E+03  0.00000000000E+00 0. -1.
        -13    1    5    5    0    0 -0.42883751429E+02 -0.13108043029E+03  0.57373438873E+02  0.14937471951E+03  0.00000000000E+00 0.  1.
          3    1    6    6  503    0  0.59511166687E+02  0.26667717579E+02  0.39098697434E+02  0.76035874838E+02  0.00000000000E+00 0. -1.
         -3    1    6    6    0  503  0.27586002869E+03 -0.61240923565E+02  0.11462395502E+03  0.30493910411E+03  0.00000000000E+00 0.  1.
<mgrwt>
<rscale>  0 0.27346729E+04</rscale>
<asrwt>0</asrwt>
<pdfrwt beam="1">  1        1 0.37963225E+00 0.27346729E+04</pdfrwt>
<pdfrwt beam="2">  1       -2 0.11656307E+00 0.27346729E+04</pdfrwt>
<totfact> 0.62293215E-01</totfact>
</mgrwt>
</event>
<event>
12    5  0.5197392E-008  0.1981027E+04  0.7818608E-02  0.8615543E-01
          1   -1    0    0  501    0  0.00000000000E+00  0.00000000000E+00  0.21482683998E+04  0.21482683998E+04  0.00000000000E+00 0. -1.
         -2   -1    0    0    0  501 -0.00000000000E+00 -0.00000000000E+00 -0.45670141593E+03  0.45670141593E+03  0.00000000000E+00 0.  1.
        -24    2    1    2    0    0  0.24833371214E+03 -0.74122511651E+03  0.60485676807E+03  0.99165129901E+03  0.80226448420E+02 0.  0.
        254    2    1    2    0    0 -0.24833371214E+03  0.74122511651E+03  0.10867102158E+04  0.16133185167E+04  0.90042947383E+03 0.  0.
         23    2    4    4    0    0 -0.15391137228E+03  0.55490648467E+03  0.89212409728E+02  0.59010462595E+03  0.93030630803E+02 0.  0.
         23    2    4    4    0    0 -0.94422339860E+02  0.18631863184E+03  0.99749780609E+03  0.10232138908E+04  0.91293933529E+02 0.  0.
          1    1    3    3  502    0  0.37788700099E+02 -0.14799546050E+03  0.82124224323E+02  0.17342153962E+03  0.00000000000E+00 0. -1.
         -2    1    3    3    0  502  0.21054501204E+03 -0.59322965601E+03  0.52273254374E+03  0.81822975939E+03  0.00000000000E+00 0.  1.
         13    1    5    5    0    0 -0.60843628254E+02  0.12684993019E+03  0.53783671389E+02  0.15061718095E+03  0.00000000000E+00 0. -1.
        -13    1    5    5    0    0 -0.93067744022E+02  0.42805655448E+03  0.35428738340E+02  0.43948744500E+03  0.00000000000E+00 0.  1.
          2    1    6    6  503    0 -0.18697864526E+02  0.11929082846E+03  0.65748559674E+03  0.66848128008E+03  0.00000000000E+00 0. -1.
         -2    1    6    6    0  503 -0.75724475334E+02  0.67027803374E+02  0.34001220935E+03  0.35473261070E+03  0.00000000000E+00 0.  1.
<mgrwt>
<rscale>  0 0.19810272E+04</rscale>
<asrwt>0</asrwt>
<pdfrwt beam="1">  1        1 0.33050283E+00 0.19810272E+04</pdfrwt>
<pdfrwt beam="2">  1       -2 0.70261757E-01 0.19810272E+04</pdfrwt>
<totfact> 0.35555857E+00</totfact>
</mgrwt>
</event>
<event>
12    5  0.5197392E-008  0.1356978E+04  0.7818608E-02  0.8985562E-01
          1   -1    0    0  501    0  0.00000000000E+00  0.00000000000E+00  0.14260744463E+04  0.14260744463E+04  0.00000000000E+00 0. -1.
         -2   -1    0    0    0  501 -0.00000000000E+00 -0.00000000000E+00 -0.32280746947E+03  0.32280746947E+03  0.00000000000E+00 0.  1.
        -24    2    1    2    0    0 -0.67408182278E+02  0.17496429989E+03  0.69331111166E+03  0.72258661323E+03  0.79339440297E+02 0.  0.
        254    2    1    2    0    0  0.67408182278E+02 -0.17496429989E+03  0.40995586512E+03  0.10262953025E+04  0.92198799737E+03 0.  0.
         23    2    4    4    0    0 -0.48515305004E+02  0.29666924171E+03  0.42914379205E+03  0.53184596388E+03  0.91265334314E+02 0.  0.
         23    2    4    4    0    0  0.11592348728E+03 -0.47163354160E+03 -0.19187926925E+02  0.49444933861E+03  0.90749762775E+02 0.  0.
          1    1    3    3  502    0 -0.38435126153E+02  0.14964274594E+03  0.43927904424E+03  0.46565683614E+03  0.00000000000E+00 0. -1.
         -2    1    3    3    0  502 -0.28973056126E+02  0.25321553951E+02  0.25403206742E+03  0.25692977709E+03  0.00000000000E+00 0.  1.
         13    1    5    5    0    0 -0.63735704004E+02  0.19140833273E+03  0.22892898691E+03  0.30513582361E+03  0.00000000000E+00 0. -1.
        -13    1    5    5    0    0  0.15220399000E+02  0.10526090899E+03  0.20021480514E+03  0.22671014028E+03  0.00000000000E+00 0.  1.
          2    1    6    6  503    0  0.11467990235E+03 -0.30189179703E+03  0.50627120719E+01  0.32297951664E+03  0.00000000000E+00 0. -1.
         -2    1    6    6    0  503  0.12435849338E+01 -0.16974174457E+03 -0.24250638997E+02  0.17146982196E+03  0.00000000000E+00 0.  1.
<mgrwt>
<rscale>  0 0.13569782E+04</rscale>
<asrwt>0</asrwt>
<pdfrwt beam="1">  1        1 0.21939607E+00 0.13569782E+04</pdfrwt>
<pdfrwt beam="2">  1       -2 0.49662688E-01 0.13569782E+04</pdfrwt>
<totfact> 0.24256693E+01</totfact>
</mgrwt>
</event>
<event>
12    5  0.5197392E-008  0.4820333E+04  0.7818608E-02  0.7856836E-01
         -2   -1    0    0    0  501 -0.00000000000E+00  0.00000000000E+00  0.25173455201E+04  0.25173455201E+04  0.00000000000E+00 0.  1.
          1   -1    0    0  501    0  0.00000000000E+00 -0.00000000000E+00 -0.23075506985E+04  0.23075506985E+04  0.00000000000E+00 0. -1.
        -24    2    1    2    0    0  0.89019977629E+03 -0.96553844180E+02  0.22538677362E+04  0.24265610551E+04  0.80625649056E+02 0.  0.
        254    2    1    2    0    0 -0.89019977629E+03  0.96553844180E+02 -0.20440729146E+04  0.23983351636E+04  0.87863484458E+03 0.  0.
         23    2    4    4    0    0 -0.97536241610E+03  0.29139777033E+03 -0.16791719596E+04  0.19661906629E+04  0.10021352026E+03 0.  0.
         23    2    4    4    0    0  0.85162639811E+02 -0.19484392615E+03 -0.36490095499E+03  0.43214450067E+03  0.91538689823E+02 0.  0.
          1    1    3    3  502    0  0.38045512286E+03 -0.41211419797E+02  0.85690209011E+03  0.93846985762E+03  0.00000000000E+00 0. -1.
         -2    1    3    3    0  502  0.50974465342E+03 -0.55342424383E+02  0.13969656461E+04  0.14880911974E+04  0.00000000000E+00 0.  1.
         13    1    5    5    0    0 -0.17690219967E+03  0.62193125463E+02 -0.24118167473E+03  0.30550118384E+03  0.00000000000E+00 0.  1.
        -13    1    5    5    0    0 -0.79846021643E+03  0.22920464486E+03 -0.14379902849E+04  0.16606894791E+04  0.00000000000E+00 0. -1.
          3    1    6    6  503    0  0.65235447403E+02 -0.11330641023E+03 -0.13745575120E+03  0.18970527071E+03  0.00000000000E+00 0. -1.
         -3    1    6    6    0  503  0.19927192409E+02 -0.81537515919E+02 -0.22744520379E+03  0.24243922997E+03  0.00000000000E+00 0.  1.
<mgrwt>
<rscale>  0 0.48203329E+04</rscale>
<asrwt>0</asrwt>
<pdfrwt beam="1">  1        1 0.35500780E+00 0.48203329E+04</pdfrwt>
<pdfrwt beam="2">  1       -2 0.38728393E+00 0.48203329E+04</pdfrwt>
<totfact> 0.10634152E-02</totfact>
</mgrwt>
</event>
<event>
12    5  0.5197392E-008  0.1135893E+04  0.7818608E-02  0.9170898E-01
         -2   -1    0    0    0  501 -0.00000000000E+00  0.00000000000E+00  0.18250272113E+03  0.18250272113E+03  0.00000000000E+00 0.  1.
          1   -1    0    0  501    0  0.00000000000E+00 -0.00000000000E+00 -0.17674418420E+04  0.17674418420E+04  0.00000000000E+00 0. -1.
        -24    2    1    2    0    0  0.13282558298E+03  0.83160377741E+02 -0.49476619186E+03  0.52584390010E+03  0.84616421234E+02 0.  0.
        254    2    1    2    0    0 -0.13282558298E+03 -0.83160377741E+02 -0.10901729290E+04  0.14241006631E+04  0.90278867927E+03 0.  0.
         23    2    4    4    0    0 -0.13252666412E+02  0.38533561964E+03 -0.66844042207E+03  0.77672466633E+03  0.88484103082E+02 0.  0.
         23    2    4    4    0    0 -0.11957291657E+03 -0.46849599738E+03 -0.42173250696E+03  0.64737599673E+03  0.86320285982E+02 0.  0.
          3    1    3    3  502    0  0.13037148371E+03  0.43923191172E+02 -0.35741554173E+03  0.38297759720E+03  0.00000000000E+00 0. -1.
         -4    1    3    3    0  502  0.24540992790E+01  0.39237186569E+02 -0.13735065013E+03  0.14286630290E+03  0.00000000000E+00 0.  1.
         13    1    5    5    0    0  0.98500219298E+01  0.34343872204E+03 -0.54413246622E+03  0.64352724847E+03  0.00000000000E+00 0. -1.
        -13    1    5    5    0    0 -0.23102688342E+02  0.41896897601E+02 -0.12430795585E+03  0.13319741786E+03  0.00000000000E+00 0.  1.
          1    1    6    6  503    0 -0.13105827279E+03 -0.42299351236E+03 -0.39479640253E+03  0.59326552387E+03  0.00000000000E+00 0. -1.
         -1    1    6    6    0  503  0.11485356219E+02 -0.45502485027E+02 -0.26936104431E+02  0.54110472860E+02  0.00000000000E+00 0.  1.
<mgrwt>
<rscale>  0 0.11358925E+04</rscale>
<asrwt>0</asrwt>
<pdfrwt beam="1">  1        1 0.27191412E+00 0.11358925E+04</pdfrwt>
<pdfrwt beam="2">  1       -2 0.28077343E-01 0.11358925E+04</pdfrwt>
<totfact> 0.43425696E+01</totfact>
</mgrwt>
</event>
<event>
12    5  0.5197392E-008  0.1462418E+04  0.7818608E-02  0.8909836E-01
          1   -1    0    0  501    0  0.00000000000E+00  0.00000000000E+00  0.60335537841E+03  0.60335537841E+03  0.00000000000E+00 0. -1.
         -4   -1    0    0    0  501 -0.00000000000E+00 -0.00000000000E+00 -0.88615523340E+03  0.88615523340E+03  0.00000000000E+00 0.  1.
        -24    2    1    2    0    0 -0.29114700576E+03 -0.25050661462E+03 -0.32815279711E+03  0.51149379534E+03  0.80134271660E+02 0.  0.
        254    2    1    2    0    0  0.29114700576E+03  0.25050661462E+03  0.45352942114E+02  0.97801681647E+03  0.89829831404E+03 0.  0.
         23    2    4    4    0    0  0.23220730542E+03  0.50661825305E+03  0.26496244083E+03  0.62400399651E+03  0.92701702233E+02 0.  0.
         23    2    4    4    0    0  0.58939700344E+02 -0.25611163843E+03 -0.21960949871E+03  0.35401281996E+03  0.89608510491E+02 0.  0.
          3    1    3    3  502    0 -0.15878604758E+03 -0.17712214453E+03 -0.16850648079E+03  0.29151277341E+03  0.00000000000E+00 0. -1.
         -4    1    3    3    0  502 -0.13236095818E+03 -0.73384470091E+02 -0.15964631632E+03  0.21998102194E+03  0.00000000000E+00 0.  1.
         13    1    5    5    0    0  0.20281486014E+02  0.14127188912E+02  0.29332821780E+02  0.38357927148E+02  0.00000000000E+00 0.  1.
        -13    1    5    5    0    0  0.21192581940E+03  0.49249106414E+03  0.23562961905E+03  0.58564606936E+03  0.00000000000E+00 0. -1.
          2    1    6    6  503    0 -0.87260692080E+01 -0.14841417425E+03 -0.98170444359E+02  0.17815820932E+03  0.00000000000E+00 0. -1.
         -2    1    6    6    0  503  0.67665769552E+02 -0.10769746418E+03 -0.12143905435E+03  0.17585461064E+03  0.00000000000E+00 0.  1.
<mgrwt>
<rscale>  0 0.14624179E+04</rscale>
<asrwt>0</asrwt>
<pdfrwt beam="1">  1        1 0.92823905E-01 0.14624179E+04</pdfrwt>
<pdfrwt beam="2">  1       -4 0.13633157E+00 0.14624179E+04</pdfrwt>
<totfact> 0.60709565E+00</totfact>
</mgrwt>
</event>
<event>
12    5  0.5197392E-008  0.1781576E+04  0.7818608E-02  0.8716159E-01
         -4   -1    0    0    0  501 -0.00000000000E+00  0.00000000000E+00  0.54156352086E+03  0.54156352086E+03  0.00000000000E+00 0.  1.
          1   -1    0    0  501    0  0.00000000000E+00 -0.00000000000E+00 -0.14652087341E+04  0.14652087341E+04  0.00000000000E+00 0. -1.
        -24    2    1    2    0    0 -0.14193770249E+03 -0.40155105153E+03 -0.91500629241E+03  0.10123923899E+04  0.79449842916E+02 0.  0.
        254    2    1    2    0    0  0.14193770249E+03  0.40155105153E+03 -0.86389208136E+01  0.99437986508E+03  0.89851384338E+03 0.  0.
         23    2    4    4    0    0  0.45979243123E+03 -0.71566902785E+01 -0.10908446483E+02  0.46892636028E+03  0.91173675643E+02 0.  0.
         23    2    4    4    0    0 -0.31785472874E+03  0.40870774181E+03  0.22695256693E+01  0.52545350480E+03  0.89568901719E+02 0.  0.
          1    1    3    3  502    0 -0.12072492738E+03 -0.29865390638E+03 -0.75649929078E+03  0.82222858187E+03  0.00000000000E+00 0. -1.
         -2    1    3    3    0  502 -0.21212775107E+02 -0.10289714515E+03 -0.15850700162E+03  0.19016380799E+03  0.00000000000E+00 0.  1.
         13    1    5    5    0    0  0.27766766126E+03 -0.32098932214E+02  0.28367258064E+02  0.28095261680E+03  0.00000000000E+00 0. -1.
        -13    1    5    5    0    0  0.18212476997E+03  0.24942241936E+02 -0.39275704547E+02  0.18797374348E+03  0.00000000000E+00 0.  1.
          2    1    6    6  503    0 -0.16219823149E+03  0.25140879406E+03 -0.34323861201E+02  0.30115241237E+03  0.00000000000E+00 0. -1.
         -2    1    6    6    0  503 -0.15565649725E+03  0.15729894775E+03  0.36593386871E+02  0.22430109243E+03  0.00000000000E+00 0.  1.
<mgrwt>
<rscale>  0 0.17815764E+04</rscale>
<asrwt>0</asrwt>
<pdfrwt beam="1">  1        1 0.22541673E+00 0.17815764E+04</pdfrwt>
<pdfrwt beam="2">  1       -4 0.83317465E-01 0.17815764E+04</pdfrwt>
<totfact> 0.40494230E+00</totfact>
</mgrwt>
</event>
<event>
12    5  0.5197392E-008  0.1866730E+04  0.7818608E-02  0.8671597E-01
          1   -1    0    0  501    0  0.00000000000E+00  0.00000000000E+00  0.15469853368E+04  0.15469853368E+04  0.00000000000E+00 0. -1.
         -2   -1    0    0    0  501 -0.00000000000E+00 -0.00000000000E+00 -0.56314038544E+03  0.56314038544E+03  0.00000000000E+00 0.  1.
        -24    2    1    2    0    0  0.58583306121E+03 -0.17589930259E+01 -0.40207302513E+02  0.59235065093E+03  0.77840842873E+02 0.  0.
        254    2    1    2    0    0 -0.58583306121E+03  0.17589930259E+01  0.10240522538E+04  0.15177750713E+04  0.95485846006E+03 0.  0.
         23    2    4    4    0    0  0.20535497081E+03  0.18412941724E+03  0.17227706870E+03  0.33763872942E+03  0.90808682824E+02 0.  0.
         23    2    4    4    0    0 -0.79118803202E+03 -0.18237042421E+03  0.85177518515E+03  0.11801363419E+04  0.89237580122E+02 0.  0.
          3    1    3    3  502    0  0.27509039513E+03 -0.23786798746E+02 -0.50317533954E+02  0.28066419706E+03  0.00000000000E+00 0. -1.
         -4    1    3    3    0  502  0.31074266609E+03  0.22027805720E+02  0.10110231441E+02  0.31168645388E+03  0.00000000000E+00 0.  1.
         13    1    5    5    0    0  0.12791865908E+03  0.73267909674E+02  0.50983269273E+02  0.15598289546E+03  0.00000000000E+00 0. -1.
        -13    1    5    5    0    0  0.77436311728E+02  0.11086150757E+03  0.12129379943E+03  0.18165583397E+03  0.00000000000E+00 0.  1.
          2    1    6    6  503    0 -0.69216689863E+03 -0.13017379493E+03  0.74991350891E+03  0.10287907967E+04  0.00000000000E+00 0. -1.
         -2    1    6    6    0  503 -0.99021133394E+02 -0.52196629279E+02  0.10186167623E+03  0.15134554520E+03  0.00000000000E+00 0.  1.
<mgrwt>
<rscale>  0 0.18667297E+04</rscale>
<asrwt>0</asrwt>
<pdfrwt beam="1">  1        1 0.23799774E+00 0.18667297E+04</pdfrwt>
<pdfrwt beam="2">  1       -2 0.86636983E-01 0.18667297E+04</pdfrwt>
<totfact> 0.57656757E+00</totfact>
</mgrwt>
</event>
<event>
12    5  0.5197392E-008  0.2303919E+04  0.7818608E-02  0.8476377E-01
          1   -1    0    0  501    0  0.00000000000E+00  0.00000000000E+00  0.64359325808E+03  0.64359325808E+03  0.00000000000E+00 0. -1.
         -2   -1    0    0    0  501 -0.00000000000E+00 -0.00000000000E+00 -0.20618779830E+04  0.20618779830E+04  0.00000000000E+00 0.  1.
        -24    2    1    2    0    0  0.43708236689E+03  0.11828575912E+03 -0.16209109133E+04  0.16852998753E+04  0.88605667632E+02 0.  0.
        254    2    1    2    0    0 -0.43708236689E+03 -0.11828575912E+03  0.20262618843E+03  0.10201713658E+04  0.89143688902E+03 0.  0.
         23    2    4    4    0    0 -0.33646781208E+03 -0.48749295171E+03  0.56916691323E+02  0.60222215083E+03  0.92585326384E+02 0.  0.
         23    2    4    4    0    0 -0.10061455481E+03  0.36920719259E+03  0.14570949711E+03  0.41794921498E+03  0.83743949342E+02 0.  0.
          1    1    3    3  502    0  0.20875078958E+03  0.22972986079E+02 -0.63555826789E+03  0.66935712599E+03  0.00000000000E+00 0. -1.
         -2    1    3    3    0  502  0.22833157732E+03  0.95312773040E+02 -0.98535264544E+03  0.10159427493E+04  0.00000000000E+00 0.  1.
         13    1    5    5    0    0 -0.31635607185E+03 -0.46553496519E+03  0.74310550521E+02  0.56773763829E+03  0.00000000000E+00 0.  1.
        -13    1    5    5    0    0 -0.20111740231E+02 -0.21957986514E+02 -0.17393859198E+02  0.34484512534E+02  0.00000000000E+00 0. -1.
          1    1    6    6  503    0  0.13998252796E+02  0.31978604803E+02  0.63386335798E+01  0.35479015237E+02  0.00000000000E+00 0. -1.
         -1    1    6    6    0  503 -0.11461280761E+03  0.33722858779E+03  0.13937086353E+03  0.38247019974E+03  0.00000000000E+00 0.  1.
<mgrwt>
<rscale>  0 0.23039191E+04</rscale>
<asrwt>0</asrwt>
<pdfrwt beam="1">  1        1 0.99014347E-01 0.23039191E+04</pdfrwt>
<pdfrwt beam="2">  1       -2 0.31721200E+00 0.23039191E+04</pdfrwt>
<totfact> 0.61000671E-01</totfact>
</mgrwt>
</event>
<event>
12    5  0.5197392E-008  0.3984665E+04  0.7818608E-02  0.8007647E-01
         -2   -1    0    0    0  501 -0.00000000000E+00  0.00000000000E+00  0.11758915695E+04  0.11758915695E+04  0.00000000000E+00 0.  1.
          1   -1    0    0  501    0  0.00000000000E+00 -0.00000000000E+00 -0.33756412230E+04  0.33756412230E+04  0.00000000000E+00 0. -1.
        -24    2    1    2    0    0  0.10915374862E+04  0.30297886459E+03  0.68947464690E+03  0.13285673381E+04  0.80408998145E+02 0.  0.
        254    2    1    2    0    0 -0.10915374862E+04 -0.30297886459E+03 -0.28892243005E+04  0.32229654544E+04  0.86984997887E+03 0.  0.
         23    2    4    4    0    0 -0.35870765381E+03 -0.11881748124E+03 -0.20644496475E+04  0.21007355387E+04  0.91371121078E+02 0.  0.
         23    2    4    4    0    0 -0.73282983236E+03 -0.18416138335E+03 -0.82477465299E+03  0.11222299157E+04  0.90508437124E+02 0.  0.
          1    1    3    3  502    0  0.33194072117E+02  0.17167371842E+02  0.95326609372E+01  0.38567300971E+02  0.00000000000E+00 0. -1.
         -2    1    3    3    0  502  0.10583434141E+04  0.28581149275E+03  0.67994198596E+03  0.12900000371E+04  0.00000000000E+00 0.  1.
         13    1    5    5    0    0 -0.14600189190E+03 -0.58511487056E+01 -0.68390531956E+03  0.69934059978E+03  0.00000000000E+00 0. -1.
        -13    1    5    5    0    0 -0.21270576191E+03 -0.11296633254E+03 -0.13805443279E+04  0.14013949389E+04  0.00000000000E+00 0.  1.
          2    1    6    6  503    0 -0.41162559786E+03 -0.63442301544E+02 -0.41831129343E+03  0.59029221293E+03  0.00000000000E+00 0.  1.
         -2    1    6    6    0  503 -0.32120423450E+03 -0.12071908181E+03 -0.40646335956E+03  0.53193770278E+03  0.00000000000E+00 0. -1.
<mgrwt>
<rscale>  0 0.39846646E+04</rscale>
<asrwt>0</asrwt>
<pdfrwt beam="1">  1        1 0.51932942E+00 0.39846646E+04</pdfrwt>
<pdfrwt beam="2">  1       -2 0.18090639E+00 0.39846646E+04</pdfrwt>
<totfact> 0.38507293E-02</totfact>
</mgrwt>
</event>
<event>
12    5  0.5197392E-008  0.2930863E+04  0.7818608E-02  0.8263754E-01
         -2   -1    0    0    0  501 -0.00000000000E+00  0.00000000000E+00  0.10798925429E+04  0.10798925429E+04  0.00000000000E+00 0.  1.
          1   -1    0    0  501    0  0.00000000000E+00 -0.00000000000E+00 -0.19886141865E+04  0.19886141865E+04  0.00000000000E+00 0. -1.
        -24    2    1    2    0    0  0.86738795792E+03  0.79045441095E+03 -0.10524173472E+04  0.15784471944E+04  0.82056246048E+02 0.  0.
        254    2    1    2    0    0 -0.86738795792E+03 -0.79045441095E+03  0.14369570355E+03  0.14900595350E+04  0.90688969419E+03 0.  0.
         23    2    4    4    0    0 -0.51374547617E+03 -0.82421952372E+03 -0.18980870443E+03  0.99388649027E+03  0.92253854649E+02 0.  0.
         23    2    4    4    0    0 -0.35364248174E+03  0.33765112773E+02  0.33350440798E+03  0.49617304477E+03  0.93591732967E+02 0.  0.
          1    1    3    3  502    0  0.76155356496E+03  0.71074394159E+03 -0.96283694237E+03  0.14185118119E+04  0.00000000000E+00 0. -1.
         -2    1    3    3    0  502  0.10583439295E+03  0.79710469357E+02 -0.89580404793E+02  0.15993538251E+03  0.00000000000E+00 0.  1.
         13    1    5    5    0    0 -0.32640601197E+03 -0.44548881701E+03 -0.87661699720E+02  0.55918310447E+03  0.00000000000E+00 0. -1.
        -13    1    5    5    0    0 -0.18733946420E+03 -0.37873070671E+03 -0.10214700471E+03  0.43470338580E+03  0.00000000000E+00 0.  1.
          1    1    6    6  503    0 -0.72065248427E+02  0.77656453947E+01  0.12625637331E+03  0.14558288732E+03  0.00000000000E+00 0. -1.
         -1    1    6    6    0  503 -0.28157723332E+03  0.25999467378E+02  0.20724803467E+03  0.35059015745E+03  0.00000000000E+00 0.  1.
<mgrwt>
<rscale>  0 0.29308631E+04</rscale>
<asrwt>0</asrwt>
<pdfrwt beam="1">  1        1 0.30594064E+00 0.29308631E+04</pdfrwt>
<pdfrwt beam="2">  1       -2 0.16613731E+00 0.29308631E+04</pdfrwt>
<totfact> 0.51862825E-01</totfact>
</mgrwt>
</event>
<event>
12    5  0.5197392E-008  0.2157911E+04  0.7818608E-02  0.8536153E-01
         -4   -1    0    0    0  501 -0.00000000000E+00  0.00000000000E+00  0.17212848130E+04  0.17212848130E+04  0.00000000000E+00 0.  1.
          3   -1    0    0  501    0  0.00000000000E+00 -0.00000000000E+00 -0.67632335536E+03  0.67632335536E+03  0.00000000000E+00 0. -1.
        -24    2    1    2    0    0  0.70102868068E+03  0.51390108101E+03  0.66833442643E+03  0.10993205437E+04  0.79367626378E+02 0.  0.
        254    2    1    2    0    0 -0.70102868068E+03 -0.51390108101E+03  0.37662703116E+03  0.12982876246E+04  0.88778787068E+03 0.  0.
         23    2    4    4    0    0 -0.73325491027E+03 -0.23368746527E+03  0.55403469297E+03  0.95252993615E+03  0.89923541932E+02 0.  0.
         23    2    4    4    0    0  0.32226229590E+02 -0.28021361574E+03 -0.17740766180E+03  0.34575768843E+03  0.92285970321E+02 0.  0.
          3    1    3    3  502    0  0.11879480541E+03  0.54937730398E+02  0.86407321815E+02  0.15683298530E+03  0.00000000000E+00 0. -1.
         -4    1    3    3    0  502  0.58223387527E+03  0.45896335062E+03  0.58192710462E+03  0.94248755843E+03  0.00000000000E+00 0.  1.
         13    1    5    5    0    0 -0.68824901401E+03 -0.23477878075E+03  0.50153668837E+03  0.88337241918E+03  0.00000000000E+00 0. -1.
        -13    1    5    5    0    0 -0.45005896256E+02  0.10913154835E+01  0.52498004594E+02  0.69157516972E+02  0.00000000000E+00 0.  1.
          3    1    6    6  503    0  0.20548982558E+02 -0.25116511994E+03 -0.11726005291E+03  0.27794981232E+03  0.00000000000E+00 0. -1.
         -3    1    6    6    0  503  0.11677247032E+02 -0.29048495803E+02 -0.60147608897E+02  0.67807876111E+02  0.00000000000E+00 0.  1.
<mgrwt>
<rscale>  0 0.21579111E+04</rscale>
<asrwt>0</asrwt>
<pdfrwt beam="1">  1        3 0.10404975E+00 0.21579111E+04</pdfrwt>
<pdfrwt beam="2">  1       -4 0.26481305E+00 0.21579111E+04</pdfrwt>
<totfact> 0.85233116E-02</totfact>
</mgrwt>
</event>
<event>
12    5  0.5197392E-008  0.1255121E+04  0.7818608E-02  0.9065932E-01
         -2   -1    0    0    0  501 -0.00000000000E+00  0.00000000000E+00  0.22002437439E+03  0.22002437439E+03  0.00000000000E+00 0.  1.
          1   -1    0    0  501    0  0.00000000000E+00 -0.00000000000E+00 -0.17899468518E+04  0.17899468518E+04  0.00000000000E+00 0. -1.
        -24    2    1    2    0    0  0.12862577697E+03  0.23045820084E+03 -0.43218413119E+03  0.51255924192E+03  0.79235600532E+02 0.  0.
        254    2    1    2    0    0 -0.12862577697E+03 -0.23045820084E+03 -0.11377383462E+04  0.14974119842E+04  0.93709046166E+03 0.  0.
         23    2    4    4    0    0 -0.26773727913E+03 -0.14260220007E+03  0.26997328539E+02  0.31745291458E+03  0.89603901275E+02 0.  0.
         23    2    4    4    0    0  0.13911150216E+03 -0.87856000766E+02 -0.11647356747E+04  0.11799590697E+04  0.92862948509E+02 0.  0.
          1    1    3    3  502    0  0.60669476974E+02  0.18144096482E+03 -0.31383639498E+03  0.36755257034E+03  0.00000000000E+00 0. -1.
         -2    1    3    3    0  502  0.67956299999E+02  0.49017236014E+02 -0.11834773621E+03  0.14500667157E+03  0.00000000000E+00 0.  1.
         13    1    5    5    0    0 -0.17758770214E+03 -0.10061523248E+03 -0.24305579289E+02  0.20555188674E+03  0.00000000000E+00 0. -1.
        -13    1    5    5    0    0 -0.90149576996E+02 -0.41986967591E+02  0.51302907828E+02  0.11190102784E+03  0.00000000000E+00 0.  1.
          2    1    6    6  503    0  0.42942629481E+02 -0.34701476359E+02 -0.16051834014E+03  0.16974804685E+03  0.00000000000E+00 0. -1.
         -2    1    6    6    0  503  0.96168872677E+02 -0.53154524407E+02 -0.10042173346E+04  0.10102110228E+04  0.00000000000E+00 0.  1.
<mgrwt>
<rscale>  0 0.12551206E+04</rscale>
<asrwt>0</asrwt>
<pdfrwt beam="1">  1        1 0.27537643E+00 0.12551206E+04</pdfrwt>
<pdfrwt beam="2">  1       -2 0.33849904E-01 0.12551206E+04</pdfrwt>
<totfact> 0.29258410E+01</totfact>
</mgrwt>
</event>
<event>
12    5  0.5197392E-008  0.1398756E+04  0.7818608E-02  0.8954720E-01
         -2   -1    0    0    0  501 -0.00000000000E+00  0.00000000000E+00  0.31286258030E+03  0.31286258030E+03  0.00000000000E+00 0.  1.
          1   -1    0    0  501    0  0.00000000000E+00 -0.00000000000E+00 -0.15634006178E+04  0.15634006178E+04  0.00000000000E+00 0. -1.
        -24    2    1    2    0    0  0.22568015966E+03  0.31985786916E+03 -0.25044949680E+03  0.47207828735E+03  0.83020286792E+02 0.  0.
        254    2    1    2    0    0 -0.22568015966E+03 -0.31985786916E+03 -0.10000885407E+04  0.14041849108E+04  0.90460907769E+03 0.  0.
         23    2    4    4    0    0 -0.81008398478E+02  0.14589872645E+03  0.87983021801E+02  0.20846093939E+03  0.88691330604E+02 0.  0.
         23    2    4    4    0    0 -0.14467176118E+03 -0.46575659560E+03 -0.10880715625E+04  0.11957239714E+04  0.89425755428E+02 0.  0.
          3    1    3    3  502    0  0.12410190392E+03  0.14500134309E+03 -0.16594466966E+03  0.25291165541E+03  0.00000000000E+00 0. -1.
         -4    1    3    3    0  502  0.10157825574E+03  0.17485652607E+03 -0.84504827139E+02  0.21916663194E+03  0.00000000000E+00 0.  1.
         13    1    5    5    0    0 -0.76303217620E+02  0.12402437215E+03  0.10568830985E+03  0.17992844340E+03  0.00000000000E+00 0.  1.
        -13    1    5    5    0    0 -0.47051808582E+01  0.21874354293E+02 -0.17705288045E+02  0.28532495990E+02  0.00000000000E+00 0. -1.
          1    1    6    6  503    0 -0.72880373055E+01 -0.47764323840E+02 -0.57163924593E+02  0.74848249108E+02  0.00000000000E+00 0. -1.
         -1    1    6    6    0  503 -0.13738372387E+03 -0.41799227176E+03 -0.10309076379E+04  0.11208757223E+04  0.00000000000E+00 0.  1.
<mgrwt>
<rscale>  0 0.13987559E+04</rscale>
<asrwt>0</asrwt>
<pdfrwt beam="1">  1        1 0.24052317E+00 0.13987559E+04</pdfrwt>
<pdfrwt beam="2">  1       -2 0.48132706E-01 0.13987559E+04</pdfrwt>
<totfact> 0.20692242E+01</totfact>
</mgrwt>
</event>
<event>
12    5  0.5197392E-008  0.2045281E+04  0.7818608E-02  0.8585738E-01
         -2   -1    0    0    0  501 -0.00000000000E+00  0.00000000000E+00  0.53111731200E+03  0.53111731200E+03  0.00000000000E+00 0.  1.
          1   -1    0    0  501    0  0.00000000000E+00 -0.00000000000E+00 -0.19690447888E+04  0.19690447888E+04  0.00000000000E+00 0. -1.
        -24    2    1    2    0    0  0.60955908195E+03 -0.41942005624E+03 -0.98628250861E+02  0.75083494246E+03  0.80932817733E+02 0.  0.
        254    2    1    2    0    0 -0.60955908195E+03  0.41942005624E+03 -0.13392992259E+04  0.17493271584E+04  0.84790779708E+03 0.  0.
         23    2    4    4    0    0 -0.40424246116E+02  0.51724232191E+03 -0.50538409455E+03  0.73080986328E+03  0.97448622344E+02 0.  0.
         23    2    4    4    0    0 -0.56913483583E+03 -0.97822265670E+02 -0.83391513140E+03  0.10185172951E+04  0.92083532493E+02 0.  0.
          1    1    3    3  502    0  0.49988982529E+02 -0.64812925688E+02 -0.96932583644E+01  0.82423133696E+02  0.00000000000E+00 0. -1.
         -2    1    3    3    0  502  0.55957009942E+03 -0.35460713055E+03 -0.88934992496E+02  0.66841180877E+03  0.00000000000E+00 0.  1.
         13    1    5    5    0    0 -0.11223665643E+02  0.48079051562E+03 -0.45385563075E+03  0.66126426196E+03  0.00000000000E+00 0.  1.
        -13    1    5    5    0    0 -0.29200580473E+02  0.36451806292E+02 -0.51528463805E+02  0.69545601327E+02  0.00000000000E+00 0. -1.
          1    1    6    6  503    0 -0.18843658699E+03 -0.58781516236E+01 -0.33307910333E+03  0.38273305196E+03  0.00000000000E+00 0. -1.
         -1    1    6    6    0  503 -0.38069824884E+03 -0.91944114046E+02 -0.50083602807E+03  0.63578424311E+03  0.00000000000E+00 0.  1.
<mgrwt>
<rscale>  0 0.20452812E+04</rscale>
<asrwt>0</asrwt>
<pdfrwt beam="1">  1        1 0.30292997E+00 0.20452812E+04</pdfrwt>
<pdfrwt beam="2">  1       -2 0.81710356E-01 0.20452812E+04</pdfrwt>
<totfact> 0.33449563E+00</totfact>
</mgrwt>
</event>
<event>
12    5  0.5197392E-008  0.1822347E+04  0.7818608E-02  0.8694505E-01
          1   -1    0    0  501    0  0.00000000000E+00  0.00000000000E+00  0.14451554572E+04  0.14451554572E+04  0.00000000000E+00 0. -1.
         -2   -1    0    0    0  501 -0.00000000000E+00 -0.00000000000E+00 -0.57449649765E+03  0.57449649765E+03  0.00000000000E+00 0.  1.
        -24    2    1    2    0    0  0.58055588379E+03 -0.79188009676E+02 -0.62192696848E+02  0.59455905674E+03  0.79477451705E+02 0.  0.
        254    2    1    2    0    0 -0.58055588379E+03  0.79188009676E+02  0.93285165635E+03  0.14250928981E+04  0.90408057178E+03 0.  0.
         23    2    4    4    0    0 -0.35801701907E+02 -0.15863141893E+03 -0.11327497987E+03  0.21816683095E+03  0.91213245354E+02 0.  0.
         23    2    4    4    0    0 -0.54475418188E+03  0.23781942861E+03  0.10461266362E+04  0.12069260671E+04  0.94733273881E+02 0.  0.
          1    1    3    3  502    0  0.21279041274E+03  0.33306314018E+01 -0.43297337312E+02  0.21717622402E+03  0.00000000000E+00 0. -1.
         -2    1    3    3    0  502  0.36776547105E+03 -0.82518641078E+02 -0.18895359536E+02  0.37738283272E+03  0.00000000000E+00 0.  1.
         13    1    5    5    0    0 -0.37897826145E+01  0.10146385964E+02 -0.19865856737E+02  0.22626618490E+02  0.00000000000E+00 0.  1.
        -13    1    5    5    0    0 -0.32011919293E+02 -0.16877780490E+03 -0.93409123132E+02  0.19554021246E+03  0.00000000000E+00 0. -1.
          2    1    6    6  503    0 -0.44788690913E+03  0.22643150954E+03  0.83227482413E+03  0.97188234615E+03  0.00000000000E+00 0. -1.
         -2    1    6    6    0  503 -0.96867272751E+02  0.11387919066E+02  0.21385181209E+03  0.23504372096E+03  0.00000000000E+00 0.  1.
<mgrwt>
<rscale>  0 0.18223466E+04</rscale>
<asrwt>0</asrwt>
<pdfrwt beam="1">  1        1 0.22233161E+00 0.18223466E+04</pdfrwt>
<pdfrwt beam="2">  1       -2 0.88384077E-01 0.18223466E+04</pdfrwt>
<totfact> 0.65047567E+00</totfact>
</mgrwt>
</event>
<event>
12    5  0.5197392E-008  0.1477989E+04  0.7818608E-02  0.8899223E-01
          1   -1    0    0  501    0  0.00000000000E+00  0.00000000000E+00  0.18546655907E+04  0.18546655907E+04  0.00000000000E+00 0. -1.
         -2   -1    0    0    0  501 -0.00000000000E+00 -0.00000000000E+00 -0.29445366490E+03  0.29445366490E+03  0.00000000000E+00 0.  1.
        -24    2    1    2    0    0 -0.29542366538E+03  0.34774485479E+03  0.61824772225E+03  0.77248734195E+03  0.79402904876E+02 0.  0.
        254    2    1    2    0    0  0.29542366538E+03 -0.34774485479E+03  0.94196420351E+03  0.13766319136E+04  0.89421319537E+03 0.  0.
         23    2    4    4    0    0 -0.23276606069E+03 -0.22564202370E+03  0.67740819884E+02  0.34352532530E+03  0.91249485325E+02 0.  0.
         23    2    4    4    0    0  0.52818972607E+03 -0.12210283109E+03  0.87422338363E+03  0.10331065883E+04  0.95651504129E+02 0.  0.
          1    1    3    3  502    0 -0.44827207453E+02  0.92482225144E+02  0.17447684606E+03  0.20249595134E+03  0.00000000000E+00 0. -1.
         -2    1    3    3    0  502 -0.25059645792E+03  0.25526262965E+03  0.44377087619E+03  0.56999139062E+03  0.00000000000E+00 0.  1.
         13    1    5    5    0    0 -0.18767043602E+03 -0.20152926610E+03  0.24340996899E+02  0.27645383300E+03  0.00000000000E+00 0. -1.
        -13    1    5    5    0    0 -0.45095624671E+02 -0.24112757598E+02  0.43399822984E+02  0.67071492294E+02  0.00000000000E+00 0.  1.
          3    1    6    6  503    0  0.32378887526E+03 -0.49194903824E+02  0.59824167272E+03  0.68202087452E+03  0.00000000000E+00 0. -1.
         -3    1    6    6    0  503  0.20440085082E+03 -0.72907927270E+02  0.27598171091E+03  0.35108571379E+03  0.00000000000E+00 0.  1.
<mgrwt>
<rscale>  0 0.14779893E+04</rscale>
<asrwt>0</asrwt>
<pdfrwt beam="1">  1        1 0.28533316E+00 0.14779893E+04</pdfrwt>
<pdfrwt beam="2">  1       -2 0.45300565E-01 0.14779893E+04</pdfrwt>
<totfact> 0.14706760E+01</totfact>
</mgrwt>
</event>
<event>
12    5  0.5197392E-008  0.1189261E+04  0.7818608E-02  0.9122309E-01
          1   -1    0    0  501    0  0.00000000000E+00  0.00000000000E+00  0.30392516256E+03  0.30392516256E+03  0.00000000000E+00 0. -1.
         -2   -1    0    0    0  501 -0.00000000000E+00 -0.00000000000E+00 -0.11633959489E+04  0.11633959489E+04  0.00000000000E+00 0.  1.
        -24    2    1    2    0    0 -0.10311490762E+02 -0.23143679152E+03 -0.83861087675E+02  0.25837151644E+03  0.77806446832E+02 0.  0.
        254    2    1    2    0    0  0.10311490762E+02  0.23143679152E+03 -0.77560969869E+03  0.12089495950E+04  0.89795289595E+03 0.  0.
         23    2    4    4    0    0  0.48266553365E+02 -0.12997088344E+03 -0.81486430655E+03  0.83185179611E+03  0.93549355324E+02 0.  0.
         23    2    4    4    0    0 -0.37955062603E+02  0.36140767496E+03  0.39254607861E+02  0.37709779893E+03  0.92767081563E+02 0.  0.
          3    1    3    3  502    0 -0.89056988570E+01 -0.21926948809E+03 -0.97417700289E+02  0.24010128739E+03  0.00000000000E+00 0. -1.
         -4    1    3    3    0  502 -0.14057919050E+01 -0.12167303431E+02  0.13556612614E+02  0.18270229042E+02  0.00000000000E+00 0.  1.
         13    1    5    5    0    0  0.15312333286E+02 -0.11277815493E+03 -0.41692416551E+03  0.43217952238E+03  0.00000000000E+00 0. -1.
        -13    1    5    5    0    0  0.32954220079E+02 -0.17192728517E+02 -0.39794014104E+03  0.39967227373E+03  0.00000000000E+00 0.  1.
          3    1    6    6  503    0 -0.13976620298E+02  0.28982949651E+03 -0.38074577497E+01  0.29019128122E+03  0.00000000000E+00 0. -1.
         -3    1    6    6    0  503 -0.23978442305E+02  0.71578178455E+02  0.43062065611E+02  0.86906517713E+02  0.00000000000E+00 0.  1.
<mgrwt>
<rscale>  0 0.11892608E+04</rscale>
<asrwt>0</asrwt>
<pdfrwt beam="1">  1        1 0.46757716E-01 0.11892608E+04</pdfrwt>
<pdfrwt beam="2">  1       -2 0.17898400E+00 0.11892608E+04</pdfrwt>
<totfact> 0.13717190E+01</totfact>
</mgrwt>
</event>
<event>
12    5  0.5197392E-008  0.1636666E+04  0.7818608E-02  0.8798334E-01
          1   -1    0    0  501    0  0.00000000000E+00  0.00000000000E+00  0.32149686340E+04  0.32149686340E+04  0.00000000000E+00 0. -1.
         -2   -1    0    0    0  501 -0.00000000000E+00 -0.00000000000E+00 -0.20829705983E+03  0.20829705983E+03  0.00000000000E+00 0.  1.
        -24    2    1    2    0    0  0.39006746451E+03 -0.37541319054E+03  0.12380630985E+04  0.13536459226E+04  0.80432316886E+02 0.  0.
        254    2    1    2    0    0 -0.39006746451E+03  0.37541319054E+03  0.17686084757E+04  0.20696197712E+04  0.92858083462E+03 0.  0.
         23    2    4    4    0    0 -0.12618935141E+03  0.59769498184E+03  0.65492297239E+03  0.90015467855E+03  0.90505811018E+02 0.  0.
         23    2    4    4    0    0 -0.26387811310E+03 -0.22228179129E+03  0.11136855033E+04  0.11694650926E+04  0.91172086090E+02 0.  0.
          1    1    3    3  502    0  0.31379828757E+03 -0.31573273284E+03  0.10817982479E+04  0.11698051005E+04  0.00000000000E+00 0. -1.
         -2    1    3    3    0  502  0.76269176940E+02 -0.59680457708E+02  0.15626485054E+03  0.18384082217E+03  0.00000000000E+00 0.  1.
         13    1    5    5    0    0 -0.74493248731E+01  0.47735742236E+02  0.21339754087E+02  0.52816461756E+02  0.00000000000E+00 0. -1.
        -13    1    5    5    0    0 -0.11874002653E+03  0.54995923960E+03  0.63358321830E+03  0.84733821679E+03  0.00000000000E+00 0.  1.
          4    1    6    6  503    0 -0.19676297553E+03 -0.17107081947E+03  0.95210113876E+03  0.98715625523E+03  0.00000000000E+00 0. -1.
         -4    1    6    6    0  503 -0.67115137565E+02 -0.51210971828E+02  0.16158436453E+03  0.18230883738E+03  0.00000000000E+00 0.  1.
<mgrwt>
<rscale>  0 0.16366655E+04</rscale>
<asrwt>0</asrwt>
<pdfrwt beam="1">  1        1 0.49461052E+00 0.16366655E+04</pdfrwt>
<pdfrwt beam="2">  1       -2 0.32045704E-01 0.16366655E+04</pdfrwt>
<totfact> 0.31727067E+00</totfact>
</mgrwt>
</event>
<event>
12    5  0.5197392E-008  0.2557525E+04  0.7818608E-02  0.8382774E-01
         -2   -1    0    0    0  501 -0.00000000000E+00  0.00000000000E+00  0.73127538592E+03  0.73127538592E+03  0.00000000000E+00 0.  1.
          1   -1    0    0  501    0  0.00000000000E+00 -0.00000000000E+00 -0.22361398959E+04  0.22361398959E+04  0.00000000000E+00 0. -1.
        -24    2    1    2    0    0  0.11092585538E+04  0.10034196016E+03 -0.75208328416E+03  0.13459403866E+04  0.73506529579E+02 0.  0.
        254    2    1    2    0    0 -0.11092585538E+04 -0.10034196016E+03 -0.75278122581E+03  0.16214748952E+04  0.90663014160E+03 0.  0.
         23    2    4    4    0    0 -0.12051225489E+04 -0.14608637176E+03 -0.46802598489E+03  0.13043568571E+04  0.92934935533E+02 0.  0.
         23    2    4    4    0    0  0.95863995079E+02  0.45744411593E+02 -0.28475524092E+03  0.31711803812E+03  0.90530912533E+02 0.  0.
          3    1    3    3  502    0  0.20733639847E+03  0.42859022169E+02 -0.12384869649E+03  0.24528305595E+03  0.00000000000E+00 0. -1.
         -4    1    3    3    0  502  0.90192215532E+03  0.57482937994E+02 -0.62823458767E+03  0.11006573307E+04  0.00000000000E+00 0.  1.
         13    1    5    5    0    0 -0.21312954998E+03 -0.60672135452E+02 -0.95174786166E+02  0.24117121100E+03  0.00000000000E+00 0. -1.
        -13    1    5    5    0    0 -0.99199299889E+03 -0.85414236304E+02 -0.37285119872E+03  0.10631856461E+04  0.00000000000E+00 0.  1.
          2    1    6    6  503    0  0.70813566406E+02  0.51749663866E+02 -0.27648474760E+03  0.29006275968E+03  0.00000000000E+00 0.  1.
         -2    1    6    6    0  503  0.25050428673E+02 -0.60052522724E+01 -0.82704933174E+01  0.27055278437E+02  0.00000000000E+00 0. -1.
<mgrwt>
<rscale>  0 0.25575254E+04</rscale>
<asrwt>0</asrwt>
<pdfrwt beam="1">  1        1 0.34402152E+00 0.25575254E+04</pdfrwt>
<pdfrwt beam="2">  1       -2 0.11250391E+00 0.25575254E+04</pdfrwt>
<totfact> 0.99474033E-01</totfact>
</mgrwt>
</event>
<event>
12    5  0.5197392E-008  0.1814607E+04  0.7818608E-02  0.8698570E-01
         -2   -1    0    0    0  501 -0.00000000000E+00  0.00000000000E+00  0.17788840985E+04  0.17788840985E+04  0.00000000000E+00 0.  1.
          1   -1    0    0  501    0  0.00000000000E+00 -0.00000000000E+00 -0.46276181275E+03  0.46276181275E+03  0.00000000000E+00 0. -1.
        -24    2    1    2    0    0 -0.22396398928E+03 -0.62264645285E+03  0.68182159014E+03  0.95336594742E+03  0.78596915785E+02 0.  0.
        254    2    1    2    0    0  0.22396398928E+03  0.62264645285E+03  0.63430069561E+03  0.12882799638E+04  0.90525102540E+03 0.  0.
         23    2    4    4    0    0  0.75301022618E+02 -0.17538484901E+03 -0.55596205176E+02  0.21975769833E+03  0.93661190880E+02 0.  0.
         23    2    4    4    0    0  0.14866296667E+03  0.79803130187E+03  0.68989690078E+03  0.10685222655E+04  0.82628455870E+02 0.  0.
          3    1    3    3  502    0 -0.16256276848E+03 -0.37174529628E+03  0.45476875202E+03  0.60945536080E+03  0.00000000000E+00 0. -1.
         -4    1    3    3    0  502 -0.61401220805E+02 -0.25090115658E+03  0.22705283812E+03  0.34391058662E+03  0.00000000000E+00 0.  1.
         13    1    5    5    0    0  0.94715567034E+02 -0.11622521863E+03 -0.45480915216E+02  0.15667754700E+03  0.00000000000E+00 0. -1.
        -13    1    5    5    0    0 -0.19414544416E+02 -0.59159630379E+02 -0.10115289960E+02  0.63080151335E+02  0.00000000000E+00 0.  1.
          1    1    6    6  503    0  0.12851763042E+03  0.67240597293E+03  0.54008287437E+03  0.87197252534E+03  0.00000000000E+00 0. -1.
         -1    1    6    6    0  503  0.20145336249E+02  0.12562532894E+03  0.14981402641E+03  0.19654974015E+03  0.00000000000E+00 0.  1.
<mgrwt>
<rscale>  0 0.18146070E+04</rscale>
<asrwt>0</asrwt>
<pdfrwt beam="1">  1        1 0.71194126E-01 0.18146070E+04</pdfrwt>
<pdfrwt beam="2">  1       -2 0.27367447E+00 0.18146070E+04</pdfrwt>
<totfact> 0.18719623E+00</totfact>
</mgrwt>
</event>
<event>
12    5  0.5197392E-008  0.1226557E+04  0.7818608E-02  0.9089923E-01
          1   -1    0    0  501    0  0.00000000000E+00  0.00000000000E+00  0.80050854236E+03  0.80050854236E+03  0.00000000000E+00 0. -1.
         -2   -1    0    0    0  501 -0.00000000000E+00 -0.00000000000E+00 -0.46983965649E+03  0.46983965649E+03  0.00000000000E+00 0.  1.
        -24    2    1    2    0    0 -0.19055955175E+03 -0.19139856896E+03  0.58046777274E+02  0.28755409290E+03  0.79822133725E+02 0.  0.
        254    2    1    2    0    0  0.19055955175E+03  0.19139856896E+03  0.27262210860E+03  0.98279410595E+03  0.90477349963E+03 0.  0.
         23    2    4    4    0    0  0.41034201730E+03  0.41884115761E+03  0.27528214967E+03  0.65411419322E+03  0.90975982370E+02 0.  0.
         23    2    4    4    0    0 -0.21978246556E+03 -0.22744258866E+03 -0.26600410764E+01  0.32867991273E+03  0.89380903514E+02 0.  0.
          1    1    3    3  502    0 -0.18726712495E+03 -0.15778966276E+03  0.64364938111E+02  0.25319833928E+03  0.00000000000E+00 0. -1.
         -2    1    3    3    0  502 -0.32924267983E+01 -0.33608906199E+02 -0.63181608370E+01  0.34355753615E+02  0.00000000000E+00 0.  1.
         13    1    5    5    0    0  0.39512035785E+03  0.37324581576E+03  0.26608771685E+03  0.60517370170E+03  0.00000000000E+00 0. -1.
        -13    1    5    5    0    0  0.15221659447E+02  0.45595341850E+02  0.91944328214E+01  0.48940491514E+02  0.00000000000E+00 0.  1.
          3    1    6    6  503    0 -0.19158314869E+03 -0.22657841470E+03 -0.16657720288E+02  0.29718573403E+03  0.00000000000E+00 0. -1.
         -3    1    6    6    0  503 -0.28199316867E+02 -0.86417395885E+00  0.13997679211E+02  0.31494178695E+02  0.00000000000E+00 0.  1.
<mgrwt>
<rscale>  0 0.12265572E+04</rscale>
<asrwt>0</asrwt>
<pdfrwt beam="1">  1        1 0.12315516E+00 0.12265572E+04</pdfrwt>
<pdfrwt beam="2">  1       -2 0.72283024E-01 0.12265572E+04</pdfrwt>
<totfact> 0.33125268E+01</totfact>
</mgrwt>
</event>
<event>
12    5  0.5197392E-008  0.2458337E+04  0.7818608E-02  0.8417980E-01
          1   -1    0    0  501    0  0.00000000000E+00  0.00000000000E+00  0.10404733977E+04  0.10404733977E+04  0.00000000000E+00 0. -1.
         -2   -1    0    0    0  501 -0.00000000000E+00 -0.00000000000E+00 -0.14520848167E+04  0.14520848167E+04  0.00000000000E+00 0.  1.
        -24    2    1    2    0    0 -0.49463981071E+03  0.64357670143E+03 -0.74062890826E+03  0.11011102469E+04  0.71085042000E+02 0.  0.
        254    2    1    2    0    0  0.49463981071E+03 -0.64357670143E+03  0.32901748927E+03  0.13914479675E+04  0.10812101669E+04 0.  0.
         23    2    4    4    0    0  0.41635080779E+03 -0.10071066494E+03  0.62418373228E+03  0.76202805070E+03  0.87125112497E+02 0.  0.
         23    2    4    4    0    0  0.78289002918E+02 -0.54286603649E+03 -0.29516624301E+03  0.62941991681E+03  0.90629019166E+02 0.  0.
          3    1    3    3  502    0 -0.18095899027E+03  0.26049396455E+03 -0.33177798414E+03  0.45899879356E+03  0.00000000000E+00 0. -1.
         -4    1    3    3    0  502 -0.31368082044E+03  0.38308273688E+03 -0.40885092412E+03  0.64211145338E+03  0.00000000000E+00 0.  1.
         13    1    5    5    0    0  0.24489994616E+03 -0.16377647012E+02  0.33085630027E+03  0.41195886005E+03  0.00000000000E+00 0. -1.
        -13    1    5    5    0    0  0.17145086163E+03 -0.84333017929E+02  0.29332743202E+03  0.35006919065E+03  0.00000000000E+00 0.  1.
          1    1    6    6  503    0  0.36242381881E+02 -0.45557854081E+03 -0.26323597127E+03  0.52740733182E+03  0.00000000000E+00 0. -1.
         -1    1    6    6    0  503  0.42046621036E+02 -0.87287495678E+02 -0.31930271741E+02  0.10201258499E+03  0.00000000000E+00 0.  1.
<mgrwt>
<rscale>  0 0.24583373E+04</rscale>
<asrwt>0</asrwt>
<pdfrwt beam="1">  1        1 0.16007283E+00 0.24583373E+04</pdfrwt>
<pdfrwt beam="2">  1       -2 0.22339766E+00 0.24583373E+04</pdfrwt>
<totfact> 0.10352474E+00</totfact>
</mgrwt>
</event>
<event>
12    5  0.5197392E-008  0.1680403E+04  0.7818608E-02  0.8772621E-01
          1   -1    0    0  501    0  0.00000000000E+00  0.00000000000E+00  0.12086351578E+04  0.12086351578E+04  0.00000000000E+00 0. -1.
         -2   -1    0    0    0  501 -0.00000000000E+00 -0.00000000000E+00 -0.58407931496E+03  0.58407931496E+03  0.00000000000E+00 0.  1.
        -24    2    1    2    0    0 -0.14474212163E+03 -0.10789238060E+03 -0.38992198419E+03  0.43648443015E+03  0.76736278569E+02 0.  0.
        254    2    1    2    0    0  0.14474212163E+03  0.10789238060E+03  0.10144778270E+04  0.13562300426E+04  0.88181835961E+03 0.  0.
         23    2    4    4    0    0  0.32830931105E+03  0.10022627424E+03  0.38519204808E+02  0.35907101840E+03  0.98060987889E+02 0.  0.
         23    2    4    4    0    0 -0.18356718942E+03  0.76661063593E+01  0.97595862220E+03  0.99715902419E+03  0.89862144673E+02 0.  0.
          3    1    3    3  502    0 -0.56052923141E+02 -0.18442004659E+02 -0.63921924253E+02  0.86994540798E+02  0.00000000000E+00 0. -1.
         -4    1    3    3    0  502 -0.88689198489E+02 -0.89450375941E+02 -0.32600005993E+03  0.34948988935E+03  0.00000000000E+00 0.  1.
         13    1    5    5    0    0 -0.39273540957E+01  0.77739532285E+01  0.96578750314E+01  0.13005114729E+02  0.00000000000E+00 0.  1.
        -13    1    5    5    0    0  0.33223666514E+03  0.92452321013E+02  0.28861329776E+02  0.34606590367E+03  0.00000000000E+00 0. -1.
          1    1    6    6  503    0 -0.36062574050E+02  0.37335086387E+02  0.31864568827E+03  0.32284592699E+03  0.00000000000E+00 0.  1.
         -1    1    6    6    0  503 -0.14750461537E+03 -0.29668980028E+02  0.65731293394E+03  0.67431309720E+03  0.00000000000E+00 0. -1.
<mgrwt>
<rscale>  0 0.16804033E+04</rscale>
<asrwt>0</asrwt>
<pdfrwt beam="1">  1        1 0.18594387E+00 0.16804033E+04</pdfrwt>
<pdfrwt beam="2">  1       -2 0.89858356E-01 0.16804033E+04</pdfrwt>
<totfact> 0.93388438E+00</totfact>
</mgrwt>
</event>
<event>
12    5  0.5197392E-008  0.1156928E+04  0.7818608E-02  0.9151416E-01
         -2   -1    0    0    0  501 -0.00000000000E+00  0.00000000000E+00  0.17920720193E+03  0.17920720193E+03  0.00000000000E+00 0.  1.
          1   -1    0    0  501    0  0.00000000000E+00 -0.00000000000E+00 -0.18672273377E+04  0.18672273377E+04  0.00000000000E+00 0. -1.
        -24    2    1    2    0    0 -0.25235808149E+02 -0.12325473863E+03 -0.10898186384E+04  0.11003933442E+04  0.85628679672E+02 0.  0.
        254    2    1    2    0    0  0.25235808149E+02  0.12325473863E+03 -0.59820149743E+03  0.94604119546E+03  0.72202516257E+03 0.  0.
         23    2    4    4    0    0  0.20011201841E+03  0.35974255380E+03 -0.29517133454E+03  0.51456699628E+03  0.90518241231E+02 0.  0.
         23    2    4    4    0    0 -0.17487621026E+03 -0.23648781517E+03 -0.30303016288E+03  0.43147419919E+03  0.88512876527E+02 0.  0.
          1    1    3    3  502    0 -0.21745091525E+02 -0.12983029868E+03 -0.10803889984E+04  0.10883791358E+04  0.00000000000E+00 0. -1.
         -2    1    3    3    0  502 -0.34907166242E+01  0.65755600472E+01 -0.94296400062E+01  0.12014208386E+02  0.00000000000E+00 0.  1.
         13    1    5    5    0    0  0.22540705051E+02  0.12483926953E+03 -0.95497958439E+02  0.15878534777E+03  0.00000000000E+00 0. -1.
        -13    1    5    5    0    0  0.17757131336E+03  0.23490328427E+03 -0.19967337610E+03  0.35578164850E+03  0.00000000000E+00 0.  1.
          3    1    6    6  503    0 -0.35316104917E+02 -0.11604540807E+03 -0.99681956342E+02  0.15700400129E+03  0.00000000000E+00 0. -1.
         -3    1    6    6    0  503 -0.13956010534E+03 -0.12044240709E+03 -0.20334820654E+03  0.27447019790E+03  0.00000000000E+00 0.  1.
<mgrwt>
<rscale>  0 0.11569280E+04</rscale>
<asrwt>0</asrwt>
<pdfrwt beam="1">  1        1 0.28726575E+00 0.11569280E+04</pdfrwt>
<pdfrwt beam="2">  1       -2 0.27570338E-01 0.11569280E+04</pdfrwt>
<totfact> 0.38382167E+01</totfact>
</mgrwt>
</event>
<event>
12    5  0.5197392E-008  0.1259273E+04  0.7818608E-02  0.9062500E-01
         -2   -1    0    0    0  501 -0.00000000000E+00  0.00000000000E+00  0.26609268608E+03  0.26609268608E+03  0.00000000000E+00 0.  1.
          1   -1    0    0  501    0  0.00000000000E+00 -0.00000000000E+00 -0.14898648535E+04  0.14898648535E+04  0.00000000000E+00 0. -1.
        -24    2    1    2    0    0 -0.11232551155E+03  0.24531639388E+03 -0.11554090819E+03  0.30435936163E+03  0.80546669054E+02 0.  0.
        254    2    1    2    0    0  0.11232551155E+03 -0.24531639388E+03 -0.11082312592E+04  0.14515981780E+04  0.89786613292E+03 0.  0.
         23    2    4    4    0    0  0.31633852947E+03 -0.62220319423E+01 -0.10730569331E+04  0.11222704393E+04  0.89056040737E+02 0.  0.
         23    2    4    4    0    0 -0.20401301792E+03 -0.23909436193E+03 -0.35174326116E+02  0.32932773861E+03  0.91826471203E+02 0.  0.
          1    1    3    3  502    0 -0.21569158901E+02  0.84734805392E+01 -0.27305590731E+02  0.35813737215E+02  0.00000000000E+00 0. -1.
         -2    1    3    3    0  502 -0.90756352651E+02  0.23684291334E+03 -0.88235317463E+02  0.26854562442E+03  0.00000000000E+00 0.  1.
         13    1    5    5    0    0  0.15043215210E+03  0.24564750969E+02 -0.62978882488E+03  0.64797162231E+03  0.00000000000E+00 0. -1.
        -13    1    5    5    0    0  0.16590637737E+03 -0.30786782911E+02 -0.44326810824E+03  0.47429881703E+03  0.00000000000E+00 0.  1.
          3    1    6    6  503    0 -0.34422959421E+02 -0.68760850388E+02  0.26228142636E+02  0.81245985424E+02  0.00000000000E+00 0. -1.
         -3    1    6    6    0  503 -0.16959005850E+03 -0.17033351155E+03 -0.61402468752E+02  0.24808175319E+03  0.00000000000E+00 0.  1.
<mgrwt>
<rscale>  0 0.12592730E+04</rscale>
<asrwt>0</asrwt>
<pdfrwt beam="1">  1        1 0.22920998E+00 0.12592730E+04</pdfrwt>
<pdfrwt beam="2">  1       -2 0.40937336E-01 0.12592730E+04</pdfrwt>
<totfact> 0.32485589E+01</totfact>
</mgrwt>
</event>
<event>
12    5  0.5197392E-008  0.1734492E+04  0.7818608E-02  0.8741933E-01
         -2   -1    0    0    0  501 -0.00000000000E+00  0.00000000000E+00  0.54939332821E+03  0.54939332821E+03  0.00000000000E+00 0.  1.
          3   -1    0    0  501    0  0.00000000000E+00 -0.00000000000E+00 -0.13689931205E+04  0.13689931205E+04  0.00000000000E+00 0. -1.
        -24    2    1    2    0    0  0.83429555659E+02  0.18378891608E+03 -0.96641706271E+03  0.99050218089E+03  0.79961083141E+02 0.  0.
        254    2    1    2    0    0 -0.83429555659E+02 -0.18378891608E+03  0.14681727041E+03  0.92788426782E+03  0.89368621291E+03 0.  0.
         23    2    4    4    0    0 -0.30665794491E+01 -0.43547454694E+03 -0.19681911887E+03  0.48475965876E+03  0.81281463258E+02 0.  0.
         23    2    4    4    0    0 -0.80362976210E+02  0.25168563085E+03  0.34363638928E+03  0.44312460906E+03  0.92030355823E+02 0.  0.
          1    1    3    3  502    0  0.57457487574E+02  0.14722213195E+03 -0.56824430189E+03  0.58981124578E+03  0.00000000000E+00 0. -1.
         -2    1    3    3    0  502  0.25972068085E+02  0.36566784133E+02 -0.39817276082E+03  0.40069093511E+03  0.00000000000E+00 0.  1.
         13    1    5    5    0    0 -0.16250194840E+02 -0.20229099685E+03 -0.50417063163E+02  0.20911144516E+03  0.00000000000E+00 0. -1.
        -13    1    5    5    0    0  0.13183615391E+02 -0.23318355008E+03 -0.14640205570E+03  0.27564821359E+03  0.00000000000E+00 0.  1.
          4    1    6    6  503    0 -0.33190966764E+02  0.21946495932E+03  0.26025782558E+03  0.34205356952E+03  0.00000000000E+00 0. -1.
         -4    1    6    6    0  503 -0.47172009446E+02  0.32220671531E+02  0.83378563698E+02  0.10107103954E+03  0.00000000000E+00 0.  1.
<mgrwt>
<rscale>  0 0.17344921E+04</rscale>
<asrwt>0</asrwt>
<pdfrwt beam="1">  1        3 0.21061433E+00 0.17344921E+04</pdfrwt>
<pdfrwt beam="2">  1       -2 0.84522050E-01 0.17344921E+04</pdfrwt>
<totfact> 0.60235687E-01</totfact>
</mgrwt>
</event>
<event>
12    5  0.5197392E-008  0.1445537E+04  0.7818608E-02  0.8921500E-01
          1   -1    0    0  501    0  0.00000000000E+00  0.00000000000E+00  0.13188663803E+04  0.13188663803E+04  0.00000000000E+00 0. -1.
         -2   -1    0    0    0  501 -0.00000000000E+00 -0.00000000000E+00 -0.39609346627E+03  0.39609346627E+03  0.00000000000E+00 0.  1.
        -24    2    1    2    0    0  0.69379717295E+02 -0.41672806546E+03  0.30322473048E+03  0.52604262110E+03  0.79371130253E+02 0.  0.
        254    2    1    2    0    0 -0.69379717295E+02  0.41672806546E+03  0.61954818352E+03  0.11889172255E+04  0.92260955531E+03 0.  0.
         23    2    4    4    0    0 -0.38306256684E+03 -0.96344390818E+02  0.23641131300E+03  0.46904157334E+03  0.89947300450E+02 0.  0.
         23    2    4    4    0    0  0.31368284954E+03  0.51307245628E+03  0.38313687052E+03  0.71987565211E+03  0.98928345048E+02 0.  0.
          3    1    3    3  502    0 -0.84786634894E+01 -0.14663710218E+03  0.12785474046E+03  0.19473356703E+03  0.00000000000E+00 0. -1.
         -4    1    3    3    0  502  0.77858380784E+02 -0.27009096329E+03  0.17536999002E+03  0.33130905407E+03  0.00000000000E+00 0.  1.
         13    1    5    5    0    0 -0.23342390255E+02 -0.18466375025E+01 -0.71260164344E+01  0.24475648370E+02  0.00000000000E+00 0. -1.
        -13    1    5    5    0    0 -0.35972017658E+03 -0.94497753315E+02  0.24353732943E+03  0.44456592497E+03  0.00000000000E+00 0.  1.
          4    1    6    6  503    0  0.29714752438E+03  0.51279904518E+03  0.37588159770E+03  0.70181656255E+03  0.00000000000E+00 0.  1.
         -4    1    6    6    0  503  0.16535325161E+02  0.27341109770E+00  0.72552728281E+01  0.18059089557E+02  0.00000000000E+00 0. -1.
<mgrwt>
<rscale>  0 0.14455371E+04</rscale>
<asrwt>0</asrwt>
<pdfrwt beam="1">  1        1 0.20290252E+00 0.14455371E+04</pdfrwt>
<pdfrwt beam="2">  1       -2 0.60937457E-01 0.14455371E+04</pdfrwt>
<totfact> 0.18730575E+01</totfact>
</mgrwt>
</event>
<event>
12    5  0.5197392E-008  0.1492383E+04  0.7818608E-02  0.8889534E-01
         -2   -1    0    0    0  501 -0.00000000000E+00  0.00000000000E+00  0.48415349791E+03  0.48415349791E+03  0.00000000000E+00 0.  1.
          1   -1    0    0  501    0  0.00000000000E+00 -0.00000000000E+00 -0.11500517204E+04  0.11500517204E+04  0.00000000000E+00 0. -1.
        -24    2    1    2    0    0  0.35775600973E+03  0.25990481129E+03 -0.39439171603E+03  0.59798884725E+03  0.80659545880E+02 0.  0.
        254    2    1    2    0    0 -0.35775600973E+03 -0.25990481129E+03 -0.27150650648E+03  0.10362163711E+04  0.89693294688E+03 0.  0.
         23    2    4    4    0    0 -0.27752410996E+02 -0.50487579523E+03  0.33090115564E+02  0.51494828153E+03  0.91689759394E+02 0.  0.
         23    2    4    4    0    0 -0.33000359873E+03  0.24497098394E+03 -0.30459662205E+03  0.52126808955E+03  0.10014070538E+03 0.  0.
          3    1    3    3  502    0  0.14866646418E+02 -0.53762322005E+01 -0.16926829685E+02  0.23161144435E+02  0.00000000000E+00 0. -1.
         -4    1    3    3    0  502  0.34288936331E+03  0.26528104349E+03 -0.37746488634E+03  0.57482770282E+03  0.00000000000E+00 0.  1.
         13    1    5    5    0    0 -0.22127152024E+02 -0.67320911753E+02  0.31010678700E+02  0.77352299315E+02  0.00000000000E+00 0. -1.
        -13    1    5    5    0    0 -0.56252589720E+01 -0.43755488347E+03  0.20794368638E+01  0.43759598221E+03  0.00000000000E+00 0.  1.
          3    1    6    6  503    0 -0.15011848836E+02  0.30649261859E+02 -0.58438617235E+02  0.67674255388E+02  0.00000000000E+00 0. -1.
         -3    1    6    6    0  503 -0.31499174990E+03  0.21432172208E+03 -0.24615800481E+03  0.45359383416E+03  0.00000000000E+00 0.  1.
<mgrwt>
<rscale>  0 0.14923827E+04</rscale>
<asrwt>0</asrwt>
<pdfrwt beam="1">  1        1 0.17693103E+00 0.14923827E+04</pdfrwt>
<pdfrwt beam="2">  1       -2 0.74485155E-01 0.14923827E+04</pdfrwt>
<totfact> 0.16008901E+01</totfact>
</mgrwt>
</event>
<event>
12    5  0.5197392E-008  0.1364940E+04  0.7818608E-02  0.8979595E-01
         -2   -1    0    0    0  501 -0.00000000000E+00  0.00000000000E+00  0.23313735206E+03  0.23313735206E+03  0.00000000000E+00 0.  1.
          1   -1    0    0  501    0  0.00000000000E+00 -0.00000000000E+00 -0.19978144704E+04  0.19978144704E+04  0.00000000000E+00 0. -1.
        -24    2    1    2    0    0  0.34608848357E+03 -0.16091125886E+02 -0.84145910848E+03  0.91350711108E+03  0.80035291925E+02 0.  0.
        254    2    1    2    0    0 -0.34608848357E+03  0.16091125886E+02 -0.92321800982E+03  0.13174447114E+04  0.87366636139E+03 0.  0.
         23    2    4    4    0    0  0.15720952669E+01  0.55770108823E+02 -0.94760759660E+03  0.95366356164E+03  0.91658361023E+02 0.  0.
         23    2    4    4    0    0 -0.34766057884E+03 -0.39678982937E+02  0.24389586774E+02  0.36378114971E+03  0.96434294631E+02 0.  0.
          1    1    3    3  502    0  0.23761904223E+02  0.48260475478E+01 -0.12884204115E+03  0.13110373906E+03  0.00000000000E+00 0. -1.
         -4    1    3    3    0  502  0.32232657935E+03 -0.20917173434E+02 -0.71261706733E+03  0.78240337202E+03  0.00000000000E+00 0.  1.
         13    1    5    5    0    0 -0.25152673506E+02  0.55387411923E+02 -0.85802853642E+03  0.86018218517E+03  0.00000000000E+00 0. -1.
        -13    1    5    5    0    0  0.26724768773E+02  0.38269690059E+00 -0.89579060180E+02  0.93481376464E+02  0.00000000000E+00 0.  1.
          4    1    6    6  503    0 -0.29440183035E+03 -0.38882508862E+01  0.41584604420E+02  0.29734968561E+03  0.00000000000E+00 0. -1.
         -4    1    6    6    0  503 -0.53258748488E+02 -0.35790732051E+02 -0.17195017647E+02  0.66431464105E+02  0.00000000000E+00 0.  1.
<mgrwt>
<rscale>  0 0.13649398E+04</rscale>
<asrwt>0</asrwt>
<pdfrwt beam="1">  1        1 0.30735606E+00 0.13649398E+04</pdfrwt>
<pdfrwt beam="2">  1       -2 0.35867286E-01 0.13649398E+04</pdfrwt>
<totfact> 0.18778114E+01</totfact>
</mgrwt>
</event>
<event>
12    5  0.5197392E-008  0.1624710E+04  0.7818608E-02  0.8805510E-01
          1   -1    0    0  501    0  0.00000000000E+00  0.00000000000E+00  0.17265643839E+04  0.17265643839E+04  0.00000000000E+00 0. -1.
         -2   -1    0    0    0  501 -0.00000000000E+00 -0.00000000000E+00 -0.38221585650E+03  0.38221585650E+03  0.00000000000E+00 0.  1.
        -24    2    1    2    0    0  0.10044184275E+03  0.14318118734E+03  0.11387612814E+04  0.11548877964E+04  0.79994687262E+02 0.  0.
        254    2    1    2    0    0 -0.10044184275E+03 -0.14318118734E+03  0.20558724593E+03  0.95389244397E+03  0.91490724273E+03 0.  0.
         23    2    4    4    0    0  0.12086248228E+03 -0.14167656282E+03  0.51899025902E+03  0.55939044488E+03  0.94269787285E+02 0.  0.
         23    2    4    4    0    0 -0.22130432503E+03 -0.15046245180E+01 -0.31340301309E+03  0.39450199909E+03  0.91828701957E+02 0.  0.
          1    1    3    3  502    0  0.22935026821E+02  0.93541401077E+02  0.69848465311E+03  0.70509348303E+03  0.00000000000E+00 0. -1.
         -2    1    3    3    0  502  0.77506815925E+02  0.49639786259E+02  0.44027662831E+03  0.44979431336E+03  0.00000000000E+00 0.  1.
         13    1    5    5    0    0  0.91370634235E+02 -0.38713416666E+02  0.20765412360E+03  0.23014681505E+03  0.00000000000E+00 0. -1.
        -13    1    5    5    0    0  0.29491848045E+02 -0.10296314615E+03  0.31133613542E+03  0.32924362983E+03  0.00000000000E+00 0.  1.
          2    1    6    6  503    0 -0.25231234264E+02  0.14829162063E+02 -0.65532711732E+01  0.29991075223E+02  0.00000000000E+00 0. -1.
         -2    1    6    6    0  503 -0.19607309076E+03 -0.16333786581E+02 -0.30684974191E+03  0.36451092387E+03  0.00000000000E+00 0.  1.
<mgrwt>
<rscale>  0 0.16247096E+04</rscale>
<asrwt>0</asrwt>
<pdfrwt beam="1">  1        1 0.26562529E+00 0.16247096E+04</pdfrwt>
<pdfrwt beam="2">  1       -2 0.58802440E-01 0.16247096E+04</pdfrwt>
<totfact> 0.10384410E+01</totfact>
</mgrwt>
</event>
<event>
12    5  0.5197392E-008  0.1376810E+04  0.7818608E-02  0.8970778E-01
         -2   -1    0    0    0  501 -0.00000000000E+00  0.00000000000E+00  0.29172381503E+03  0.29172381503E+03  0.00000000000E+00 0.  1.
          1   -1    0    0  501    0  0.00000000000E+00 -0.00000000000E+00 -0.16244875262E+04  0.16244875262E+04  0.00000000000E+00 0. -1.
        -24    2    1    2    0    0  0.23312585099E+03  0.78317616862E+01 -0.80992604712E+03  0.84684209942E+03  0.82172627215E+02 0.  0.
        254    2    1    2    0    0 -0.23312585099E+03 -0.78317616862E+01 -0.52283766410E+03  0.10693692418E+04  0.90320670586E+03 0.  0.
         23    2    4    4    0    0 -0.18546818473E+03  0.21054458060E+00  0.23020969755E+03  0.30959443410E+03  0.91944096619E+02 0.  0.
         23    2    4    4    0    0 -0.47657666264E+02 -0.80423062668E+01 -0.75304736165E+03  0.75977480775E+03  0.88552231767E+02 0.  0.
          3    1    3    3  502    0  0.17625608998E+03  0.36373972090E+02 -0.52815524938E+03  0.55797602327E+03  0.00000000000E+00 0. -1.
         -4    1    3    3    0  502  0.56869761014E+02 -0.28542210404E+02 -0.28177079774E+03  0.28886607615E+03  0.00000000000E+00 0.  1.
         13    1    5    5    0    0 -0.11976360421E+03  0.17080240424E+02  0.20339172518E+03  0.23665005679E+03  0.00000000000E+00 0.  1.
        -13    1    5    5    0    0 -0.65704580518E+02 -0.16869695843E+02  0.26817972369E+02  0.72944377308E+02  0.00000000000E+00 0. -1.
          3    1    6    6  503    0  0.23631784127E+02 -0.11162228893E+02 -0.12611979912E+03  0.12879930242E+03  0.00000000000E+00 0. -1.
         -3    1    6    6    0  503 -0.71289450390E+02  0.31199226260E+01 -0.62692756254E+03  0.63097550533E+03  0.00000000000E+00 0.  1.
<mgrwt>
<rscale>  0 0.13768104E+04</rscale>
<asrwt>0</asrwt>
<pdfrwt beam="1">  1        1 0.24992115E+00 0.13768104E+04</pdfrwt>
<pdfrwt beam="2">  1       -2 0.44880588E-01 0.13768104E+04</pdfrwt>
<totfact> 0.21667886E+01</totfact>
</mgrwt>
</event>
<event>
12    5  0.5197392E-008  0.1752929E+04  0.7818608E-02  0.8731740E-01
         -2   -1    0    0    0  501 -0.00000000000E+00  0.00000000000E+00  0.25821328857E+04  0.25821328857E+04  0.00000000000E+00 0.  1.
          1   -1    0    0  501    0  0.00000000000E+00 -0.00000000000E+00 -0.29750223312E+03  0.29750223312E+03  0.00000000000E+00 0. -1.
        -24    2    1    2    0    0 -0.24430772157E+03  0.50151194275E+03  0.33098968884E+03  0.65395297251E+03  0.83065182827E+02 0.  0.
        254    2    1    2    0    0  0.24430772157E+03 -0.50151194275E+03  0.19536409637E+04  0.22256821463E+04  0.90870650360E+03 0.  0.
         23    2    4    4    0    0  0.35700342665E+03  0.15065162182E+03  0.75068139638E+03  0.84962719790E+03  0.90534296004E+02 0.  0.
         23    2    4    4    0    0 -0.11269570509E+03 -0.65216356457E+03  0.12029595674E+04  0.13760549484E+04  0.91639857272E+02 0.  0.
          1    1    3    3  502    0 -0.11370030082E+03  0.31463284828E+03  0.17358134675E+03  0.37689795909E+03  0.00000000000E+00 0. -1.
         -2    1    3    3    0  502 -0.13060742074E+03  0.18687909447E+03  0.15740834209E+03  0.27705501342E+03  0.00000000000E+00 0.  1.
         13    1    5    5    0    0  0.13995020818E+02  0.24997676542E+02  0.29030301102E+02  0.40786061618E+02  0.00000000000E+00 0. -1.
        -13    1    5    5    0    0  0.34300840583E+03  0.12565394528E+03  0.72165109528E+03  0.80884113629E+03  0.00000000000E+00 0.  1.
          3    1    6    6  503    0 -0.44494409534E+02 -0.44659464288E+03  0.86814575001E+03  0.97729400427E+03  0.00000000000E+00 0. -1.
         -3    1    6    6    0  503 -0.68201295551E+02 -0.20556892169E+03  0.33481381736E+03  0.39876094415E+03  0.00000000000E+00 0.  1.
<mgrwt>
<rscale>  0 0.17529293E+04</rscale>
<asrwt>0</asrwt>
<pdfrwt beam="1">  1        1 0.45769576E-01 0.17529293E+04</pdfrwt>
<pdfrwt beam="2">  1       -2 0.39725120E+00 0.17529293E+04</pdfrwt>
<totfact> 0.57069099E-01</totfact>
</mgrwt>
</event>
<event>
12    5  0.5197392E-008  0.1519357E+04  0.7818608E-02  0.8871682E-01
          1   -1    0    0  501    0  0.00000000000E+00  0.00000000000E+00  0.19843392636E+04  0.19843392636E+04  0.00000000000E+00 0. -1.
         -2   -1    0    0    0  501 -0.00000000000E+00 -0.00000000000E+00 -0.29083312346E+03  0.29083312346E+03  0.00000000000E+00 0.  1.
        -24    2    1    2    0    0 -0.56380815673E+02  0.56105169728E+02 -0.17286838186E+03  0.20618423686E+03  0.79384353850E+02 0.  0.
        254    2    1    2    0    0  0.56380815673E+02 -0.56105169728E+02  0.18663745220E+04  0.20689881502E+04  0.88939952939E+03 0.  0.
         23    2    4    4    0    0  0.44815065987E+03 -0.68456166668E+00  0.12498727751E+04  0.13308415878E+04  0.90099363911E+02 0.  0.
         23    2    4    4    0    0 -0.39176984420E+03 -0.55420608061E+02  0.61650174693E+03  0.73814656241E+03  0.90724247067E+02 0.  0.
          1    1    3    3  502    0 -0.24446620416E+02  0.52769641514E+02 -0.42792970086E+02  0.72204643923E+02  0.00000000000E+00 0. -1.
         -2    1    3    3    0  502 -0.31934195257E+02  0.33355282141E+01 -0.13007541178E+03  0.13397959294E+03  0.00000000000E+00 0.  1.
         13    1    5    5    0    0  0.12849664476E+03 -0.27356913189E+02  0.45796571617E+03  0.47643717907E+03  0.00000000000E+00 0. -1.
        -13    1    5    5    0    0  0.31965401512E+03  0.26672351522E+02  0.79190705891E+03  0.85440440873E+03  0.00000000000E+00 0.  1.
          3    1    6    6  503    0 -0.98122867762E+02 -0.44644586268E+01  0.90405666359E+02  0.13349611634E+03  0.00000000000E+00 0. -1.
         -3    1    6    6    0  503 -0.29364697644E+03 -0.50956149434E+02  0.52609608057E+03  0.60465044606E+03  0.00000000000E+00 0.  1.
<mgrwt>
<rscale>  0 0.15193572E+04</rscale>
<asrwt>0</asrwt>
<pdfrwt beam="1">  1        1 0.30528296E+00 0.15193572E+04</pdfrwt>
<pdfrwt beam="2">  1       -2 0.44743559E-01 0.15193572E+04</pdfrwt>
<totfact> 0.12272591E+01</totfact>
</mgrwt>
</event>
<event>
12    5  0.5197392E-008  0.1726336E+04  0.7818608E-02  0.8746485E-01
          1   -1    0    0  501    0  0.00000000000E+00  0.00000000000E+00  0.14458341784E+04  0.14458341784E+04  0.00000000000E+00 0. -1.
         -4   -1    0    0    0  501 -0.00000000000E+00 -0.00000000000E+00 -0.51531403268E+03  0.51531403268E+03  0.00000000000E+00 0.  1.
        -24    2    1    2    0    0 -0.20028093870E+03 -0.15222211036E+03  0.99555723253E+03  0.10302054822E+04  0.83096973721E+02 0.  0.
        254    2    1    2    0    0  0.20028093870E+03  0.15222211036E+03 -0.65037086770E+02  0.93094272891E+03  0.89394659604E+03 0.  0.
         23    2    4    4    0    0  0.35065939652E+02  0.47595743552E+03 -0.20919242073E+03  0.52909556894E+03  0.91736315821E+02 0.  0.
         23    2    4    4    0    0  0.16521499905E+03 -0.32373532516E+03  0.14415533396E+03  0.40184715996E+03  0.92735230608E+02 0.  0.
          1    1    3    3  502    0 -0.17681609016E+03 -0.10845515881E+03  0.88537864424E+03  0.90935240412E+03  0.00000000000E+00 0. -1.
         -2    1    3    3    0  502 -0.23464848547E+02 -0.43766951547E+02  0.11017858829E+03  0.12085307809E+03  0.00000000000E+00 0.  1.
         13    1    5    5    0    0  0.41925766902E+02  0.10779677903E+03 -0.29500702360E+02  0.11936585332E+03  0.00000000000E+00 0. -1.
        -13    1    5    5    0    0 -0.68598272502E+01  0.36816065649E+03 -0.17969171837E+03  0.40972971562E+03  0.00000000000E+00 0.  1.
          3    1    6    6  503    0 -0.93422453621E+01 -0.30389851947E+02  0.24471370653E+02  0.40120675859E+02  0.00000000000E+00 0. -1.
         -3    1    6    6    0  503  0.17455724441E+03 -0.29334547321E+03  0.11968396331E+03  0.36172648411E+03  0.00000000000E+00 0.  1.
<mgrwt>
<rscale>  0 0.17263356E+04</rscale>
<asrwt>0</asrwt>
<pdfrwt beam="1">  1        1 0.22243603E+00 0.17263356E+04</pdfrwt>
<pdfrwt beam="2">  1       -4 0.79279083E-01 0.17263356E+04</pdfrwt>
<totfact> 0.47007506E+00</totfact>
</mgrwt>
</event>
<event>
12    5  0.5197392E-008  0.1368033E+04  0.7818608E-02  0.8977288E-01
         -2   -1    0    0    0  501 -0.00000000000E+00  0.00000000000E+00  0.54363830193E+03  0.54363830193E+03  0.00000000000E+00 0.  1.
          1   -1    0    0  501    0  0.00000000000E+00 -0.00000000000E+00 -0.86064355818E+03  0.86064355818E+03  0.00000000000E+00 0. -1.
        -24    2    1    2    0    0  0.13522914081E+03  0.53487931752E+02 -0.45080737491E+03  0.48052693902E+03  0.80814420043E+02 0.  0.
        254    2    1    2    0    0 -0.13522914081E+03 -0.53487931752E+02  0.13380211865E+03  0.92375492109E+03  0.90237036072E+03 0.  0.
         23    2    4    4    0    0 -0.10725825942E+03  0.29492483260E+01  0.51131131152E+03  0.53026101508E+03  0.90688778490E+02 0.  0.
         23    2    4    4    0    0 -0.27970881384E+02 -0.56437180078E+02 -0.37750919287E+03  0.39349390601E+03  0.91415194942E+02 0.  0.
          3    1    3    3  502    0  0.68278742721E+02  0.68906988180E+02 -0.24251894227E+03  0.26120030070E+03  0.00000000000E+00 0. -1.
         -4    1    3    3    0  502  0.66950398086E+02 -0.15419056428E+02 -0.20828843264E+03  0.21932663832E+03  0.00000000000E+00 0.  1.
         13    1    5    5    0    0  0.26676545808E+01 -0.24776559980E+02  0.13355117658E+03  0.13585621469E+03  0.00000000000E+00 0. -1.
        -13    1    5    5    0    0 -0.10992591400E+03  0.27725808306E+02  0.37776013494E+03  0.39440480039E+03  0.00000000000E+00 0.  1.
          4    1    6    6  503    0  0.31708035335E+02 -0.35644296132E+02 -0.17114034595E+03  0.17766522835E+03  0.00000000000E+00 0. -1.
         -4    1    6    6    0  503 -0.59678916719E+02 -0.20792883946E+02 -0.20636884692E+03  0.21582867766E+03  0.00000000000E+00 0.  1.
<mgrwt>
<rscale>  0 0.13680333E+04</rscale>
<asrwt>0</asrwt>
<pdfrwt beam="1">  1        1 0.13240670E+00 0.13680333E+04</pdfrwt>
<pdfrwt beam="2">  1       -2 0.83636662E-01 0.13680333E+04</pdfrwt>
<totfact> 0.21008804E+01</totfact>
</mgrwt>
</event>
<event>
12    5  0.5197392E-008  0.1132257E+04  0.7818608E-02  0.9174310E-01
          1   -1    0    0  501    0  0.00000000000E+00  0.00000000000E+00  0.10152763457E+04  0.10152763457E+04  0.00000000000E+00 0. -1.
         -2   -1    0    0    0  501 -0.00000000000E+00 -0.00000000000E+00 -0.31567884995E+03  0.31567884995E+03  0.00000000000E+00 0.  1.
        -24    2    1    2    0    0 -0.15393505341E+02 -0.86037930360E+02  0.34542331779E+03  0.36503602388E+03  0.79338167301E+02 0.  0.
        254    2    1    2    0    0  0.15393505341E+02  0.86037930360E+02  0.35417417792E+03  0.96591917173E+03  0.89438303457E+03 0.  0.
         23    2    4    4    0    0 -0.30436985084E+02 -0.39483317161E+03  0.13965736369E+03  0.42982904977E+03  0.91810616612E+02 0.  0.
         23    2    4    4    0    0  0.45830490425E+02  0.48087110197E+03  0.21451681424E+03  0.53609012196E+03  0.89653247049E+02 0.  0.
          3    1    3    3  502    0  0.68144101928E+01 -0.94018370885E+02  0.28400231630E+03  0.29923770804E+03  0.00000000000E+00 0. -1.
         -4    1    3    3    0  502 -0.22207915534E+02  0.79804405251E+01  0.61421001494E+02  0.65798315843E+02  0.00000000000E+00 0.  1.
         13    1    5    5    0    0 -0.50653466044E+02 -0.16077937867E+03  0.32747124283E+02  0.17172115879E+03  0.00000000000E+00 0.  1.
        -13    1    5    5    0    0  0.20216480960E+02 -0.23405379294E+03  0.10691023940E+03  0.25810789097E+03  0.00000000000E+00 0. -1.
          1    1    6    6  503    0  0.64091746811E+01 -0.18278748551E+01  0.75612377644E+00  0.67074860972E+01  0.00000000000E+00 0. -1.
         -1    1    6    6    0  503  0.39421315743E+02  0.48269897683E+03  0.21376069046E+03  0.52938263586E+03  0.00000000000E+00 0.  1.
<mgrwt>
<rscale>  0 0.11322566E+04</rscale>
<asrwt>0</asrwt>
<pdfrwt beam="1">  1        1 0.15619636E+00 0.11322566E+04</pdfrwt>
<pdfrwt beam="2">  1       -2 0.48565977E-01 0.11322566E+04</pdfrwt>
<totfact> 0.51523543E+01</totfact>
</mgrwt>
</event>
<event>
12    5  0.5197392E-008  0.1293614E+04  0.7818608E-02  0.9034645E-01
         -2   -1    0    0    0  501 -0.00000000000E+00  0.00000000000E+00  0.15710466204E+03  0.15710466204E+03  0.00000000000E+00 0.  1.
          1   -1    0    0  501    0  0.00000000000E+00 -0.00000000000E+00 -0.26629337469E+04  0.26629337469E+04  0.00000000000E+00 0. -1.
        -24    2    1    2    0    0  0.31754387842E+03 -0.53126353309E+02 -0.79191541119E+03  0.85866848208E+03  0.80777592758E+02 0.  0.
        254    2    1    2    0    0 -0.31754387842E+03  0.53126353309E+02 -0.17139136737E+04  0.19613699269E+04  0.89767220357E+03 0.  0.
         23    2    4    4    0    0 -0.33739775638E+03 -0.16646020744E+03 -0.16760126919E+04  0.17201598625E+04  0.91570531169E+02 0.  0.
         23    2    4    4    0    0  0.19853877953E+02  0.21958656075E+03 -0.37900981719E+02  0.24121006440E+03  0.90185235039E+02 0.  0.
          1    1    3    3  502    0  0.30916798531E+03 -0.55422103900E+02 -0.78945111062E+03  0.84964081164E+03  0.00000000000E+00 0. -1.
         -2    1    3    3    0  502  0.83758931160E+01  0.22957505910E+01 -0.24643005694E+01  0.90276704394E+01  0.00000000000E+00 0.  1.
         13    1    5    5    0    0 -0.34105515617E+03 -0.16224096985E+03 -0.16689832239E+04  0.17111825600E+04  0.00000000000E+00 0.  1.
        -13    1    5    5    0    0  0.36573997894E+01 -0.42192375897E+01 -0.70294680154E+01  0.89773024700E+01  0.00000000000E+00 0. -1.
          3    1    6    6  503    0  0.23120873017E+02  0.10615803009E+03  0.24973494384E+02  0.11147994233E+03  0.00000000000E+00 0. -1.
         -3    1    6    6    0  503 -0.32669950645E+01  0.11342853067E+03 -0.62874476103E+02  0.12973012207E+03  0.00000000000E+00 0.  1.
<mgrwt>
<rscale>  0 0.12936140E+04</rscale>
<asrwt>0</asrwt>
<pdfrwt beam="1">  1        1 0.40968210E+00 0.12936140E+04</pdfrwt>
<pdfrwt beam="2">  1       -2 0.24169949E-01 0.12936140E+04</pdfrwt>
<totfact> 0.13805595E+01</totfact>
</mgrwt>
</event>
<event>
12    5  0.5197392E-008  0.2358166E+04  0.7818608E-02  0.8455334E-01
          1   -1    0    0  501    0  0.00000000000E+00  0.00000000000E+00  0.97872017713E+03  0.97872017713E+03  0.00000000000E+00 0. -1.
         -2   -1    0    0    0  501 -0.00000000000E+00 -0.00000000000E+00 -0.14204638139E+04  0.14204638139E+04  0.00000000000E+00 0.  1.
        -24    2    1    2    0    0 -0.34757523889E+03  0.35242551570E+03  0.69751457354E+03  0.85903344360E+03  0.79997413242E+02 0.  0.
        254    2    1    2    0    0  0.34757523889E+03 -0.35242551570E+03 -0.11392582103E+04  0.15401505474E+04  0.91057242884E+03 0.  0.
         23    2    4    4    0    0 -0.38666650490E+02 -0.47664972793E+03 -0.22621488250E+03  0.53676583792E+03  0.90853281169E+02 0.  0.
         23    2    4    4    0    0  0.38624188938E+03  0.12422421224E+03 -0.91304332779E+03  0.10033847095E+04  0.92294662786E+02 0.  0.
          1    1    3    3  502    0 -0.14715723374E+03  0.18930959933E+03  0.38448704012E+03  0.45312653846E+03  0.00000000000E+00 0. -1.
         -2    1    3    3    0  502 -0.20041800515E+03  0.16311591637E+03  0.31302753341E+03  0.40590690514E+03  0.00000000000E+00 0.  1.
         13    1    5    5    0    0 -0.65252001810E+02 -0.24525335624E+03 -0.12234944315E+03  0.28173820956E+03  0.00000000000E+00 0.  1.
        -13    1    5    5    0    0  0.26585351320E+02 -0.23139637169E+03 -0.10386543935E+03  0.25502762836E+03  0.00000000000E+00 0. -1.
          1    1    6    6  503    0  0.37151608358E+03  0.13737077812E+03 -0.87664801635E+03  0.96198060044E+03  0.00000000000E+00 0.  1.
         -1    1    6    6    0  503  0.14725805802E+02 -0.13146565887E+02 -0.36395311437E+02  0.41404109044E+02  0.00000000000E+00 0. -1.
<mgrwt>
<rscale>  0 0.23581659E+04</rscale>
<asrwt>0</asrwt>
<pdfrwt beam="1">  1        1 0.15057234E+00 0.23581659E+04</pdfrwt>
<pdfrwt beam="2">  1       -2 0.21853289E+00 0.23581659E+04</pdfrwt>
<totfact> 0.12521000E+00</totfact>
</mgrwt>
</event>
<event>
12    5  0.5197392E-008  0.1277394E+04  0.7818608E-02  0.9047686E-01
          1   -1    0    0  501    0  0.00000000000E+00  0.00000000000E+00  0.34592488104E+04  0.34592488104E+04  0.00000000000E+00 0. -1.
         -2   -1    0    0    0  501 -0.00000000000E+00 -0.00000000000E+00 -0.11792565032E+03  0.11792565032E+03  0.00000000000E+00 0.  1.
        -24    2    1    2    0    0 -0.60732513581E+02 -0.55449647932E+01 -0.15623143803E+02  0.10048087053E+03  0.78314352961E+02 0.  0.
        254    2    1    2    0    0  0.60732513581E+02  0.55449647932E+01  0.33569463039E+04  0.34766935902E+04  0.90254675673E+03 0.  0.
         23    2    4    4    0    0  0.39863961501E+03 -0.24050084462E+03  0.18892833039E+04  0.19479781660E+04  0.92050715038E+02 0.  0.
         23    2    4    4    0    0 -0.33790710143E+03  0.24604580942E+03  0.14676630000E+04  0.15287154242E+04  0.90644453334E+02 0.  0.
          1    1    3    3  502    0  0.95918959791E+01  0.45180179421E+01  0.18766164498E+02  0.21554254443E+02  0.00000000000E+00 0. -1.
         -4    1    3    3    0  502 -0.70324409560E+02 -0.10062982735E+02 -0.34389308302E+02  0.78926616087E+02  0.00000000000E+00 0.  1.
         13    1    5    5    0    0  0.31599789486E+03 -0.21280534372E+03  0.16471906915E+04  0.16906738177E+04  0.00000000000E+00 0. -1.
        -13    1    5    5    0    0  0.82641720153E+02 -0.27695500901E+02  0.24209261239E+03  0.25730434830E+03  0.00000000000E+00 0.  1.
          3    1    6    6  503    0  0.39044266495E+00 -0.19481527752E+01 -0.29103084034E+00  0.20080945346E+01  0.00000000000E+00 0. -1.
         -3    1    6    6    0  503 -0.33829754410E+03  0.24799396219E+03  0.14679540309E+04  0.15267073296E+04  0.00000000000E+00 0.  1.
<mgrwt>
<rscale>  0 0.12773945E+04</rscale>
<asrwt>0</asrwt>
<pdfrwt beam="1">  1        1 0.53219205E+00 0.12773945E+04</pdfrwt>
<pdfrwt beam="2">  1       -2 0.18142410E-01 0.12773945E+04</pdfrwt>
<totfact> 0.59990848E+00</totfact>
</mgrwt>
</event>
<event>
12    5  0.5197392E-008  0.2116957E+04  0.7818608E-02  0.8553810E-01
         -2   -1    0    0    0  501 -0.00000000000E+00  0.00000000000E+00  0.58656674087E+03  0.58656674087E+03  0.00000000000E+00 0.  1.
          1   -1    0    0  501    0  0.00000000000E+00 -0.00000000000E+00 -0.19100586175E+04  0.19100586175E+04  0.00000000000E+00 0. -1.
        -24    2    1    2    0    0 -0.63100625900E+03 -0.22668629184E+03  0.96883976302E+02  0.68225076741E+03  0.80771473717E+02 0.  0.
        254    2    1    2    0    0  0.63100625900E+03  0.22668629184E+03 -0.14203758530E+04  0.18143745910E+04  0.90825768311E+03 0.  0.
         23    2    4    4    0    0  0.77353461662E+03  0.29552167216E+03 -0.75419206390E+03  0.11235881444E+04  0.89195219554E+02 0.  0.
         23    2    4    4    0    0 -0.14252835763E+03 -0.68835380322E+02 -0.66618378906E+03  0.69078644657E+03  0.91282154014E+02 0.  0.
          1    1    3    3  502    0 -0.30618140022E+03 -0.72024338473E+02  0.64012862804E+02  0.32098629531E+03  0.00000000000E+00 0. -1.
         -2    1    3    3    0  502 -0.32482485878E+03 -0.15466195337E+03  0.32871113498E+02  0.36126447210E+03  0.00000000000E+00 0.  1.
         13    1    5    5    0    0  0.73114328314E+03  0.26030776426E+03 -0.68523570073E+03  0.10353156998E+04  0.00000000000E+00 0. -1.
        -13    1    5    5    0    0  0.42391333485E+02  0.35213907898E+02 -0.68956363166E+02  0.88272444654E+02  0.00000000000E+00 0.  1.
          2    1    6    6  503    0 -0.60453439332E+02 -0.79567418549E+02 -0.36866280075E+03  0.38196577475E+03  0.00000000000E+00 0. -1.
         -2    1    6    6    0  503 -0.82074918295E+02  0.10732038227E+02 -0.29752098831E+03  0.30882067182E+03  0.00000000000E+00 0.  1.
<mgrwt>
<rscale>  0 0.21169571E+04</rscale>
<asrwt>0</asrwt>
<pdfrwt beam="1">  1        1 0.29385517E+00 0.21169571E+04</pdfrwt>
<pdfrwt beam="2">  1       -2 0.90241037E-01 0.21169571E+04</pdfrwt>
<totfact> 0.29052452E+00</totfact>
</mgrwt>
</event>
<event>
12    5  0.5197392E-008  0.1694002E+04  0.7818608E-02  0.8764793E-01
          1   -1    0    0  501    0  0.00000000000E+00  0.00000000000E+00  0.13077345174E+04  0.13077345174E+04  0.00000000000E+00 0. -1.
         -2   -1    0    0    0  501 -0.00000000000E+00 -0.00000000000E+00 -0.54859050634E+03  0.54859050634E+03  0.00000000000E+00 0.  1.
        -24    2    1    2    0    0  0.18021762620E+02  0.41843421875E+03 -0.21626214259E+03  0.47758541061E+03  0.76853957327E+02 0.  0.
        254    2    1    2    0    0 -0.18021762620E+02 -0.41843421875E+03  0.97540615360E+03  0.13787396131E+04  0.87982599238E+03 0.  0.
         23    2    4    4    0    0 -0.20187650925E+03 -0.63464029419E+03  0.61246345977E+03  0.90899129202E+03  0.87357034184E+02 0.  0.
         23    2    4    4    0    0  0.18385474663E+03  0.21620607543E+03  0.36294269383E+03  0.46974832107E+03  0.91588488527E+02 0.  0.
          3    1    3    3  502    0  0.11904824065E+01  0.28607522620E+01  0.54484473813E+01  0.62679127891E+01  0.00000000000E+00 0. -1.
         -4    1    3    3    0  502  0.16831280213E+02  0.41557346649E+03 -0.22171058997E+03  0.47131749782E+03  0.00000000000E+00 0.  1.
         13    1    5    5    0    0 -0.15307311423E+03 -0.39795819907E+03  0.43539854848E+03  0.60940462956E+03  0.00000000000E+00 0. -1.
        -13    1    5    5    0    0 -0.48803395017E+02 -0.23668209512E+03  0.17706491128E+03  0.29958666246E+03  0.00000000000E+00 0.  1.
          4    1    6    6  503    0  0.72935824019E+02  0.49077212392E+02  0.60061613856E+02  0.10646879665E+03  0.00000000000E+00 0. -1.
         -4    1    6    6    0  503  0.11091892261E+03  0.16712886304E+03  0.30288107998E+03  0.36327952442E+03  0.00000000000E+00 0.  1.
<mgrwt>
<rscale>  0 0.16940021E+04</rscale>
<asrwt>0</asrwt>
<pdfrwt beam="1">  1        1 0.20118992E+00 0.16940021E+04</pdfrwt>
<pdfrwt beam="2">  1       -2 0.84398540E-01 0.16940021E+04</pdfrwt>
<totfact> 0.91348300E+00</totfact>
</mgrwt>
</event>
<event>
12    5  0.5197392E-008  0.1423198E+04  0.7818608E-02  0.8937196E-01
         -2   -1    0    0    0  501 -0.00000000000E+00  0.00000000000E+00  0.20871290614E+03  0.20871290614E+03  0.00000000000E+00 0.  1.
          1   -1    0    0  501    0  0.00000000000E+00 -0.00000000000E+00 -0.24261704843E+04  0.24261704843E+04  0.00000000000E+00 0. -1.
        -24    2    1    2    0    0 -0.55937342501E+02  0.40391049534E+03 -0.84550422440E+03  0.94240690565E+03  0.83550630167E+02 0.  0.
        254    2    1    2    0    0  0.55937342501E+02 -0.40391049534E+03 -0.13719533538E+04  0.16924764848E+04  0.90329838489E+03 0.  0.
         23    2    4    4    0    0  0.29045066959E+03  0.97243076649E+02 -0.16177927370E+03  0.35863871024E+03  0.92905240209E+02 0.  0.
         23    2    4    4    0    0 -0.23451332709E+03 -0.50115357199E+03 -0.12101740801E+04  0.13338377746E+04  0.91926609236E+02 0.  0.
          3    1    3    3  502    0 -0.41646141418E+02  0.38493492068E+03 -0.82370924143E+03  0.91016823097E+03  0.00000000000E+00 0. -1.
         -4    1    3    3    0  502 -0.14291201084E+02  0.18975574664E+02 -0.21794982970E+02  0.32238674677E+02  0.00000000000E+00 0.  1.
         13    1    5    5    0    0  0.26490845740E+03  0.58187546402E+02 -0.15216381687E+03  0.31099213579E+03  0.00000000000E+00 0. -1.
        -13    1    5    5    0    0  0.25542212187E+02  0.39055530247E+02 -0.96154568370E+01  0.47646574446E+02  0.00000000000E+00 0.  1.
          2    1    6    6  503    0 -0.24084951582E+03 -0.48248353523E+03 -0.11428662243E+04  0.12637017281E+04  0.00000000000E+00 0. -1.
         -2    1    6    6    0  503  0.63361887362E+01 -0.18670036761E+02 -0.67307855847E+02  0.70136046503E+02  0.00000000000E+00 0.  1.
<mgrwt>
<rscale>  0 0.14231979E+04</rscale>
<asrwt>0</asrwt>
<pdfrwt beam="1">  1        1 0.37325702E+00 0.14231979E+04</pdfrwt>
<pdfrwt beam="2">  1       -2 0.32109676E-01 0.14231979E+04</pdfrwt>
<totfact> 0.11787831E+01</totfact>
</mgrwt>
</event>
<event>
12    5  0.5197392E-008  0.2019609E+04  0.7818608E-02  0.8597507E-01
          1   -1    0    0  501    0  0.00000000000E+00  0.00000000000E+00  0.66320310173E+03  0.66320310173E+03  0.00000000000E+00 0. -1.
         -2   -1    0    0    0  501 -0.00000000000E+00 -0.00000000000E+00 -0.15375457918E+04  0.15375457918E+04  0.00000000000E+00 0.  1.
        -24    2    1    2    0    0 -0.17806335651E+02 -0.34012068702E+03  0.44168540113E+03  0.56575870967E+03  0.94856611044E+02 0.  0.
        254    2    1    2    0    0  0.17806335651E+02  0.34012068702E+03 -0.13160280912E+04  0.16349901839E+04  0.90844032121E+03 0.  0.
         23    2    4    4    0    0 -0.34965004145E+03  0.39230074707E+03 -0.10220790441E+04  0.11528540346E+04  0.90949574998E+02 0.  0.
         23    2    4    4    0    0  0.36745637710E+03 -0.52180060045E+02 -0.29394904718E+03  0.48213614929E+03  0.91116828173E+02 0.  0.
          3    1    3    3  502    0 -0.21886348261E+02 -0.34423241017E+03  0.44108041650E+03  0.55993472679E+03  0.00000000000E+00 0. -1.
         -4    1    3    3    0  502  0.40800126101E+01  0.41117231447E+01  0.60498463669E+00  0.58239828750E+01  0.00000000000E+00 0.  1.
         13    1    5    5    0    0 -0.31757877532E+03  0.30594111690E+03 -0.85776876289E+03  0.96448094649E+03  0.00000000000E+00 0. -1.
        -13    1    5    5    0    0 -0.32071266121E+02  0.86359630167E+02 -0.16431028116E+03  0.18837308812E+03  0.00000000000E+00 0.  1.
          1    1    6    6  503    0  0.27600287989E+03 -0.71877167762E+02 -0.19224913134E+03  0.34395296983E+03  0.00000000000E+00 0. -1.
         -1    1    6    6    0  503  0.91453497210E+02  0.19697107717E+02 -0.10169991584E+03  0.13818317946E+03  0.00000000000E+00 0.  1.
<mgrwt>
<rscale>  0 0.20196090E+04</rscale>
<asrwt>0</asrwt>
<pdfrwt beam="1">  1        1 0.10203125E+00 0.20196090E+04</pdfrwt>
<pdfrwt beam="2">  1       -2 0.23654551E+00 0.20196090E+04</pdfrwt>
<totfact> 0.18651726E+00</totfact>
</mgrwt>
</event>
<event>
12    5  0.5197392E-008  0.1349041E+04  0.7818608E-02  0.8991555E-01
         -2   -1    0    0    0  501 -0.00000000000E+00  0.00000000000E+00  0.49280251436E+03  0.49280251436E+03  0.00000000000E+00 0.  1.
          1   -1    0    0  501    0  0.00000000000E+00 -0.00000000000E+00 -0.92324526864E+03  0.92324526864E+03  0.00000000000E+00 0. -1.
        -24    2    1    2    0    0  0.15093279256E+03 -0.97444600593E+02 -0.45004732908E+03  0.49098157908E+03  0.79019962850E+02 0.  0.
        254    2    1    2    0    0 -0.15093279256E+03  0.97444600593E+02  0.19604574798E+02  0.92506620392E+03  0.90724141452E+03 0.  0.
         23    2    4    4    0    0 -0.80150229794E+02 -0.96707282074E+01  0.45106687781E+03  0.46667007723E+03  0.88329216001E+02 0.  0.
         23    2    4    4    0    0 -0.70782562770E+02  0.10711532880E+03 -0.43146230301E+03  0.45839612669E+03  0.86506792737E+02 0.  0.
          3    1    3    3  502    0  0.10776489555E+03 -0.23314368318E+02 -0.24140077337E+03  0.26538870712E+03  0.00000000000E+00 0. -1.
         -4    1    3    3    0  502  0.43167897011E+02 -0.74130232275E+02 -0.20864655571E+03  0.22559287196E+03  0.00000000000E+00 0.  1.
         13    1    5    5    0    0 -0.55429561033E+02  0.72101525527E+01  0.41934555189E+03  0.42305450526E+03  0.00000000000E+00 0.  1.
        -13    1    5    5    0    0 -0.24720668762E+02 -0.16880880760E+02  0.31721325926E+02  0.43615571964E+02  0.00000000000E+00 0. -1.
          4    1    6    6  503    0 -0.73554993202E+02  0.34622881847E+02 -0.25345130218E+03  0.26617032808E+03  0.00000000000E+00 0.  1.
         -4    1    6    6    0  503  0.27724304313E+01  0.72492446953E+02 -0.17801100083E+03  0.19222579862E+03  0.00000000000E+00 0. -1.
<mgrwt>
<rscale>  0 0.13490405E+04</rscale>
<asrwt>0</asrwt>
<pdfrwt beam="1">  1        1 0.14203773E+00 0.13490405E+04</pdfrwt>
<pdfrwt beam="2">  1       -2 0.75815772E-01 0.13490405E+04</pdfrwt>
<totfact> 0.23299799E+01</totfact>
</mgrwt>
</event>
<event>
12    5  0.5197392E-008  0.2455935E+04  0.7818608E-02  0.8418854E-01
          1   -1    0    0  501    0  0.00000000000E+00  0.00000000000E+00  0.11985167788E+04  0.11985167788E+04  0.00000000000E+00 0. -1.
         -2   -1    0    0    0  501 -0.00000000000E+00 -0.00000000000E+00 -0.12581416058E+04  0.12581416058E+04  0.00000000000E+00 0.  1.
        -24    2    1    2    0    0 -0.89704861854E+03  0.38503570742E+03 -0.43397903490E+03  0.10712993770E+04  0.79973947794E+02 0.  0.
        254    2    1    2    0    0  0.89704861854E+03 -0.38503570742E+03  0.37435420796E+03  0.13853590076E+04  0.90891682074E+03 0.  0.
         23    2    4    4    0    0  0.53640089430E+03 -0.45777981590E+03  0.61155798837E+03  0.93783482194E+03  0.90789321205E+02 0.  0.
         23    2    4    4    0    0  0.36064772423E+03  0.72744108480E+02 -0.23720378041E+03  0.44752418570E+03  0.93025679432E+02 0.  0.
          1    1    3    3  502    0 -0.22763315637E+03  0.99826857747E+02 -0.73119854656E+02  0.25909220087E+03  0.00000000000E+00 0. -1.
         -2    1    3    3    0  502 -0.66941546217E+03  0.28520884967E+03 -0.36085918024E+03  0.81220717609E+03  0.00000000000E+00 0.  1.
         13    1    5    5    0    0  0.49166278331E+03 -0.43509945853E+03  0.53806554291E+03  0.84885709031E+03  0.00000000000E+00 0.  1.
        -13    1    5    5    0    0  0.44738110997E+02 -0.22680357374E+02  0.73492445466E+02  0.88977731634E+02  0.00000000000E+00 0. -1.
          3    1    6    6  503    0  0.41076022156E+02 -0.90015100258E+01 -0.59447439472E+02  0.72816652207E+02  0.00000000000E+00 0. -1.
         -3    1    6    6    0  503  0.31957170208E+03  0.81745618506E+02 -0.17775634094E+03  0.37470753350E+03  0.00000000000E+00 0.  1.
<mgrwt>
<rscale>  0 0.24559347E+04</rscale>
<asrwt>0</asrwt>
<pdfrwt beam="1">  1        1 0.18438720E+00 0.24559347E+04</pdfrwt>
<pdfrwt beam="2">  1       -2 0.19356025E+00 0.24559347E+04</pdfrwt>
<totfact> 0.12298369E+00</totfact>
</mgrwt>
</event>
<event>
12    5  0.5197392E-008  0.1630259E+04  0.7818608E-02  0.8802172E-01
          1   -1    0    0  501    0  0.00000000000E+00  0.00000000000E+00  0.70472965812E+03  0.70472965812E+03  0.00000000000E+00 0. -1.
         -2   -1    0    0    0  501 -0.00000000000E+00 -0.00000000000E+00 -0.94282388741E+03  0.94282388741E+03  0.00000000000E+00 0.  1.
        -24    2    1    2    0    0 -0.10338478518E+03 -0.21780140195E+03  0.40516794187E+03  0.47793060455E+03  0.78299023886E+02 0.  0.
        254    2    1    2    0    0  0.10338478518E+03  0.21780140195E+03 -0.64326217116E+03  0.11696229410E+04  0.94662861711E+03 0.  0.
         23    2    4    4    0    0  0.20491011082E+03  0.51542465506E+03 -0.15841652747E+03  0.58431775410E+03  0.93170344116E+02 0.  0.
         23    2    4    4    0    0 -0.10152532564E+03 -0.29762325311E+03 -0.48484564369E+03  0.58530518688E+03  0.92843260634E+02 0.  0.
          3    1    3    3  502    0 -0.51616003841E+02 -0.18491602742E+03  0.29935607189E+03  0.35562931097E+03  0.00000000000E+00 0. -1.
         -4    1    3    3    0  502 -0.51768781338E+02 -0.32885374536E+02  0.10581186999E+03  0.12230129357E+03  0.00000000000E+00 0.  1.
         13    1    5    5    0    0  0.19956538089E+03  0.50793172983E+03 -0.13949421011E+03  0.56327579220E+03  0.00000000000E+00 0. -1.
        -13    1    5    5    0    0  0.53447299289E+01  0.74929252277E+01 -0.18922317362E+02  0.21041961905E+02  0.00000000000E+00 0.  1.
          1    1    6    6  503    0 -0.49692603575E+02 -0.11926949727E+03 -0.28247176277E+03  0.31062012908E+03  0.00000000000E+00 0. -1.
         -1    1    6    6    0  503 -0.51832722065E+02 -0.17835375583E+03 -0.20237388092E+03  0.27468505779E+03  0.00000000000E+00 0.  1.
<mgrwt>
<rscale>  0 0.16302588E+04</rscale>
<asrwt>0</asrwt>
<pdfrwt beam="1">  1        1 0.10841995E+00 0.16302588E+04</pdfrwt>
<pdfrwt beam="2">  1       -2 0.14504983E+00 0.16302588E+04</pdfrwt>
<totfact> 0.73952584E+00</totfact>
</mgrwt>
</event>
<event>
12    5  0.5197392E-008  0.3156917E+04  0.7818608E-02  0.8200289E-01
         -2   -1    0    0    0  501 -0.00000000000E+00  0.00000000000E+00  0.75244992033E+03  0.75244992033E+03  0.00000000000E+00 0.  1.
          1   -1    0    0  501    0  0.00000000000E+00 -0.00000000000E+00 -0.33112246896E+04  0.33112246896E+04  0.00000000000E+00 0. -1.
        -24    2    1    2    0    0 -0.34177753219E+03  0.12678428799E+04 -0.19609986058E+04  0.23613983255E+04  0.80306102505E+02 0.  0.
        254    2    1    2    0    0  0.34177753219E+03 -0.12678428799E+04 -0.59777616345E+03  0.17022762844E+04  0.90342169400E+03 0.  0.
         23    2    4    4    0    0  0.23230944729E+03 -0.65879335398E+03  0.15785659118E+03  0.72138436869E+03  0.86604511766E+02 0.  0.
         23    2    4    4    0    0  0.10946808490E+03 -0.60904952594E+03 -0.75563275463E+03  0.98089191572E+03  0.90793743100E+02 0.  0.
          1    1    3    3  502    0 -0.29536333115E+03  0.10151109107E+04 -0.16193510689E+04  0.19339047399E+04  0.00000000000E+00 0. -1.
         -2    1    3    3    0  502 -0.46414201048E+02  0.25273196920E+03 -0.34164753688E+03  0.42749358565E+03  0.00000000000E+00 0.  1.
         13    1    5    5    0    0  0.21799489489E+03 -0.64482556306E+03  0.14077443405E+03  0.69508216943E+03  0.00000000000E+00 0. -1.
        -13    1    5    5    0    0  0.14314552401E+02 -0.13967790923E+02  0.17082157135E+02  0.26302199263E+02  0.00000000000E+00 0.  1.
          4    1    6    6  503    0  0.71649460454E+02 -0.55407266535E+03 -0.67739159864E+03  0.87806010134E+03  0.00000000000E+00 0. -1.
         -4    1    6    6    0  503  0.37818624449E+02 -0.54976860594E+02 -0.78241155996E+02  0.10283181437E+03  0.00000000000E+00 0.  1.
<mgrwt>
<rscale>  0 0.31569167E+04</rscale>
<asrwt>0</asrwt>
<pdfrwt beam="1">  1        1 0.50941919E+00 0.31569167E+04</pdfrwt>
<pdfrwt beam="2">  1       -2 0.11576152E+00 0.31569167E+04</pdfrwt>
<totfact> 0.15004769E-01</totfact>
</mgrwt>
</event>
<event>
12    5  0.5197392E-008  0.1823015E+04  0.7818608E-02  0.8694155E-01
          1   -1    0    0  501    0  0.00000000000E+00  0.00000000000E+00  0.10186703983E+04  0.10186703983E+04  0.00000000000E+00 0. -1.
         -2   -1    0    0    0  501 -0.00000000000E+00 -0.00000000000E+00 -0.81561756405E+03  0.81561756405E+03  0.00000000000E+00 0.  1.
        -24    2    1    2    0    0  0.18109510624E+03  0.58133958272E+03  0.38547155434E+03  0.72499139856E+03  0.79202656727E+02 0.  0.
        254    2    1    2    0    0 -0.18109510624E+03 -0.58133958272E+03 -0.18241872005E+03  0.11092965638E+04  0.90912657489E+03 0.  0.
         23    2    4    4    0    0 -0.14277972721E+03 -0.74768210815E+03 -0.35994071352E+03  0.84692478883E+03  0.91157530313E+02 0.  0.
         23    2    4    4    0    0 -0.38315379029E+02  0.16634252542E+03  0.17752199347E+03  0.26237177501E+03  0.90481965740E+02 0.  0.
          3    1    3    3  502    0  0.12409525975E+03  0.44644442708E+03  0.25524349350E+03  0.52901937672E+03  0.00000000000E+00 0. -1.
         -4    1    3    3    0  502  0.56999846492E+02  0.13489515564E+03  0.13022806084E+03  0.19597202185E+03  0.00000000000E+00 0.  1.
         13    1    5    5    0    0 -0.11676127780E+03 -0.71656156324E+03 -0.34315251156E+03  0.80302385774E+03  0.00000000000E+00 0. -1.
        -13    1    5    5    0    0 -0.26018449417E+02 -0.31120544904E+02 -0.16788201960E+02  0.43900931086E+02  0.00000000000E+00 0.  1.
          4    1    6    6  503    0 -0.98269511054E+01  0.16312642816E+03  0.14027701637E+03  0.21537047582E+03  0.00000000000E+00 0. -1.
         -4    1    6    6    0  503 -0.28488427924E+02  0.32160972647E+01  0.37244977092E+02  0.47001299192E+02  0.00000000000E+00 0.  1.
<mgrwt>
<rscale>  0 0.18230145E+04</rscale>
<asrwt>0</asrwt>
<pdfrwt beam="1">  1        1 0.15671852E+00 0.18230145E+04</pdfrwt>
<pdfrwt beam="2">  1       -2 0.12547962E+00 0.18230145E+04</pdfrwt>
<totfact> 0.57367679E+00</totfact>
</mgrwt>
</event>
<event>
12    5  0.5197392E-008  0.1228879E+04  0.7818608E-02  0.9087948E-01
         -4   -1    0    0    0  501 -0.00000000000E+00  0.00000000000E+00  0.17185759859E+03  0.17185759859E+03  0.00000000000E+00 0.  1.
          1   -1    0    0  501    0  0.00000000000E+00 -0.00000000000E+00 -0.21967955593E+04  0.21967955593E+04  0.00000000000E+00 0. -1.
        -24    2    1    2    0    0 -0.42761368655E+02 -0.19600461029E+03 -0.10261069990E+03  0.23929385476E+03  0.80537266446E+02 0.  0.
        254    2    1    2    0    0  0.42761368655E+02  0.19600461029E+03 -0.19223272608E+04  0.21293593031E+04  0.89363449032E+03 0.  0.
         23    2    4    4    0    0 -0.76060104780E+02 -0.28338136435E+02 -0.18448999584E+04  0.18490099219E+04  0.92701915416E+02 0.  0.
         23    2    4    4    0    0  0.11882147343E+03  0.22434274673E+03 -0.77427302382E+02  0.28034938124E+03  0.90291626692E+02 0.  0.
          1    1    3    3  502    0 -0.53415861594E+02 -0.73590102862E+02 -0.61270997570E+02  0.10964895190E+03  0.00000000000E+00 0. -1.
         -2    1    3    3    0  502  0.10654492939E+02 -0.12241450743E+03 -0.41339702328E+02  0.12964490286E+03  0.00000000000E+00 0.  1.
         13    1    5    5    0    0  0.78680226950E+00 -0.97629199008E+01 -0.18791991266E+02  0.21191333100E+02  0.00000000000E+00 0.  1.
        -13    1    5    5    0    0 -0.76846907049E+02 -0.18575216534E+02 -0.18261079672E+04  0.18278185888E+04  0.00000000000E+00 0. -1.
          1    1    6    6  503    0  0.98556082624E+02  0.22539450613E+03 -0.82440985132E+02  0.25944652792E+03  0.00000000000E+00 0. -1.
         -1    1    6    6    0  503  0.20265390811E+02 -0.10517594051E+01  0.50136827505E+01  0.20902853329E+02  0.00000000000E+00 0.  1.
<mgrwt>
<rscale>  0 0.12288792E+04</rscale>
<asrwt>0</asrwt>
<pdfrwt beam="1">  1        1 0.33796854E+00 0.12288792E+04</pdfrwt>
<pdfrwt beam="2">  1       -4 0.26439631E-01 0.12288792E+04</pdfrwt>
<totfact> 0.14804151E+01</totfact>
</mgrwt>
</event>
<event>
12    5  0.5197392E-008  0.1458005E+04  0.7818608E-02  0.8912870E-01
          1   -1    0    0  501    0  0.00000000000E+00  0.00000000000E+00  0.10703715943E+04  0.10703715943E+04  0.00000000000E+00 0. -1.
         -2   -1    0    0    0  501 -0.00000000000E+00 -0.00000000000E+00 -0.49650482700E+03  0.49650482700E+03  0.00000000000E+00 0.  1.
        -24    2    1    2    0    0  0.39207072975E+03 -0.58839949324E+02 -0.48864676112E+02  0.40701237736E+03  0.78036670803E+02 0.  0.
        254    2    1    2    0    0 -0.39207072975E+03  0.58839949324E+02  0.62273144343E+03  0.11598640439E+04  0.89459966076E+03 0.  0.
         23    2    4    4    0    0  0.28720995980E+02  0.29307647607E+03 -0.65320316187E+02  0.31537248155E+03  0.92056189231E+02 0.  0.
         23    2    4    4    0    0 -0.42079172573E+03 -0.23423652674E+03  0.68805175962E+03  0.84449156240E+03  0.88421423595E+02 0.  0.
          1    1    3    3  502    0  0.66731079303E+02 -0.13212892951E+02  0.20896361899E+02  0.71163722680E+02  0.00000000000E+00 0. -1.
         -2    1    3    3    0  502  0.32533965045E+03 -0.45627056373E+02 -0.69761038011E+02  0.33584865468E+03  0.00000000000E+00 0.  1.
         13    1    5    5    0    0  0.51890162952E+02  0.95633437168E+02 -0.11449318660E+02  0.10940489118E+03  0.00000000000E+00 0.  1.
        -13    1    5    5    0    0 -0.23169166972E+02  0.19744303890E+03 -0.53870997526E+02  0.20596759037E+03  0.00000000000E+00 0. -1.
          2    1    6    6  503    0 -0.27951780912E+03 -0.13963791390E+03  0.51149949085E+03  0.59938358482E+03  0.00000000000E+00 0. -1.
         -2    1    6    6    0  503 -0.14127391661E+03 -0.94598612842E+02  0.17655226876E+03  0.24510797758E+03  0.00000000000E+00 0.  1.
<mgrwt>
<rscale>  0 0.14580050E+04</rscale>
<asrwt>0</asrwt>
<pdfrwt beam="1">  1        1 0.16467255E+00 0.14580050E+04</pdfrwt>
<pdfrwt beam="2">  1       -2 0.76385358E-01 0.14580050E+04</pdfrwt>
<totfact> 0.17421382E+01</totfact>
</mgrwt>
</event>
<event>
12    5  0.5197392E-008  0.1627721E+04  0.7818608E-02  0.8803697E-01
         -4   -1    0    0    0  501 -0.00000000000E+00  0.00000000000E+00  0.75972080955E+03  0.75972080955E+03  0.00000000000E+00 0.  1.
          3   -1    0    0  501    0  0.00000000000E+00 -0.00000000000E+00 -0.87185837471E+03  0.87185837471E+03  0.00000000000E+00 0. -1.
        -24    2    1    2    0    0  0.21216791647E+03 -0.18716230079E+03 -0.52319303178E+03  0.60230156829E+03  0.94822355241E+02 0.  0.
        254    2    1    2    0    0 -0.21216791647E+03  0.18716230079E+03  0.41105546662E+03  0.10292776160E+04  0.90022267383E+03 0.  0.
         23    2    4    4    0    0  0.17672713873E+03  0.27582928746E+03  0.50582413844E+03  0.60920878687E+03  0.89235696821E+02 0.  0.
         23    2    4    4    0    0 -0.38889505520E+03 -0.88666986676E+02 -0.94768671821E+02  0.42006882910E+03  0.91517875498E+02 0.  0.
          1    1    3    3  502    0  0.13012095085E+03 -0.16688457033E+03 -0.40562716844E+03  0.45750991403E+03  0.00000000000E+00 0. -1.
         -2    1    3    3    0  502  0.82046965624E+02 -0.20277730451E+02 -0.11756586334E+03  0.14479165426E+03  0.00000000000E+00 0.  1.
         13    1    5    5    0    0  0.84660454223E+02  0.60998179335E+02  0.13094021792E+03  0.16743210881E+03  0.00000000000E+00 0. -1.
        -13    1    5    5    0    0  0.92066684505E+02  0.21483110813E+03  0.37488392052E+03  0.44177667806E+03  0.00000000000E+00 0.  1.
          1    1    6    6  503    0 -0.34853360327E+03 -0.47803228213E+02 -0.80635600995E+02  0.36091954974E+03  0.00000000000E+00 0. -1.
         -1    1    6    6    0  503 -0.40361451927E+02 -0.40863758463E+02 -0.14133070826E+02  0.59149279356E+02  0.00000000000E+00 0.  1.
<mgrwt>
<rscale>  0 0.16277210E+04</rscale>
<asrwt>0</asrwt>
<pdfrwt beam="1">  1        3 0.13413206E+00 0.16277210E+04</pdfrwt>
<pdfrwt beam="2">  1       -4 0.11688012E+00 0.16277210E+04</pdfrwt>
<totfact> 0.53284266E-01</totfact>
</mgrwt>
</event>
<event>
12    5  0.5197392E-008  0.1603677E+04  0.7818608E-02  0.8818292E-01
         -2   -1    0    0    0  501 -0.00000000000E+00  0.00000000000E+00  0.43715342159E+03  0.43715342159E+03  0.00000000000E+00 0.  1.
          1   -1    0    0  501    0  0.00000000000E+00 -0.00000000000E+00 -0.14707544221E+04  0.14707544221E+04  0.00000000000E+00 0. -1.
        -24    2    1    2    0    0  0.40721554302E+03  0.22090931241E+03 -0.69221345247E+03  0.83683042471E+03  0.80624271528E+02 0.  0.
        254    2    1    2    0    0 -0.40721554302E+03 -0.22090931241E+03 -0.34138754807E+03  0.10710774190E+04  0.90334708544E+03 0.  0.
         23    2    4    4    0    0 -0.56418557080E+02 -0.38103228230E+03 -0.50582658236E+03  0.64202653889E+03  0.89268647789E+02 0.  0.
         23    2    4    4    0    0 -0.35079698593E+03  0.16012296989E+03  0.16443903429E+03  0.42905088012E+03  0.91359569329E+02 0.  0.
          3    1    3    3  502    0  0.31660230807E+03  0.18336725331E+03 -0.48450987099E+03  0.60713292297E+03  0.00000000000E+00 0. -1.
         -4    1    3    3    0  502  0.90613234949E+02  0.37542059091E+02 -0.20770358147E+03  0.22969750174E+03  0.00000000000E+00 0.  1.
         13    1    5    5    0    0 -0.11041253983E+02 -0.28253611496E+03 -0.32135081281E+03  0.42803610881E+03  0.00000000000E+00 0. -1.
        -13    1    5    5    0    0 -0.45377303097E+02 -0.98496167339E+02 -0.18447576955E+03  0.21399043008E+03  0.00000000000E+00 0.  1.
          1    1    6    6  503    0 -0.30198668154E+03  0.14789594017E+03  0.10740837474E+03  0.35299535961E+03  0.00000000000E+00 0. -1.
         -1    1    6    6    0  503 -0.48810304394E+02  0.12227029729E+02  0.57030659552E+02  0.76055520510E+02  0.00000000000E+00 0.  1.
<mgrwt>
<rscale>  0 0.16036774E+04</rscale>
<asrwt>0</asrwt>
<pdfrwt beam="1">  1        1 0.22626991E+00 0.16036774E+04</pdfrwt>
<pdfrwt beam="2">  1       -2 0.67254374E-01 0.16036774E+04</pdfrwt>
<totfact> 0.11701966E+01</totfact>
</mgrwt>
</event>
<event>
12    5  0.5822348E-008  0.2024197E+04  0.7818608E-02  0.8595391E-01
         -2   -1    0    0    0  501 -0.00000000000E+00  0.00000000000E+00  0.44371754610E+03  0.44371754610E+03  0.00000000000E+00 0.  1.
          1   -1    0    0  501    0  0.00000000000E+00 -0.00000000000E+00 -0.23085474649E+04  0.23085474649E+04  0.00000000000E+00 0. -1.
        -24    2    1    2    0    0 -0.79715917935E+03  0.10010531006E+03 -0.88347923307E+03  0.11963871606E+04  0.72957880750E+02 0.  0.
        254    2    1    2    0    0  0.79715917935E+03 -0.10010531006E+03 -0.98135068578E+03  0.15558778505E+04  0.90123409102E+03 0.  0.
         23    2    4    4    0    0  0.19850589208E+03  0.21070494582E+03  0.60763536902E+02  0.31119520612E+03  0.96690669204E+02 0.  0.
         23    2    4    4    0    0  0.59865328727E+03 -0.31081025588E+03 -0.10421142227E+04  0.12446826444E+04  0.90796798101E+02 0.  0.
          1    1    3    3  502    0 -0.68785257580E+03  0.74598349995E+02 -0.72475773309E+03  0.10019879498E+04  0.00000000000E+00 0. -1.
         -2    1    3    3    0  502 -0.10930660356E+03  0.25506960067E+02 -0.15872149998E+03  0.19439921077E+03  0.00000000000E+00 0.  1.
         13    1    5    5    0    0  0.19612881713E+03  0.22049911010E+03  0.59432081212E+02  0.30102913935E+03  0.00000000000E+00 0.  1.
        -13    1    5    5    0    0  0.23770749507E+01 -0.97941642781E+01  0.13314556901E+01  0.10166066766E+02  0.00000000000E+00 0. -1.
          4    1    6    6  503    0  0.16758775578E+03 -0.61066568482E+02 -0.21776588651E+03  0.28149025383E+03  0.00000000000E+00 0. -1.
         -4    1    6    6    0  503  0.43106553149E+03 -0.24974368740E+03 -0.82434833617E+03  0.96319239053E+03  0.00000000000E+00 0.  1.
<mgrwt>
<rscale>  0 0.20241966E+04</rscale>
<asrwt>0</asrwt>
<pdfrwt beam="1">  1        1 0.35516116E+00 0.20241966E+04</pdfrwt>
<pdfrwt beam="2">  1       -2 0.68264236E-01 0.20241966E+04</pdfrwt>
<totfact> 0.29324010E+00</totfact>
</mgrwt>
</event>
<event>
12    5  0.5197392E-008  0.2745466E+04  0.7818608E-02  0.8320402E-01
          1   -1    0    0  501    0  0.00000000000E+00  0.00000000000E+00  0.30784374354E+04  0.30784374354E+04  0.00000000000E+00 0. -1.
         -2   -1    0    0    0  501 -0.00000000000E+00 -0.00000000000E+00 -0.61212741249E+03  0.61212741249E+03  0.00000000000E+00 0.  1.
        -24    2    1    2    0    0  0.72355039387E+03 -0.96723591727E+03  0.13160183075E+04  0.17880507964E+04  0.78428136626E+02 0.  0.
        254    2    1    2    0    0 -0.72355039387E+03  0.96723591727E+03  0.11502917154E+04  0.19025140515E+04  0.91505092402E+03 0.  0.
         23    2    4    4    0    0 -0.17232549454E+03  0.65238275409E+03  0.10525190481E+04  0.12535560804E+04  0.91143657211E+02 0.  0.
         23    2    4    4    0    0 -0.55122489933E+03  0.31485316318E+03  0.97772667256E+02  0.64895797106E+03  0.92766102241E+02 0.  0.
          1    1    3    3  502    0  0.33577453245E+03 -0.41384448682E+03  0.53203394342E+03  0.75304177365E+03  0.00000000000E+00 0. -1.
         -2    1    3    3    0  502  0.38777586142E+03 -0.55339143045E+03  0.78398436410E+03  0.10350090227E+04  0.00000000000E+00 0.  1.
         13    1    5    5    0    0 -0.12092143876E+03  0.28076827982E+03  0.47873177013E+03  0.56801138108E+03  0.00000000000E+00 0. -1.
        -13    1    5    5    0    0 -0.51404055782E+02  0.37161447427E+03  0.57378727799E+03  0.68554469936E+03  0.00000000000E+00 0.  1.
          1    1    6    6  503    0 -0.34044145566E+02  0.39118447875E+02  0.27408925886E+02  0.58655826903E+02  0.00000000000E+00 0. -1.
         -1    1    6    6    0  503 -0.51718075377E+03  0.27573471531E+03  0.70363741370E+02  0.59030214415E+03  0.00000000000E+00 0.  1.
<mgrwt>
<rscale>  0 0.27454660E+04</rscale>
<asrwt>0</asrwt>
<pdfrwt beam="1">  1        1 0.47360575E+00 0.27454660E+04</pdfrwt>
<pdfrwt beam="2">  1       -2 0.94173450E-01 0.27454660E+04</pdfrwt>
<totfact> 0.38087300E-01</totfact>
</mgrwt>
</event>
<event>
12    5  0.5197392E-008  0.1563589E+04  0.7818608E-02  0.8843235E-01
         -2   -1    0    0    0  501 -0.00000000000E+00  0.00000000000E+00  0.32094235204E+03  0.32094235204E+03  0.00000000000E+00 0.  1.
          1   -1    0    0  501    0  0.00000000000E+00 -0.00000000000E+00 -0.19043988687E+04  0.19043988687E+04  0.00000000000E+00 0. -1.
        -24    2    1    2    0    0  0.35880369576E+02  0.11534819720E+03 -0.12523883152E+04  0.12608135155E+04  0.81127192369E+02 0.  0.
        254    2    1    2    0    0 -0.35880369576E+02 -0.11534819720E+03 -0.33106820149E+03  0.96452770526E+03  0.89783903494E+03 0.  0.
         23    2    4    4    0    0  0.41928385638E+03 -0.36948209134E+02 -0.10561982130E+03  0.44265756307E+03  0.87327252986E+02 0.  0.
         23    2    4    4    0    0 -0.45516422596E+03 -0.78399988063E+02 -0.22544838019E+03  0.52187014219E+03  0.90556294388E+02 0.  0.
          1    1    3    3  502    0 -0.20224428364E+02  0.57867589986E+02 -0.69008243384E+03  0.69279971923E+03  0.00000000000E+00 0. -1.
         -2    1    3    3    0  502  0.56104797940E+02  0.57480607212E+02 -0.56230588135E+03  0.56801379628E+03  0.00000000000E+00 0.  1.
         13    1    5    5    0    0  0.10619426082E+03 -0.68896999490E+01  0.11485110668E+02  0.10703549301E+03  0.00000000000E+00 0. -1.
        -13    1    5    5    0    0  0.31308959556E+03 -0.30058509185E+02 -0.11710493197E+03  0.33562207007E+03  0.00000000000E+00 0.  1.
          3    1    6    6  503    0 -0.15367653658E+03 -0.62907028884E+02 -0.10720881344E+03  0.19765500717E+03  0.00000000000E+00 0. -1.
         -3    1    6    6    0  503 -0.30148768938E+03 -0.15492959180E+02 -0.11823956675E+03  0.32421513502E+03  0.00000000000E+00 0.  1.
<mgrwt>
<rscale>  0 0.15635885E+04</rscale>
<asrwt>0</asrwt>
<pdfrwt beam="1">  1        1 0.29298444E+00 0.15635885E+04</pdfrwt>
<pdfrwt beam="2">  1       -2 0.49375746E-01 0.15635885E+04</pdfrwt>
<totfact> 0.11353465E+01</totfact>
</mgrwt>
</event>
<event>
12    5  0.5197392E-008  0.1157123E+04  0.7818608E-02  0.9151237E-01
         -2   -1    0    0    0  501 -0.00000000000E+00  0.00000000000E+00  0.32238890952E+03  0.32238890952E+03  0.00000000000E+00 0.  1.
          1   -1    0    0  501    0  0.00000000000E+00 -0.00000000000E+00 -0.10382912269E+04  0.10382912269E+04  0.00000000000E+00 0. -1.
        -24    2    1    2    0    0 -0.20694298107E+03 -0.37467226212E+02 -0.33363910058E+02  0.22731619787E+03  0.79563263279E+02 0.  0.
        254    2    1    2    0    0  0.20694298107E+03  0.37467226212E+02 -0.68253840733E+03  0.11333639386E+04  0.88001474380E+03 0.  0.
         23    2    4    4    0    0 -0.24728382770E+03 -0.13107996583E+03 -0.33643597706E+01  0.29395849604E+03  0.89827777412E+02 0.  0.
         23    2    4    4    0    0  0.45422680877E+03  0.16854719204E+03 -0.67917404756E+03  0.83940544253E+03  0.92703615458E+02 0.  0.
          3    1    3    3  502    0 -0.18682449014E+03 -0.14031019127E+02 -0.82917902892E+01  0.18753403265E+03  0.00000000000E+00 0. -1.
         -4    1    3    3    0  502 -0.20118490927E+02 -0.23436207085E+02 -0.25072119769E+02  0.39782165218E+02  0.00000000000E+00 0.  1.
         13    1    5    5    0    0 -0.19448125951E+03 -0.67029373476E+02  0.22690522429E+02  0.20695593013E+03  0.00000000000E+00 0. -1.
        -13    1    5    5    0    0 -0.52802568187E+02 -0.64050592352E+02 -0.26054882199E+02  0.87002565906E+02  0.00000000000E+00 0.  1.
          3    1    6    6  503    0  0.33253148353E+03  0.80296538848E+02 -0.44849233674E+03  0.56406568572E+03  0.00000000000E+00 0. -1.
         -3    1    6    6    0  503  0.12169532524E+03  0.88250653192E+02 -0.23068171082E+03  0.27533975681E+03  0.00000000000E+00 0.  1.
<mgrwt>
<rscale>  0 0.11571233E+04</rscale>
<asrwt>0</asrwt>
<pdfrwt beam="1">  1        1 0.15973711E+00 0.11571233E+04</pdfrwt>
<pdfrwt beam="2">  1       -2 0.49598295E-01 0.11571233E+04</pdfrwt>
<totfact> 0.47302384E+01</totfact>
</mgrwt>
</event>
<event>
12    5  0.5371370E-008  0.2171311E+04  0.7818608E-02  0.8530465E-01
         -2   -1    0    0    0  501 -0.00000000000E+00  0.00000000000E+00  0.54115809694E+03  0.54115809694E+03  0.00000000000E+00 0.  1.
          1   -1    0    0  501    0  0.00000000000E+00 -0.00000000000E+00 -0.21780102838E+04  0.21780102838E+04  0.00000000000E+00 0. -1.
        -24    2    1    2    0    0  0.23666057507E+03  0.47605935616E+03  0.22896004037E+03  0.58445591491E+03  0.80779192933E+02 0.  0.
        254    2    1    2    0    0 -0.23666057507E+03 -0.47605935616E+03 -0.18658122272E+04  0.21347124658E+04  0.89056235385E+03 0.  0.
         23    2    4    4    0    0  0.12939980715E+03 -0.54937244992E+03 -0.68045013409E+03  0.88866102049E+03  0.90286353018E+02 0.  0.
         23    2    4    4    0    0 -0.36606038222E+03  0.73313093758E+02 -0.11853620931E+04  0.12460514453E+04  0.90475960439E+02 0.  0.
          1    1    3    3  502    0  0.27142621411E+02  0.24113590949E+02  0.33279868062E+02  0.49251769346E+02  0.00000000000E+00 0. -1.
         -4    1    3    3    0  502  0.20951795366E+03  0.45194576521E+03  0.19568017231E+03  0.53520414557E+03  0.00000000000E+00 0.  1.
         13    1    5    5    0    0  0.92787890964E+02 -0.29155342880E+03 -0.42678331280E+03  0.52512569032E+03  0.00000000000E+00 0. -1.
        -13    1    5    5    0    0  0.36611916186E+02 -0.25781902112E+03 -0.25366682129E+03  0.36353533017E+03  0.00000000000E+00 0.  1.
          3    1    6    6  503    0 -0.19368780539E+03  0.30020744124E+02 -0.47621620006E+03  0.51497386364E+03  0.00000000000E+00 0. -1.
         -3    1    6    6    0  503 -0.17237257683E+03  0.43292349634E+02 -0.70914589307E+03  0.73107758168E+03  0.00000000000E+00 0.  1.
<mgrwt>
<rscale>  0 0.21713110E+04</rscale>
<asrwt>0</asrwt>
<pdfrwt beam="1">  1        1 0.33507851E+00 0.21713110E+04</pdfrwt>
<pdfrwt beam="2">  1       -2 0.83255091E-01 0.21713110E+04</pdfrwt>
<totfact> 0.22870843E+00</totfact>
</mgrwt>
</event>
<event>
12    5  0.5197392E-008  0.1891537E+04  0.7818608E-02  0.8659080E-01
          1   -1    0    0  501    0  0.00000000000E+00  0.00000000000E+00  0.29440704247E+04  0.29440704247E+04  0.00000000000E+00 0. -1.
         -2   -1    0    0    0  501 -0.00000000000E+00 -0.00000000000E+00 -0.30382358228E+03  0.30382358228E+03  0.00000000000E+00 0.  1.
        -24    2    1    2    0    0  0.28811342667E+03 -0.39822193875E+03  0.19303090953E+04  0.19934737081E+04  0.79083263034E+02 0.  0.
        254    2    1    2    0    0 -0.28811342667E+03  0.39822193875E+03  0.70993774710E+03  0.12544202988E+04  0.90992781154E+03 0.  0.
         23    2    4    4    0    0 -0.51519469123E+03  0.18555488701E+03  0.10146855770E+03  0.56471186066E+03  0.93527703958E+02 0.  0.
         23    2    4    4    0    0  0.22708126456E+03  0.21266705173E+03  0.60846918941E+03  0.68970843816E+03  0.93111758697E+02 0.  0.
          1    1    3    3  502    0  0.16200803010E+03 -0.26922466447E+03  0.13321162528E+04  0.13686717038E+04  0.00000000000E+00 0. -1.
         -2    1    3    3    0  502  0.12610539657E+03 -0.12899727427E+03  0.59819284249E+03  0.62480200434E+03  0.00000000000E+00 0.  1.
         13    1    5    5    0    0 -0.47625192092E+02  0.17520408792E+02  0.38901509619E+02  0.63940996995E+02  0.00000000000E+00 0. -1.
        -13    1    5    5    0    0 -0.46756949914E+03  0.16803447822E+03  0.62567048080E+02  0.50077086367E+03  0.00000000000E+00 0.  1.
          1    1    6    6  503    0 -0.78654868169E+01  0.17955791258E+02  0.37585976483E+02  0.42390823898E+02  0.00000000000E+00 0. -1.
         -1    1    6    6    0  503  0.23494675138E+03  0.19471126047E+03  0.57088321292E+03  0.64731761426E+03  0.00000000000E+00 0.  1.
<mgrwt>
<rscale>  0 0.18915370E+04</rscale>
<asrwt>0</asrwt>
<pdfrwt beam="1">  1        1 0.45293389E+00 0.18915370E+04</pdfrwt>
<pdfrwt beam="2">  1       -2 0.46742092E-01 0.18915370E+04</pdfrwt>
<totfact> 0.23480794E+00</totfact>
</mgrwt>
</event>
<event>
12    5  0.5197392E-008  0.1544312E+04  0.7818608E-02  0.8855509E-01
          1   -1    0    0  501    0  0.00000000000E+00  0.00000000000E+00  0.83788474442E+03  0.83788474442E+03  0.00000000000E+00 0. -1.
         -2   -1    0    0    0  501 -0.00000000000E+00 -0.00000000000E+00 -0.71158322838E+03  0.71158322838E+03  0.00000000000E+00 0.  1.
        -24    2    1    2    0    0 -0.23017221938E+02  0.46957211763E+03 -0.13803755432E+03  0.49631470754E+03  0.79032628424E+02 0.  0.
        254    2    1    2    0    0  0.23017221938E+02 -0.46957211763E+03  0.26433907036E+03  0.10531532653E+04  0.90456005320E+03 0.  0.
         23    2    4    4    0    0  0.39013502307E+03 -0.31189825236E+03  0.37327858279E+03  0.63064058344E+03  0.94259159058E+02 0.  0.
         23    2    4    4    0    0 -0.36711780113E+03 -0.15767386527E+03 -0.10893951243E+03  0.42251268182E+03  0.83741394974E+02 0.  0.
          3    1    3    3  502    0  0.12200428812E+02  0.99693086154E+01 -0.55116974534E+01  0.16691805962E+02  0.00000000000E+00 0. -1.
         -4    1    3    3    0  502 -0.35217650750E+02  0.45960280901E+03 -0.13252585686E+03  0.47962290158E+03  0.00000000000E+00 0.  1.
         13    1    5    5    0    0  0.11674640241E+01 -0.54501438281E+01  0.24075731667E+02  0.24712504837E+02  0.00000000000E+00 0. -1.
        -13    1    5    5    0    0  0.38896755904E+03 -0.30644810853E+03  0.34920285112E+03  0.60592807861E+03  0.00000000000E+00 0.  1.
          1    1    6    6  503    0 -0.14007016151E+02 -0.12150568713E+02 -0.25589638594E+02  0.31601620605E+02  0.00000000000E+00 0. -1.
         -1    1    6    6    0  503 -0.35311078498E+03 -0.14552329655E+03 -0.83349873834E+02  0.39091106121E+03  0.00000000000E+00 0.  1.
<mgrwt>
<rscale>  0 0.15443118E+04</rscale>
<asrwt>0</asrwt>
<pdfrwt beam="1">  1        1 0.12890534E+00 0.15443118E+04</pdfrwt>
<pdfrwt beam="2">  1       -2 0.10947434E+00 0.15443118E+04</pdfrwt>
<totfact> 0.11511174E+01</totfact>
</mgrwt>
</event>
<event>
12    5  0.5197392E-008  0.2273980E+04  0.7818608E-02  0.8488252E-01
          1   -1    0    0  501    0  0.00000000000E+00  0.00000000000E+00  0.18365089736E+04  0.18365089736E+04  0.00000000000E+00 0. -1.
         -2   -1    0    0    0  501 -0.00000000000E+00 -0.00000000000E+00 -0.70391477416E+03  0.70391477416E+03  0.00000000000E+00 0.  1.
        -24    2    1    2    0    0  0.15980700764E+03 -0.88394676583E+03  0.77447946527E+03  0.11887941291E+04  0.80702383381E+02 0.  0.
        254    2    1    2    0    0 -0.15980700764E+03  0.88394676583E+03  0.35811473414E+03  0.13516296187E+04  0.94432849090E+03 0.  0.
         23    2    4    4    0    0 -0.14441433611E+02  0.78866439674E+03  0.63401944280E+03  0.10161382251E+04  0.91411996274E+02 0.  0.
         23    2    4    4    0    0 -0.14536557403E+03  0.95282369093E+02 -0.27590470866E+03  0.33549139352E+03  0.78874500890E+02 0.  0.
          3    1    3    3  502    0  0.12823601292E+03 -0.82415164875E+03  0.70952740244E+03  0.10950340406E+04  0.00000000000E+00 0. -1.
         -4    1    3    3    0  502  0.31570994724E+02 -0.59795117076E+02  0.64952062821E+02  0.93760088517E+02  0.00000000000E+00 0.  1.
         13    1    5    5    0    0  0.17936297403E+02  0.29600747379E+03  0.19054736868E+03  0.35249175170E+03  0.00000000000E+00 0.  1.
        -13    1    5    5    0    0 -0.32377731014E+02  0.49265692295E+03  0.44347207411E+03  0.66364647344E+03  0.00000000000E+00 0. -1.
          1    1    6    6  503    0 -0.11846471849E+03  0.97560583847E+02 -0.26529246808E+03  0.30648336116E+03  0.00000000000E+00 0. -1.
         -1    1    6    6    0  503 -0.26900855541E+02 -0.22782147543E+01 -0.10612240583E+02  0.29008032362E+02  0.00000000000E+00 0.  1.
<mgrwt>
<rscale>  0 0.22739796E+04</rscale>
<asrwt>0</asrwt>
<pdfrwt beam="1">  1        1 0.28253984E+00 0.22739796E+04</pdfrwt>
<pdfrwt beam="2">  1       -2 0.10829458E+00 0.22739796E+04</pdfrwt>
<totfact> 0.20891142E+00</totfact>
</mgrwt>
</event>
<event>
12    5  0.5197392E-008  0.3160995E+04  0.7818608E-02  0.8199195E-01
          1   -1    0    0  501    0  0.00000000000E+00  0.00000000000E+00  0.18967949386E+04  0.18967949386E+04  0.00000000000E+00 0. -1.
         -2   -1    0    0    0  501 -0.00000000000E+00 -0.00000000000E+00 -0.13169436829E+04  0.13169436829E+04  0.00000000000E+00 0.  1.
        -24    2    1    2    0    0 -0.12799973360E+04 -0.52160567329E+03 -0.19724802447E+03  0.13984370739E+04  0.79081022451E+02 0.  0.
        254    2    1    2    0    0  0.12799973360E+04  0.52160567329E+03  0.77709928014E+03  0.18153015476E+04  0.88372549993E+03 0.  0.
         23    2    4    4    0    0  0.53696448271E+03  0.79494655147E+02  0.76823427374E+03  0.94570562099E+03  0.97595934054E+02 0.  0.
         23    2    4    4    0    0  0.74303285325E+03  0.44211101814E+03  0.88650064033E+01  0.86959592666E+03  0.92512236729E+02 0.  0.
          1    1    3    3  502    0 -0.11056611180E+04 -0.47255347293E+03 -0.18871570245E+03  0.12171306048E+04  0.00000000000E+00 0. -1.
         -2    1    3    3    0  502 -0.17433621794E+03 -0.49052200360E+02 -0.85323220190E+01  0.18130646917E+03  0.00000000000E+00 0.  1.
         13    1    5    5    0    0  0.41612035611E+03  0.46313408801E+02  0.65152933355E+03  0.77446210694E+03  0.00000000000E+00 0. -1.
        -13    1    5    5    0    0  0.12084412659E+03  0.33181246346E+02  0.11670494019E+03  0.17124351405E+03  0.00000000000E+00 0.  1.
          4    1    6    6  503    0  0.31247054102E+03  0.21491326274E+03  0.42437758459E+02  0.38161042025E+03  0.00000000000E+00 0.  1.
         -4    1    6    6    0  503  0.43056231223E+03  0.22719775541E+03 -0.33572752056E+02  0.48798550640E+03  0.00000000000E+00 0. -1.
<mgrwt>
<rscale>  0 0.31609949E+04</rscale>
<asrwt>0</asrwt>
<pdfrwt beam="1">  1        1 0.29181461E+00 0.31609949E+04</pdfrwt>
<pdfrwt beam="2">  1       -2 0.20260672E+00 0.31609949E+04</pdfrwt>
<totfact> 0.33040853E-01</totfact>
</mgrwt>
</event>
<event>
12    5  0.5197392E-008  0.1152661E+04  0.7818608E-02  0.9155332E-01
          1   -1    0    0  501    0  0.00000000000E+00  0.00000000000E+00  0.19466888788E+04  0.19466888788E+04  0.00000000000E+00 0. -1.
         -2   -1    0    0    0  501 -0.00000000000E+00 -0.00000000000E+00 -0.17062656779E+03  0.17062656779E+03  0.00000000000E+00 0.  1.
        -24    2    1    2    0    0  0.12188448763E+03 -0.16485276694E+03  0.23535337720E+03  0.32222913620E+03  0.80050864856E+02 0.  0.
        254    2    1    2    0    0 -0.12188448763E+03  0.16485276694E+03  0.15407089338E+04  0.17950863104E+04  0.89806379502E+03 0.  0.
         23    2    4    4    0    0  0.11438002933E+03  0.44925463020E+03  0.50811528959E+03  0.69433713953E+03  0.94923137033E+02 0.  0.
         23    2    4    4    0    0 -0.23626451696E+03 -0.28440186326E+03  0.10325936442E+04  0.11007491709E+04  0.93240341381E+02 0.  0.
          1    1    3    3  502    0  0.77135272321E+01 -0.63733469718E+02  0.96948968794E+02  0.11627792660E+03  0.00000000000E+00 0. -1.
         -2    1    3    3    0  502  0.11417096040E+03 -0.10111929722E+03  0.13840440841E+03  0.20595120960E+03  0.00000000000E+00 0.  1.
         13    1    5    5    0    0  0.14524906448E+02  0.41601749299E+02  0.14450290873E+02  0.46373369064E+02  0.00000000000E+00 0.  1.
        -13    1    5    5    0    0  0.99855122886E+02  0.40765288090E+03  0.49366499872E+03  0.64796377047E+03  0.00000000000E+00 0. -1.
          2    1    6    6  503    0 -0.20571691897E+03 -0.27297846370E+03  0.98832317760E+03  0.10457625905E+04  0.00000000000E+00 0. -1.
         -2    1    6    6    0  503 -0.30547597990E+02 -0.11423399558E+02  0.44270466643E+02  0.54986580337E+02  0.00000000000E+00 0.  1.
<mgrwt>
<rscale>  0 0.11526610E+04</rscale>
<asrwt>0</asrwt>
<pdfrwt beam="1">  1        1 0.29949058E+00 0.11526610E+04</pdfrwt>
<pdfrwt beam="2">  1       -2 0.26250243E-01 0.11526610E+04</pdfrwt>
<totfact> 0.37128075E+01</totfact>
</mgrwt>
</event>
<event>
12    5  0.5197392E-008  0.1681904E+04  0.7818608E-02  0.8771753E-01
          1   -1    0    0  501    0  0.00000000000E+00  0.00000000000E+00  0.34245603087E+03  0.34245603087E+03  0.00000000000E+00 0. -1.
         -2   -1    0    0    0  501 -0.00000000000E+00 -0.00000000000E+00 -0.20650822054E+04  0.20650822054E+04  0.00000000000E+00 0.  1.
        -24    2    1    2    0    0  0.51325221712E+03  0.29292467900E+03 -0.67148965418E+03  0.89789157303E+03  0.77962909839E+02 0.  0.
        254    2    1    2    0    0 -0.51325221712E+03 -0.29292467900E+03 -0.10511365203E+04  0.15096466632E+04  0.90824685930E+03 0.  0.
         23    2    4    4    0    0 -0.42808572218E+03 -0.16739000721E+02 -0.11168884458E+04  0.11997665429E+04  0.91991181665E+02 0.  0.
         23    2    4    4    0    0 -0.85166494932E+02 -0.27618567828E+03  0.65751925483E+02  0.30988012026E+03  0.90390887180E+02 0.  0.
          1    1    3    3  502    0  0.24211293061E+03  0.12600793101E+03 -0.36668475817E+03  0.45711528275E+03  0.00000000000E+00 0. -1.
         -2    1    3    3    0  502  0.27113928651E+03  0.16691674799E+03 -0.30480489601E+03  0.44077629028E+03  0.00000000000E+00 0.  1.
         13    1    5    5    0    0 -0.26816666326E+03 -0.41863080359E+02 -0.61001595114E+03  0.66767157902E+03  0.00000000000E+00 0. -1.
        -13    1    5    5    0    0 -0.15991905892E+03  0.25124079638E+02 -0.50687249467E+03  0.53209496393E+03  0.00000000000E+00 0.  1.
          2    1    6    6  503    0  0.15329507780E+02 -0.36051038976E+02  0.24795390677E+02  0.46362513078E+02  0.00000000000E+00 0. -1.
         -2    1    6    6    0  503 -0.10049600271E+03 -0.24013463930E+03  0.40956534806E+02  0.26351760718E+03  0.00000000000E+00 0.  1.
<mgrwt>
<rscale>  0 0.16819035E+04</rscale>
<asrwt>0</asrwt>
<pdfrwt beam="1">  1        1 0.52685545E-01 0.16819035E+04</pdfrwt>
<pdfrwt beam="2">  1       -2 0.31770495E+00 0.16819035E+04</pdfrwt>
<totfact> 0.15237795E+00</totfact>
</mgrwt>
</event>
<event>
12    5  0.5197392E-008  0.1655240E+04  0.7818608E-02  0.8787312E-01
         -2   -1    0    0    0  501 -0.00000000000E+00  0.00000000000E+00  0.62114031559E+03  0.62114031559E+03  0.00000000000E+00 0.  1.
          1   -1    0    0  501    0  0.00000000000E+00 -0.00000000000E+00 -0.11027379945E+04  0.11027379945E+04  0.00000000000E+00 0. -1.
        -24    2    1    2    0    0 -0.39940740771E+02  0.19872908386E+03  0.40308268864E+03  0.45874938628E+03  0.82986950691E+02 0.  0.
        254    2    1    2    0    0  0.39940740771E+02 -0.19872908386E+03 -0.88468036751E+03  0.12651289238E+04  0.88136447033E+03 0.  0.
         23    2    4    4    0    0  0.30227000641E+03  0.10630937550E+03 -0.55416595112E+02  0.33860828200E+03  0.94423140892E+02 0.  0.
         23    2    4    4    0    0 -0.26232926564E+03 -0.30503845936E+03 -0.82926377239E+03  0.92652064176E+03  0.94323857572E+02 0.  0.
          3    1    3    3  502    0 -0.35884843389E+01  0.49335150528E+02  0.18776221300E+03  0.19416869709E+03  0.00000000000E+00 0. -1.
         -4    1    3    3    0  502 -0.36352256432E+02  0.14939393333E+03  0.21532047564E+03  0.26458068919E+03  0.00000000000E+00 0.  1.
         13    1    5    5    0    0  0.29087434282E+03  0.74573556364E+02 -0.51420697471E+02  0.30465256728E+03  0.00000000000E+00 0.  1.
        -13    1    5    5    0    0  0.11395663588E+02  0.31735819135E+02 -0.39958976409E+01  0.33955714729E+02  0.00000000000E+00 0. -1.
          2    1    6    6  503    0 -0.73758068090E+02 -0.15513366259E+03 -0.32153376811E+03  0.36454172588E+03  0.00000000000E+00 0. -1.
         -2    1    6    6    0  503 -0.18857119755E+03 -0.14990479677E+03 -0.50773000428E+03  0.56197891588E+03  0.00000000000E+00 0.  1.
<mgrwt>
<rscale>  0 0.16552402E+04</rscale>
<asrwt>0</asrwt>
<pdfrwt beam="1">  1        1 0.16965200E+00 0.16552402E+04</pdfrwt>
<pdfrwt beam="2">  1       -2 0.95560049E-01 0.16552402E+04</pdfrwt>
<totfact> 0.97161331E+00</totfact>
</mgrwt>
</event>
<event>
12    5  0.5197392E-008  0.1091592E+04  0.7818608E-02  0.9213426E-01
         -2   -1    0    0    0  501 -0.00000000000E+00  0.00000000000E+00  0.23276804112E+03  0.23276804112E+03  0.00000000000E+00 0.  1.
          1   -1    0    0  501    0  0.00000000000E+00 -0.00000000000E+00 -0.12797848189E+04  0.12797848189E+04  0.00000000000E+00 0. -1.
        -24    2    1    2    0    0 -0.99422765990E+02  0.94496966587E+02 -0.57582433361E+02  0.16863477889E+03  0.79419071566E+02 0.  0.
        254    2    1    2    0    0  0.99422765990E+02 -0.94496966587E+02 -0.98943434441E+03  0.13439180811E+04  0.89906669595E+03 0.  0.
         23    2    4    4    0    0 -0.13582123071E+03 -0.39612967887E+02 -0.10616435243E+04  0.10749977455E+04  0.92285351337E+02 0.  0.
         23    2    4    4    0    0  0.23524399670E+03 -0.54883998699E+02  0.72209179928E+02  0.26892033564E+03  0.93552070828E+02 0.  0.
          3    1    3    3  502    0  0.77927982255E+01  0.12231873324E+02 -0.26127083752E+02  0.29882619272E+02  0.00000000000E+00 0. -1.
         -4    1    3    3    0  502 -0.10721556422E+03  0.82265093263E+02 -0.31455349609E+02  0.13875215962E+03  0.00000000000E+00 0.  1.
         13    1    5    5    0    0 -0.74216843774E+02 -0.68219368161E+02 -0.65895304724E+03  0.66661918706E+03  0.00000000000E+00 0.  1.
        -13    1    5    5    0    0 -0.61604386939E+02  0.28606400273E+02 -0.40269047710E+03  0.40837855842E+03  0.00000000000E+00 0. -1.
          1    1    6    6  503    0  0.11269229949E+03  0.20688128503E+02  0.23805923735E+02  0.11702254069E+03  0.00000000000E+00 0. -1.
         -1    1    6    6    0  503  0.12255169722E+03 -0.75572127202E+02  0.48403256193E+02  0.15189779495E+03  0.00000000000E+00 0.  1.
<mgrwt>
<rscale>  0 0.10915915E+04</rscale>
<asrwt>0</asrwt>
<pdfrwt beam="1">  1        1 0.19688997E+00 0.10915915E+04</pdfrwt>
<pdfrwt beam="2">  1       -2 0.35810468E-01 0.10915915E+04</pdfrwt>
<totfact> 0.59941210E+01</totfact>
</mgrwt>
</event>
<event>
12    5  0.5197392E-008  0.1318094E+04  0.7818608E-02  0.9015338E-01
         -2   -1    0    0    0  501 -0.00000000000E+00  0.00000000000E+00  0.27396224251E+03  0.27396224251E+03  0.00000000000E+00 0.  1.
          1   -1    0    0  501    0  0.00000000000E+00 -0.00000000000E+00 -0.15854123876E+04  0.15854123876E+04  0.00000000000E+00 0. -1.
        -24    2    1    2    0    0  0.29836659674E+03 -0.90191431895E+02 -0.56904209930E+03  0.65409413465E+03  0.82904196298E+02 0.  0.
        254    2    1    2    0    0 -0.29836659674E+03  0.90191431895E+02 -0.74240804582E+03  0.12052804955E+04  0.89686913532E+03 0.  0.
         23    2    4    4    0    0  0.11095844500E+03 -0.30863658662E+03 -0.42733223187E+03  0.54640245725E+03  0.91512238412E+02 0.  0.
         23    2    4    4    0    0 -0.40932504174E+03  0.39882801851E+03 -0.31507581395E+03  0.65887803825E+03  0.90756391523E+02 0.  0.
          1    1    3    3  502    0  0.29524441662E+03 -0.93185084774E+02 -0.57085348361E+03  0.64940466992E+03  0.00000000000E+00 0. -1.
         -2    1    3    3    0  502  0.31221801232E+01  0.29936528795E+01  0.18113843082E+01  0.46894647239E+01  0.00000000000E+00 0.  1.
         13    1    5    5    0    0  0.72391661645E+01 -0.14150732621E+02  0.14860202919E+01  0.15964241816E+02  0.00000000000E+00 0. -1.
        -13    1    5    5    0    0  0.10371927883E+03 -0.29448585399E+03 -0.42881825216E+03  0.53043821543E+03  0.00000000000E+00 0.  1.
          1    1    6    6  503    0 -0.12088898519E+03  0.87760484457E+02 -0.12162451693E+03  0.19263585463E+03  0.00000000000E+00 0. -1.
         -1    1    6    6    0  503 -0.28843605655E+03  0.31106753405E+03 -0.19345129702E+03  0.46624218362E+03  0.00000000000E+00 0.  1.
<mgrwt>
<rscale>  0 0.13180943E+04</rscale>
<asrwt>0</asrwt>
<pdfrwt beam="1">  1        1 0.24390960E+00 0.13180943E+04</pdfrwt>
<pdfrwt beam="2">  1       -2 0.42148038E-01 0.13180943E+04</pdfrwt>
<totfact> 0.26234305E+01</totfact>
</mgrwt>
</event>
<event>
12    5  0.6865049E-008  0.2095318E+04  0.7818608E-02  0.8563309E-01
         -2   -1    0    0    0  501 -0.00000000000E+00  0.00000000000E+00  0.87620664127E+03  0.87620664127E+03  0.00000000000E+00 0.  1.
          1   -1    0    0  501    0  0.00000000000E+00 -0.00000000000E+00 -0.12526605282E+04  0.12526605282E+04  0.00000000000E+00 0. -1.
        -24    2    1    2    0    0  0.17018706037E+03  0.22488002489E+03 -0.97249816135E+03  0.10158134257E+04  0.81176232966E+02 0.  0.
        254    2    1    2    0    0 -0.17018706037E+03 -0.22488002489E+03  0.59604427437E+03  0.11130537439E+04  0.89670797845E+03 0.  0.
         23    2    4    4    0    0  0.27323565609E+03  0.17201382362E+03  0.21425004305E+03  0.40009304391E+03  0.99623709839E+02 0.  0.
         23    2    4    4    0    0 -0.44342271647E+03 -0.39689384851E+03  0.38179423133E+03  0.71296069996E+03  0.91638922652E+02 0.  0.
          3    1    3    3  502    0  0.15203623129E+03  0.17340264751E+03 -0.67389926866E+03  0.71226660605E+03  0.00000000000E+00 0. -1.
         -4    1    3    3    0  502  0.18150829077E+02  0.51477377380E+02 -0.29859889268E+03  0.30354681960E+03  0.00000000000E+00 0.  1.
         13    1    5    5    0    0  0.77689404241E+02  0.98645803187E+02  0.53274653617E+02  0.13639951149E+03  0.00000000000E+00 0. -1.
        -13    1    5    5    0    0  0.19554625185E+03  0.73368020433E+02  0.16097538943E+03  0.26369353242E+03  0.00000000000E+00 0.  1.
          1    1    6    6  503    0 -0.10885294277E+03 -0.13222063549E+03  0.14881877528E+03  0.22688827091E+03  0.00000000000E+00 0. -1.
         -1    1    6    6    0  503 -0.33456977370E+03 -0.26467321302E+03  0.23297545605E+03  0.48607242905E+03  0.00000000000E+00 0.  1.
<mgrwt>
<rscale>  0 0.20953181E+04</rscale>
<asrwt>0</asrwt>
<pdfrwt beam="1">  1        1 0.19271700E+00 0.20953181E+04</pdfrwt>
<pdfrwt beam="2">  1       -2 0.13480102E+00 0.20953181E+04</pdfrwt>
<totfact> 0.31274121E+00</totfact>
</mgrwt>
</event>
<event>
12    5  0.5197392E-008  0.3903984E+04  0.7818608E-02  0.8024201E-01
         -2   -1    0    0    0  501 -0.00000000000E+00  0.00000000000E+00  0.20734789373E+04  0.20734789373E+04  0.00000000000E+00 0.  1.
          1   -1    0    0  501    0  0.00000000000E+00 -0.00000000000E+00 -0.18376226293E+04  0.18376226293E+04  0.00000000000E+00 0. -1.
        -24    2    1    2    0    0  0.30769591407E+03 -0.72045075002E+03 -0.15645880895E+04  0.17515960507E+04  0.80167177375E+02 0.  0.
        254    2    1    2    0    0 -0.30769591407E+03  0.72045075002E+03  0.18004443975E+04  0.21595055158E+04  0.89896495240E+03 0.  0.
         23    2    4    4    0    0  0.20286697911E+03  0.30595245618E+03  0.20351186362E+03  0.42986251088E+03  0.92751188521E+02 0.  0.
         23    2    4    4    0    0 -0.51056289318E+03  0.41449829384E+03  0.15969325339E+04  0.17296430050E+04  0.94805607832E+02 0.  0.
          3    1    3    3  502    0  0.29844802402E+03 -0.71778120933E+03 -0.15515156254E+04  0.17353621592E+04  0.00000000000E+00 0. -1.
         -4    1    3    3    0  502  0.92478900526E+01 -0.26695406901E+01 -0.13072464062E+02  0.16233891541E+02  0.00000000000E+00 0.  1.
         13    1    5    5    0    0  0.18802896329E+00  0.71470029801E+01  0.27069357222E+02  0.27997591091E+02  0.00000000000E+00 0. -1.
        -13    1    5    5    0    0  0.20267895014E+03  0.29880545320E+03  0.17644250639E+03  0.40186491979E+03  0.00000000000E+00 0.  1.
          3    1    6    6  503    0 -0.10804202181E+03  0.58194149784E+02  0.22765571435E+03  0.25862475099E+03  0.00000000000E+00 0. -1.
         -3    1    6    6    0  503 -0.40252087137E+03  0.35630414405E+03  0.13692768196E+04  0.14710182540E+04  0.00000000000E+00 0.  1.
<mgrwt>
<rscale>  0 0.39039835E+04</rscale>
<asrwt>0</asrwt>
<pdfrwt beam="1">  1        1 0.28271117E+00 0.39039835E+04</pdfrwt>
<pdfrwt beam="2">  1       -2 0.31899676E+00 0.39039835E+04</pdfrwt>
<totfact> 0.64658005E-02</totfact>
</mgrwt>
</event>
<event>
12    5  0.5197392E-008  0.1467285E+04  0.7818608E-02  0.8906504E-01
          3   -1    0    0  501    0  0.00000000000E+00  0.00000000000E+00  0.65434973332E+03  0.65434973332E+03  0.00000000000E+00 0. -1.
         -4   -1    0    0    0  501 -0.00000000000E+00 -0.00000000000E+00 -0.82254340686E+03  0.82254340686E+03  0.00000000000E+00 0.  1.
        -24    2    1    2    0    0 -0.89621965585E+02  0.30078382723E+03 -0.38198065136E+03  0.50096783096E+03  0.80972478070E+02 0.  0.
        254    2    1    2    0    0  0.89621965585E+02 -0.30078382723E+03  0.21378697781E+03  0.97592530922E+03  0.89901186303E+03 0.  0.
         23    2    4    4    0    0  0.11867371866E+03 -0.54080584632E+03 -0.99490854052E+02  0.56975855833E+03  0.90398948201E+02 0.  0.
         23    2    4    4    0    0 -0.29051753077E+02  0.24002201909E+03  0.31327783187E+03  0.40616675089E+03  0.91508773266E+02 0.  0.
          3    1    3    3  502    0 -0.36135890232E+02  0.10221394587E+03 -0.19456888173E+03  0.22273424306E+03  0.00000000000E+00 0. -1.
         -4    1    3    3    0  502 -0.53486075353E+02  0.19856988136E+03 -0.18741176963E+03  0.27823358790E+03  0.00000000000E+00 0.  1.
         13    1    5    5    0    0 -0.15187879196E+02 -0.50815911477E+02 -0.10879835936E+02  0.54141475448E+02  0.00000000000E+00 0.  1.
        -13    1    5    5    0    0  0.13386159786E+03 -0.48998993484E+03 -0.88611018115E+02  0.51561708288E+03  0.00000000000E+00 0. -1.
          4    1    6    6  503    0 -0.45282023765E+02  0.50433876353E+02  0.93100522640E+02  0.11515964951E+03  0.00000000000E+00 0. -1.
         -4    1    6    6    0  503  0.16230270688E+02  0.18958814274E+03  0.22017730923E+03  0.29100710138E+03  0.00000000000E+00 0.  1.
<mgrwt>
<rscale>  0 0.14672846E+04</rscale>
<asrwt>0</asrwt>
<pdfrwt beam="1">  1        3 0.10066919E+00 0.14672846E+04</pdfrwt>
<pdfrwt beam="2">  1       -4 0.12654514E+00 0.14672846E+04</pdfrwt>
<totfact> 0.88444481E-01</totfact>
</mgrwt>
</event>
<event>
12    5  0.5197392E-008  0.1658278E+04  0.7818608E-02  0.8785524E-01
         -2   -1    0    0    0  501 -0.00000000000E+00  0.00000000000E+00  0.27563623188E+04  0.27563623188E+04  0.00000000000E+00 0.  1.
          1   -1    0    0  501    0  0.00000000000E+00 -0.00000000000E+00 -0.24941257294E+03  0.24941257294E+03  0.00000000000E+00 0. -1.
        -24    2    1    2    0    0 -0.49492864644E+03 -0.27874420957E+03  0.10788327600E+04  0.12226042093E+04  0.90709586905E+02 0.  0.
        254    2    1    2    0    0  0.49492864644E+03  0.27874420957E+03  0.14281169859E+04  0.17831706824E+04  0.90417191833E+03 0.  0.
         23    2    4    4    0    0 -0.11901716037E+03  0.16655926892E+03  0.32298440918E+01  0.22500392282E+03  0.93323410062E+02 0.  0.
         23    2    4    4    0    0  0.61394580681E+03  0.11218494065E+03  0.14248871418E+04  0.15581667596E+04  0.89807401293E+02 0.  0.
          1    1    3    3  502    0 -0.27971180687E+03 -0.11473273476E+03  0.62366053394E+03  0.69307629950E+03  0.00000000000E+00 0. -1.
         -2    1    3    3    0  502 -0.21521683956E+03 -0.16401147482E+03  0.45517222608E+03  0.52952790984E+03  0.00000000000E+00 0.  1.
         13    1    5    5    0    0 -0.21454071930E+02  0.93160151638E+01 -0.28905308606E+02  0.37183090330E+02  0.00000000000E+00 0.  1.
        -13    1    5    5    0    0 -0.97563088444E+02  0.15724325376E+03  0.32135152698E+02  0.18782083249E+03  0.00000000000E+00 0. -1.
          4    1    6    6  503    0  0.28085068063E+03  0.95286825932E+01  0.67924458621E+03  0.73507898113E+03  0.00000000000E+00 0. -1.
         -4    1    6    6    0  503  0.33309512618E+03  0.10265625806E+03  0.74564255556E+03  0.82308777846E+03  0.00000000000E+00 0.  1.
<mgrwt>
<rscale>  0 0.16582779E+04</rscale>
<asrwt>0</asrwt>
<pdfrwt beam="1">  1        1 0.38371167E-01 0.16582779E+04</pdfrwt>
<pdfrwt beam="2">  1       -2 0.42405572E+00 0.16582779E+04</pdfrwt>
<totfact> 0.48266440E-01</totfact>
</mgrwt>
</event>
<event>
12    5  0.5197392E-008  0.1631825E+04  0.7818608E-02  0.8801232E-01
         -2   -1    0    0    0  501 -0.00000000000E+00  0.00000000000E+00  0.21099564480E+03  0.21099564480E+03  0.00000000000E+00 0.  1.
          1   -1    0    0  501    0  0.00000000000E+00 -0.00000000000E+00 -0.31551030973E+04  0.31551030973E+04  0.00000000000E+00 0. -1.
        -24    2    1    2    0    0  0.31797450915E+03 -0.38806614391E+03 -0.49938788026E+03  0.71288095075E+03  0.84308211213E+02 0.  0.
        254    2    1    2    0    0 -0.31797450915E+03  0.38806614391E+03 -0.24447195722E+04  0.26532177913E+04  0.90067071725E+03 0.  0.
         23    2    4    4    0    0 -0.25158715553E+03  0.26735827159E+03 -0.24589571524E+04  0.24876382649E+04  0.84245577099E+02 0.  0.
         23    2    4    4    0    0 -0.66387353625E+02  0.12070787232E+03  0.14237580174E+02  0.16557952647E+03  0.90753510879E+02 0.  0.
          1    1    3    3  502    0  0.67686445860E+02 -0.42284445892E+02 -0.10351503494E+03  0.13070880528E+03  0.00000000000E+00 0. -1.
         -2    1    3    3    0  502  0.25028806329E+03 -0.34578169802E+03 -0.39587284532E+03  0.58217214548E+03  0.00000000000E+00 0.  1.
         13    1    5    5    0    0 -0.81372309211E+02  0.41772581039E+02 -0.73548619307E+03  0.74115203665E+03  0.00000000000E+00 0. -1.
        -13    1    5    5    0    0 -0.17021484632E+03  0.22558569055E+03 -0.17234709593E+04  0.17464862282E+04  0.00000000000E+00 0.  1.
          2    1    6    6  503    0 -0.15231060860E+02 -0.21255806269E+01  0.27861149114E+02  0.31823685171E+02  0.00000000000E+00 0.  1.
         -2    1    6    6    0  503 -0.51156292765E+02  0.12283345294E+03 -0.13623568940E+02  0.13375584130E+03  0.00000000000E+00 0. -1.
<mgrwt>
<rscale>  0 0.16318248E+04</rscale>
<asrwt>0</asrwt>
<pdfrwt beam="1">  1        1 0.48540048E+00 0.16318248E+04</pdfrwt>
<pdfrwt beam="2">  1       -2 0.32460868E-01 0.16318248E+04</pdfrwt>
<totfact> 0.34331097E+00</totfact>
</mgrwt>
</event>
<event>
12    5  0.5197392E-008  0.2403494E+04  0.7818608E-02  0.8438197E-01
          1   -1    0    0  501    0  0.00000000000E+00  0.00000000000E+00  0.10584497546E+04  0.10584497546E+04  0.00000000000E+00 0. -1.
         -2   -1    0    0    0  501 -0.00000000000E+00 -0.00000000000E+00 -0.13644447533E+04  0.13644447533E+04  0.00000000000E+00 0.  1.
        -24    2    1    2    0    0  0.36561408761E+03  0.27941423906E+03 -0.10599572569E+04  0.11584765645E+04  0.82538391379E+02 0.  0.
        254    2    1    2    0    0 -0.36561408761E+03 -0.27941423906E+03  0.75396225817E+03  0.12644179435E+04  0.90473624386E+03 0.  0.
         23    2    4    4    0    0 -0.48701774285E+03 -0.52667599237E+03  0.57159702544E+03  0.92191595548E+03  0.92908485456E+02 0.  0.
         23    2    4    4    0    0  0.12140365525E+03  0.24726175332E+03  0.18236523273E+03  0.34250198799E+03  0.90406368714E+02 0.  0.
          3    1    3    3  502    0  0.12331486057E+03  0.47719682648E+02 -0.30558546971E+03  0.33296576738E+03  0.00000000000E+00 0. -1.
         -4    1    3    3    0  502  0.24229922704E+03  0.23169455641E+03 -0.75437178718E+03  0.82551079714E+03  0.00000000000E+00 0.  1.
         13    1    5    5    0    0 -0.39227406848E+03 -0.45684630536E+03  0.50983198417E+03  0.78899692243E+03  0.00000000000E+00 0. -1.
        -13    1    5    5    0    0 -0.94743674375E+02 -0.69829687017E+02  0.61765041272E+02  0.13291903305E+03  0.00000000000E+00 0.  1.
          1    1    6    6  503    0  0.29605672417E+02  0.13900524110E+03  0.56999909367E+02  0.15312721038E+03  0.00000000000E+00 0. -1.
         -1    1    6    6    0  503  0.91797982829E+02  0.10825651222E+03  0.12536532337E+03  0.18937477760E+03  0.00000000000E+00 0.  1.
<mgrwt>
<rscale>  0 0.24034943E+04</rscale>
<asrwt>0</asrwt>
<pdfrwt beam="1">  1        1 0.16283842E+00 0.24034943E+04</pdfrwt>
<pdfrwt beam="2">  1       -2 0.20991458E+00 0.24034943E+04</pdfrwt>
<totfact> 0.12281644E+00</totfact>
</mgrwt>
</event>
<event>
12    5  0.5197392E-008  0.2410716E+04  0.7818608E-02  0.8435503E-01
         -2   -1    0    0    0  501 -0.00000000000E+00  0.00000000000E+00  0.57811598906E+03  0.57811598906E+03  0.00000000000E+00 0.  1.
          1   -1    0    0  501    0  0.00000000000E+00 -0.00000000000E+00 -0.25131420845E+04  0.25131420845E+04  0.00000000000E+00 0. -1.
        -24    2    1    2    0    0 -0.22613604459E+03 -0.25764442265E+03 -0.21001351397E+04  0.21294059227E+04  0.79270546980E+02 0.  0.
        254    2    1    2    0    0  0.22613604459E+03  0.25764442265E+03  0.16510904424E+03  0.96185215084E+03  0.88339142197E+03 0.  0.
         23    2    4    4    0    0  0.59793037203E+02 -0.31828672874E+03  0.20873963802E-01  0.33399750708E+03  0.81686506293E+02 0.  0.
         23    2    4    4    0    0  0.16634300739E+03  0.57593115140E+03  0.16508817028E+03  0.62785464376E+03  0.87066999860E+02 0.  0.
          3    1    3    3  502    0 -0.20092189195E+03 -0.22921940051E+03 -0.19822425133E+04  0.20055414535E+04  0.00000000000E+00 0. -1.
         -4    1    3    3    0  502 -0.25214152640E+02 -0.28425022148E+02 -0.11789262641E+03  0.12386446923E+03  0.00000000000E+00 0.  1.
         13    1    5    5    0    0  0.67376999857E+02 -0.31930198467E+03  0.45458390598E+00  0.32633360870E+03  0.00000000000E+00 0. -1.
        -13    1    5    5    0    0 -0.75839626545E+01  0.10152559209E+01 -0.43370994218E+00  0.76638983842E+01  0.00000000000E+00 0.  1.
          3    1    6    6  503    0  0.11420907611E+03  0.40894107982E+03  0.75286506916E+02  0.43121291487E+03  0.00000000000E+00 0. -1.
         -3    1    6    6    0  503  0.52133931283E+02  0.16699007158E+03  0.89801663360E+02  0.19664172889E+03  0.00000000000E+00 0.  1.
<mgrwt>
<rscale>  0 0.24107158E+04</rscale>
<asrwt>0</asrwt>
<pdfrwt beam="1">  1        1 0.38663725E+00 0.24107158E+04</pdfrwt>
<pdfrwt beam="2">  1       -2 0.88940921E-01 0.24107158E+04</pdfrwt>
<totfact> 0.11336444E+00</totfact>
</mgrwt>
</event>
<event>
12    5  0.5197392E-008  0.2047839E+04  0.7818608E-02  0.8584575E-01
         -2   -1    0    0    0  501 -0.00000000000E+00  0.00000000000E+00  0.51332737048E+03  0.51332737048E+03  0.00000000000E+00 0.  1.
          1   -1    0    0  501    0  0.00000000000E+00 -0.00000000000E+00 -0.20423840448E+04  0.20423840448E+04  0.00000000000E+00 0. -1.
        -24    2    1    2    0    0 -0.76119055382E+03 -0.32367333385E+03 -0.59278178708E+03  0.10203289788E+04  0.74199000304E+02 0.  0.
        254    2    1    2    0    0  0.76119055382E+03  0.32367333385E+03 -0.93627488720E+03  0.15353824364E+04  0.89253183439E+03 0.  0.
         23    2    4    4    0    0  0.38218433462E+03  0.50477131616E+03 -0.17808753280E+03  0.66396266805E+03  0.90952229082E+02 0.  0.
         23    2    4    4    0    0  0.37900621920E+03 -0.18109798231E+03 -0.75818735440E+03  0.87141976837E+03  0.89900806158E+02 0.  0.
          1    1    3    3  502    0 -0.64107411510E+02 -0.92667431851E+01 -0.33483824949E+02  0.72916385491E+02  0.00000000000E+00 0. -1.
         -2    1    3    3    0  502 -0.69708314230E+03 -0.31440659067E+03 -0.55929796213E+03  0.94741259332E+03  0.00000000000E+00 0.  1.
         13    1    5    5    0    0  0.11990853135E+03  0.22159621014E+03 -0.46782710903E+02  0.25626462550E+03  0.00000000000E+00 0. -1.
        -13    1    5    5    0    0  0.26227580327E+03  0.28317510602E+03 -0.13130482190E+03  0.40769804255E+03  0.00000000000E+00 0.  1.
          2    1    6    6  503    0  0.31040977462E+03 -0.10926195331E+03 -0.60831526168E+03  0.69162118259E+03  0.00000000000E+00 0. -1.
         -2    1    6    6    0  503  0.68596444576E+02 -0.71836028996E+02 -0.14987209272E+03  0.17979858578E+03  0.00000000000E+00 0.  1.
<mgrwt>
<rscale>  0 0.20478395E+04</rscale>
<asrwt>0</asrwt>
<pdfrwt beam="1">  1        1 0.31421293E+00 0.20478395E+04</pdfrwt>
<pdfrwt beam="2">  1       -2 0.78973442E-01 0.20478395E+04</pdfrwt>
<totfact> 0.32201304E+00</totfact>
</mgrwt>
</event>
<event>
12    5  0.5197392E-008  0.1647963E+04  0.7818608E-02  0.8791612E-01
          1   -1    0    0  501    0  0.00000000000E+00  0.00000000000E+00  0.58632539081E+03  0.58632539081E+03  0.00000000000E+00 0. -1.
         -2   -1    0    0    0  501 -0.00000000000E+00 -0.00000000000E+00 -0.11579671352E+04  0.11579671352E+04  0.00000000000E+00 0.  1.
        -24    2    1    2    0    0  0.37807460870E+03 -0.20458332662E+03 -0.59366716197E+03  0.73824792191E+03  0.88173395802E+02 0.  0.
        254    2    1    2    0    0 -0.37807460870E+03  0.20458332662E+03  0.22025417540E+02  0.10060446041E+04  0.90931066156E+03 0.  0.
         23    2    4    4    0    0 -0.52700910847E+03  0.42498663848E+03 -0.11710633449E+03  0.69251516774E+03  0.86666721902E+02 0.  0.
         23    2    4    4    0    0  0.14893449977E+03 -0.22040331186E+03  0.13913175203E+03  0.31352943640E+03  0.90465230692E+02 0.  0.
          1    1    3    3  502    0  0.24239984671E+02 -0.29159311812E+02 -0.23330352622E+02  0.44521317093E+02  0.00000000000E+00 0. -1.
         -2    1    3    3    0  502  0.35383462403E+03 -0.17542401481E+03 -0.57033680935E+03  0.69372660482E+03  0.00000000000E+00 0.  1.
         13    1    5    5    0    0 -0.10928483509E+03  0.13430364608E+03 -0.18443553891E+02  0.17412871449E+03  0.00000000000E+00 0.  1.
        -13    1    5    5    0    0 -0.41772427338E+03  0.29068299240E+03 -0.98662780597E+02  0.51838645325E+03  0.00000000000E+00 0. -1.
          1    1    6    6  503    0  0.58111015115E+01 -0.97017568196E+01 -0.12692206344E+02  0.16999561407E+02  0.00000000000E+00 0. -1.
         -1    1    6    6    0  503  0.14312339826E+03 -0.21070155504E+03  0.15182395837E+03  0.29652987499E+03  0.00000000000E+00 0.  1.
<mgrwt>
<rscale>  0 0.16479630E+04</rscale>
<asrwt>0</asrwt>
<pdfrwt beam="1">  1        1 0.90203907E-01 0.16479630E+04</pdfrwt>
<pdfrwt beam="2">  1       -2 0.17814879E+00 0.16479630E+04</pdfrwt>
<totfact> 0.55265243E+00</totfact>
</mgrwt>
</event>
<event>
12    5  0.5197392E-008  0.1601369E+04  0.7818608E-02  0.8819708E-01
         -2   -1    0    0    0  501 -0.00000000000E+00  0.00000000000E+00  0.43200801771E+03  0.43200801771E+03  0.00000000000E+00 0.  1.
          1   -1    0    0  501    0  0.00000000000E+00 -0.00000000000E+00 -0.14839899645E+04  0.14839899645E+04  0.00000000000E+00 0. -1.
        -24    2    1    2    0    0  0.92715393815E+02  0.51008941033E+03 -0.57410440693E+03  0.77767201014E+03  0.79940818822E+02 0.  0.
        254    2    1    2    0    0 -0.92715393815E+02 -0.51008941033E+03 -0.47787753988E+03  0.11383259721E+04  0.89366197459E+03 0.  0.
         23    2    4    4    0    0 -0.45878497713E+03 -0.12757626696E+03 -0.30962519297E+03  0.57553582128E+03  0.92813589128E+02 0.  0.
         23    2    4    4    0    0  0.36606958332E+03 -0.38251314337E+03 -0.16825234691E+03  0.56279015080E+03  0.90003649466E+02 0.  0.
          3    1    3    3  502    0 -0.26828145313E+01  0.15084075799E+03 -0.19751860913E+03  0.24854322102E+03  0.00000000000E+00 0. -1.
         -4    1    3    3    0  502  0.95398208346E+02  0.35924865233E+03 -0.37658579780E+03  0.52912878911E+03  0.00000000000E+00 0.  1.
         13    1    5    5    0    0 -0.21811209566E+03 -0.29363933743E+02 -0.10061955991E+03  0.24199054262E+03  0.00000000000E+00 0. -1.
        -13    1    5    5    0    0 -0.24067288147E+03 -0.98212333217E+02 -0.20900563306E+03  0.33354527867E+03  0.00000000000E+00 0.  1.
          1    1    6    6  503    0  0.20064575492E+03 -0.25894192497E+03 -0.13186620374E+03  0.35312651439E+03  0.00000000000E+00 0. -1.
         -1    1    6    6    0  503  0.16542382840E+03 -0.12357121839E+03 -0.36386143163E+02  0.20966363641E+03  0.00000000000E+00 0.  1.
<mgrwt>
<rscale>  0 0.16013689E+04</rscale>
<asrwt>0</asrwt>
<pdfrwt beam="1">  1        1 0.22830615E+00 0.16013689E+04</pdfrwt>
<pdfrwt beam="2">  1       -2 0.66462772E-01 0.16013689E+04</pdfrwt>
<totfact> 0.11756372E+01</totfact>
</mgrwt>
</event>
<event>
12    5  0.5197392E-008  0.1341391E+04  0.7818608E-02  0.8997371E-01
         -2   -1    0    0    0  501 -0.00000000000E+00  0.00000000000E+00  0.13289162938E+03  0.13289162938E+03  0.00000000000E+00 0.  1.
          1   -1    0    0  501    0  0.00000000000E+00 -0.00000000000E+00 -0.33849552434E+04  0.33849552434E+04  0.00000000000E+00 0. -1.
        -24    2    1    2    0    0 -0.31575762085E+03  0.14954071858E+03 -0.11171932651E+04  0.11729670897E+04  0.75270847175E+02 0.  0.
        254    2    1    2    0    0  0.31575762085E+03 -0.14954071858E+03 -0.21348703489E+04  0.23448797830E+04  0.90483395630E+03 0.  0.
         23    2    4    4    0    0  0.48363336413E+03 -0.31670784043E+03 -0.19405132061E+04  0.20268652689E+04  0.91576350919E+02 0.  0.
         23    2    4    4    0    0 -0.16787574328E+03  0.16716712184E+03 -0.19435714278E+03  0.31801451410E+03  0.85037758817E+02 0.  0.
          1    1    3    3  502    0 -0.12327451995E+02  0.92000861929E+00 -0.10825340498E+03  0.10895692808E+03  0.00000000000E+00 0. -1.
         -2    1    3    3    0  502 -0.30343016886E+03  0.14862070996E+03 -0.10089398601E+04  0.10640101616E+04  0.00000000000E+00 0.  1.
         13    1    5    5    0    0  0.21483905710E+03 -0.89924646388E+02 -0.72404447361E+03  0.76058047717E+03  0.00000000000E+00 0.  1.
        -13    1    5    5    0    0  0.26879430703E+03 -0.22678319404E+03 -0.12164687325E+04  0.12662847917E+04  0.00000000000E+00 0. -1.
          2    1    6    6  503    0 -0.11468442086E+03  0.56903771952E+02 -0.83426751342E+02  0.15280896076E+03  0.00000000000E+00 0.  1.
         -2    1    6    6    0  503 -0.53191322418E+02  0.11026334989E+03 -0.11093039144E+03  0.16520555334E+03  0.00000000000E+00 0. -1.
<mgrwt>
<rscale>  0 0.13413906E+04</rscale>
<asrwt>0</asrwt>
<pdfrwt beam="1">  1        1 0.52076229E+00 0.13413906E+04</pdfrwt>
<pdfrwt beam="2">  1       -2 0.20444868E-01 0.13413906E+04</pdfrwt>
<totfact> 0.55143744E+00</totfact>
</mgrwt>
</event>
<event>
12    5  0.5197392E-008  0.1984285E+04  0.7818608E-02  0.8614003E-01
          1   -1    0    0  501    0  0.00000000000E+00  0.00000000000E+00  0.15848449037E+04  0.15848449037E+04  0.00000000000E+00 0. -1.
         -2   -1    0    0    0  501 -0.00000000000E+00 -0.00000000000E+00 -0.62110001582E+03  0.62110001582E+03  0.00000000000E+00 0.  1.
        -24    2    1    2    0    0  0.70150964094E+03  0.34939882776E+03  0.35811385566E+03  0.86724063009E+03  0.98313069821E+02 0.  0.
        254    2    1    2    0    0 -0.70150964094E+03 -0.34939882776E+03  0.60563103220E+03  0.13387042894E+04  0.90063583659E+03 0.  0.
         23    2    4    4    0    0 -0.71227214551E+02 -0.35830633760E+02  0.61623214083E+03  0.62804412067E+03  0.91324781389E+02 0.  0.
         23    2    4    4    0    0 -0.63028242639E+03 -0.31356819399E+03 -0.10601108638E+02  0.71066016874E+03  0.96667174530E+02 0.  0.
          1    1    3    3  502    0  0.56420920797E+03  0.30007855997E+03  0.25243845867E+03  0.68709849943E+03  0.00000000000E+00 0. -1.
         -2    1    3    3    0  502  0.13730043297E+03  0.49320267787E+02  0.10567539699E+03  0.18014213066E+03  0.00000000000E+00 0.  1.
         13    1    5    5    0    0 -0.68769526597E+01  0.22720060527E+01 -0.48335926509E-01  0.72427084540E+01  0.00000000000E+00 0. -1.
        -13    1    5    5    0    0 -0.64350261891E+02 -0.38102639813E+02  0.61628047676E+03  0.62080141221E+03  0.00000000000E+00 0.  1.
          1    1    6    6  503    0 -0.88476818814E+02 -0.67190534727E+02  0.26827585512E+02  0.11429100913E+03  0.00000000000E+00 0. -1.
         -1    1    6    6    0  503 -0.54180560757E+03 -0.24637765927E+03 -0.37428694150E+02  0.59636915961E+03  0.00000000000E+00 0.  1.
<mgrwt>
<rscale>  0 0.19842855E+04</rscale>
<asrwt>0</asrwt>
<pdfrwt beam="1">  1        1 0.24382229E+00 0.19842855E+04</pdfrwt>
<pdfrwt beam="2">  1       -2 0.95553849E-01 0.19842855E+04</pdfrwt>
<totfact> 0.42849795E+00</totfact>
</mgrwt>
</event>
<event>
12    5  0.5197392E-008  0.2004817E+04  0.7818608E-02  0.8604372E-01
          1   -1    0    0  501    0  0.00000000000E+00  0.00000000000E+00  0.45402726226E+03  0.45402726226E+03  0.00000000000E+00 0. -1.
         -2   -1    0    0    0  501 -0.00000000000E+00 -0.00000000000E+00 -0.22131335124E+04  0.22131335124E+04  0.00000000000E+00 0.  1.
        -24    2    1    2    0    0 -0.24831357259E+01 -0.66707788528E+03 -0.11618071280E+04  0.13421401505E+04  0.80903090899E+02 0.  0.
        254    2    1    2    0    0  0.24831357259E+01  0.66707788528E+03 -0.59729912216E+03  0.13250206241E+04  0.97668538535E+03 0.  0.
         23    2    4    4    0    0  0.66796322816E+01  0.18321861487E+02 -0.66049788284E+03  0.66690492994E+03  0.90135588084E+02 0.  0.
         23    2    4    4    0    0 -0.41964965557E+01  0.64875602379E+03  0.63198760689E+02  0.65811569415E+03  0.90665288547E+02 0.  0.
          1    1    3    3  502    0 -0.11586198119E+02 -0.55218130408E+03 -0.10145507873E+04  0.11551414340E+04  0.00000000000E+00 0. -1.
         -2    1    3    3    0  502  0.91030623928E+01 -0.11489658120E+03 -0.14725634063E+03  0.18699871650E+03  0.00000000000E+00 0.  1.
         13    1    5    5    0    0  0.11493479149E+02 -0.23400847455E+02 -0.50973382762E+03  0.51040011241E+03  0.00000000000E+00 0. -1.
        -13    1    5    5    0    0 -0.48138468675E+01  0.41722708942E+02 -0.15076405522E+03  0.15650481753E+03  0.00000000000E+00 0.  1.
          2    1    6    6  503    0  0.23155376658E+02  0.18932110824E+03  0.52157839577E+02  0.19773490770E+03  0.00000000000E+00 0.  1.
         -2    1    6    6    0  503 -0.27351873213E+02  0.45943491555E+03  0.11040921112E+02  0.46038078645E+03  0.00000000000E+00 0. -1.
<mgrwt>
<rscale>  0 0.20048171E+04</rscale>
<asrwt>0</asrwt>
<pdfrwt beam="1">  1        1 0.69850348E-01 0.20048171E+04</pdfrwt>
<pdfrwt beam="2">  1       -2 0.34048208E+00 0.20048171E+04</pdfrwt>
<totfact> 0.73464146E-01</totfact>
</mgrwt>
</event>
<event>
12    5  0.5197392E-008  0.1888412E+04  0.7818608E-02  0.8660646E-01
          1   -1    0    0  501    0  0.00000000000E+00  0.00000000000E+00  0.75637999921E+03  0.75637999921E+03  0.00000000000E+00 0. -1.
         -2   -1    0    0    0  501 -0.00000000000E+00 -0.00000000000E+00 -0.11786728854E+04  0.11786728854E+04  0.00000000000E+00 0.  1.
        -24    2    1    2    0    0 -0.50680914603E+03  0.28185677385E+03  0.28878981402E+03  0.65278004347E+03  0.80146597007E+02 0.  0.
        254    2    1    2    0    0  0.50680914603E+03 -0.28185677385E+03 -0.71108270019E+03  0.12822728411E+04  0.89570434916E+03 0.  0.
         23    2    4    4    0    0 -0.13935801316E+03 -0.22977180728E+03  0.39373190360E+02  0.28640032078E+03  0.90879900782E+02 0.  0.
         23    2    4    4    0    0  0.64616715920E+03 -0.52084966563E+02 -0.75045589055E+03  0.99587252035E+03  0.91286317477E+02 0.  0.
          1    1    3    3  502    0 -0.34575483795E+03  0.19501370240E+03  0.23818575372E+03  0.46293542246E+03  0.00000000000E+00 0. -1.
         -2    1    3    3    0  502 -0.16105430809E+03  0.86843071444E+02  0.50604060294E+02  0.18984462102E+03  0.00000000000E+00 0.  1.
         13    1    5    5    0    0 -0.43787766432E+01 -0.31413618522E+02  0.33880130071E+02  0.46409614598E+02  0.00000000000E+00 0.  1.
        -13    1    5    5    0    0 -0.13497923652E+03 -0.19835818876E+03  0.54930602895E+01  0.23999070618E+03  0.00000000000E+00 0. -1.
          4    1    6    6  503    0  0.62169714842E+03 -0.32500547708E+02 -0.72405948313E+03  0.95489568281E+03  0.00000000000E+00 0. -1.
         -4    1    6    6    0  503  0.24470010781E+02 -0.19584418856E+02 -0.26396407420E+02  0.40976837533E+02  0.00000000000E+00 0.  1.
<mgrwt>
<rscale>  0 0.18884116E+04</rscale>
<asrwt>0</asrwt>
<pdfrwt beam="1">  1        1 0.11636615E+00 0.18884116E+04</pdfrwt>
<pdfrwt beam="2">  1       -2 0.18133429E+00 0.18884116E+04</pdfrwt>
<totfact> 0.35180354E+00</totfact>
</mgrwt>
</event>
<event>
12    5  0.5197392E-008  0.1819319E+04  0.7818608E-02  0.8696093E-01
         -2   -1    0    0    0  501 -0.00000000000E+00  0.00000000000E+00  0.86650430087E+03  0.86650430087E+03  0.00000000000E+00 0.  1.
          1   -1    0    0  501    0  0.00000000000E+00 -0.00000000000E+00 -0.95496417383E+03  0.95496417383E+03  0.00000000000E+00 0. -1.
        -24    2    1    2    0    0  0.38039493109E+03 -0.46117882357E+03 -0.36783937722E+03  0.70726795983E+03  0.86809841973E+02 0.  0.
        254    2    1    2    0    0 -0.38039493109E+03  0.46117882357E+03  0.27937950426E+03  0.11142005149E+04  0.89777707089E+03 0.  0.
         23    2    4    4    0    0  0.13071243560E+03  0.33969680216E+03  0.41941440350E+03  0.56281666915E+03  0.91512310539E+02 0.  0.
         23    2    4    4    0    0 -0.51110736669E+03  0.12148202141E+03 -0.14003489924E+03  0.55138384572E+03  0.91791886921E+02 0.  0.
          1    1    3    3  502    0  0.24966620510E+03 -0.29128350839E+03 -0.28297268433E+03  0.47671043235E+03  0.00000000000E+00 0. -1.
         -2    1    3    3    0  502  0.13072872599E+03 -0.16989531518E+03 -0.84866692888E+02  0.23055752749E+03  0.00000000000E+00 0.  1.
         13    1    5    5    0    0  0.24822439624E+02  0.11064300302E+02  0.14926161094E+02  0.31005846789E+02  0.00000000000E+00 0. -1.
        -13    1    5    5    0    0  0.10588999598E+03  0.32863250186E+03  0.40448824241E+03  0.53181082236E+03  0.00000000000E+00 0.  1.
          1    1    6    6  503    0 -0.44908092346E+03  0.12758019667E+03 -0.14502606949E+03  0.48885881727E+03  0.00000000000E+00 0.  1.
         -1    1    6    6    0  503 -0.62026443234E+02 -0.60981752576E+01  0.49911702506E+01  0.62525028446E+02  0.00000000000E+00 0. -1.
<mgrwt>
<rscale>  0 0.18193192E+04</rscale>
<asrwt>0</asrwt>
<pdfrwt beam="1">  1        1 0.14691757E+00 0.18193192E+04</pdfrwt>
<pdfrwt beam="2">  1       -2 0.13330835E+00 0.18193192E+04</pdfrwt>
<totfact> 0.55247238E+00</totfact>
</mgrwt>
</event>
<event>
12    5  0.5197392E-008  0.2137815E+04  0.7818608E-02  0.8544766E-01
         -2   -1    0    0    0  501 -0.00000000000E+00  0.00000000000E+00  0.40116849976E+03  0.40116849976E+03  0.00000000000E+00 0.  1.
          1   -1    0    0  501    0  0.00000000000E+00 -0.00000000000E+00 -0.28480872368E+04  0.28480872368E+04  0.00000000000E+00 0. -1.
        -24    2    1    2    0    0 -0.69903045090E+03 -0.49266871554E+03 -0.13006007313E+04  0.15586738796E+04  0.80845323297E+02 0.  0.
        254    2    1    2    0    0  0.69903045090E+03  0.49266871554E+03 -0.11463180058E+04  0.16905818570E+04  0.90147435355E+03 0.  0.
         23    2    4    4    0    0  0.60436000504E+03  0.49521327626E+03 -0.12782191427E+04  0.15008347434E+04  0.90407662354E+02 0.  0.
         23    2    4    4    0    0  0.94670445852E+02 -0.25445607259E+01  0.13190113690E+03  0.18974711361E+03  0.98168676775E+02 0.  0.
          1    1    3    3  502    0 -0.44461521020E+03 -0.32974126525E+03 -0.90568702732E+03  0.10614522969E+04  0.00000000000E+00 0. -1.
         -2    1    3    3    0  502 -0.25441524070E+03 -0.16292745029E+03 -0.39491370395E+03  0.49722158272E+03  0.00000000000E+00 0.  1.
         13    1    5    5    0    0  0.50771965751E+03  0.41900119020E+03 -0.11341779229E+04  0.13113736343E+04  0.00000000000E+00 0.  1.
        -13    1    5    5    0    0  0.96640347529E+02  0.76212086068E+02 -0.14404121981E+03  0.18946110904E+03  0.00000000000E+00 0. -1.
          1    1    6    6  503    0 -0.16245286001E+01 -0.12020977846E+02 -0.11526060898E+02  0.16732993796E+02  0.00000000000E+00 0. -1.
         -1    1    6    6    0  503  0.96294974452E+02  0.94764171203E+01  0.14342719780E+03  0.17301411981E+03  0.00000000000E+00 0.  1.
<mgrwt>
<rscale>  0 0.21378147E+04</rscale>
<asrwt>0</asrwt>
<pdfrwt beam="1">  1        1 0.43816725E+00 0.21378147E+04</pdfrwt>
<pdfrwt beam="2">  1       -2 0.61718232E-01 0.21378147E+04</pdfrwt>
<totfact> 0.15139589E+00</totfact>
</mgrwt>
</event>
<event>
12    5  0.5197392E-008  0.2594021E+04  0.7818608E-02  0.8370235E-01
         -2   -1    0    0    0  501 -0.00000000000E+00  0.00000000000E+00  0.48415177990E+03  0.48415177990E+03  0.00000000000E+00 0.  1.
          1   -1    0    0  501    0  0.00000000000E+00 -0.00000000000E+00 -0.34746042118E+04  0.34746042118E+04  0.00000000000E+00 0. -1.
        -24    2    1    2    0    0  0.68299384477E+03  0.34820200044E+03 -0.35474132310E+02  0.77163400282E+03  0.80220914547E+02 0.  0.
        254    2    1    2    0    0 -0.68299384477E+03 -0.34820200044E+03 -0.29549782996E+04  0.31871219889E+04  0.91549145044E+03 0.  0.
         23    2    4    4    0    0 -0.61868637380E+01 -0.17370598112E+02  0.39491573339E+02  0.98099784723E+02  0.87886110599E+02 0.  0.
         23    2    4    4    0    0 -0.67680698104E+03 -0.33083140233E+03 -0.29944698729E+04  0.30890222041E+04  0.87699780776E+02 0.  0.
          1    1    3    3  502    0  0.62413649080E+02  0.13012478941E+02  0.11377087109E+02  0.64762846686E+02  0.00000000000E+00 0. -1.
         -2    1    3    3    0  502  0.62058019569E+03  0.33518952150E+03 -0.46851219419E+02  0.70687115613E+03  0.00000000000E+00 0.  1.
         13    1    5    5    0    0 -0.10446197259E+02 -0.51816506032E+02  0.12993017965E+02  0.54432452180E+02  0.00000000000E+00 0. -1.
        -13    1    5    5    0    0  0.42593335210E+01  0.34445907920E+02  0.26498555374E+02  0.43667332542E+02  0.00000000000E+00 0.  1.
          1    1    6    6  503    0 -0.45592891917E+03 -0.22096238065E+03 -0.21746229799E+04  0.22328637794E+04  0.00000000000E+00 0. -1.
         -1    1    6    6    0  503 -0.22087806187E+03 -0.10986902168E+03 -0.81984689304E+03  0.85615842469E+03  0.00000000000E+00 0.  1.
<mgrwt>
<rscale>  0 0.25940207E+04</rscale>
<asrwt>0</asrwt>
<pdfrwt beam="1">  1        1 0.53455448E+00 0.25940207E+04</pdfrwt>
<pdfrwt beam="2">  1       -2 0.74484891E-01 0.25940207E+04</pdfrwt>
<totfact> 0.32894734E-01</totfact>
</mgrwt>
</event>
<event>
12    5  0.5197392E-008  0.1608283E+04  0.7818608E-02  0.8815475E-01
         -2   -1    0    0    0  501 -0.00000000000E+00  0.00000000000E+00  0.18218870513E+04  0.18218870513E+04  0.00000000000E+00 0.  1.
          1   -1    0    0  501    0  0.00000000000E+00 -0.00000000000E+00 -0.35493077583E+03  0.35493077583E+03  0.00000000000E+00 0. -1.
        -24    2    1    2    0    0  0.32411128107E+02 -0.47111936868E+03  0.88900829280E+03  0.10094940700E+04  0.75753494104E+02 0.  0.
        254    2    1    2    0    0 -0.32411128107E+02  0.47111936868E+03  0.57794798271E+03  0.11673237572E+04  0.89756166509E+03 0.  0.
         23    2    4    4    0    0 -0.63484045291E+01  0.25820231684E+02  0.69201146208E+03  0.69828101490E+03  0.89495952510E+02 0.  0.
         23    2    4    4    0    0 -0.26062723578E+02  0.44529913700E+03 -0.11406347936E+03  0.46904274231E+03  0.89554619163E+02 0.  0.
          3    1    3    3  502    0 -0.99143633241E+01 -0.91421517370E+02  0.23075796430E+03  0.24840576991E+03  0.00000000000E+00 0. -1.
         -4    1    3    3    0  502  0.42325491431E+02 -0.37969785131E+03  0.65825032850E+03  0.76108830006E+03  0.00000000000E+00 0.  1.
         13    1    5    5    0    0  0.36125871902E+02  0.25274070710E+02  0.48228610859E+03  0.48429716890E+03  0.00000000000E+00 0. -1.
        -13    1    5    5    0    0 -0.42474276431E+02  0.54616097420E+00  0.20972535349E+03  0.21398384599E+03  0.00000000000E+00 0.  1.
          3    1    6    6  503    0 -0.52844245639E+02  0.16721825383E+03 -0.36819264294E+02  0.17919296006E+03  0.00000000000E+00 0. -1.
         -3    1    6    6    0  503  0.26781522061E+02  0.27808088317E+03 -0.77244215069E+02  0.28984978225E+03  0.00000000000E+00 0.  1.
<mgrwt>
<rscale>  0 0.16082833E+04</rscale>
<asrwt>0</asrwt>
<pdfrwt beam="1">  1        1 0.54604736E-01 0.16082833E+04</pdfrwt>
<pdfrwt beam="2">  1       -2 0.28029031E+00 0.16082833E+04</pdfrwt>
<totfact> 0.24754816E+00</totfact>
</mgrwt>
</event>
<event>
12    5  0.5197392E-008  0.1527931E+04  0.7818608E-02  0.8866089E-01
          1   -1    0    0  501    0  0.00000000000E+00  0.00000000000E+00  0.11169456089E+04  0.11169456089E+04  0.00000000000E+00 0. -1.
         -2   -1    0    0    0  501 -0.00000000000E+00 -0.00000000000E+00 -0.52253501170E+03  0.52253501170E+03  0.00000000000E+00 0.  1.
        -24    2    1    2    0    0  0.39393654217E+03  0.32891539693E+03  0.38775727626E+03  0.64813597545E+03  0.79706961937E+02 0.  0.
        254    2    1    2    0    0 -0.39393654217E+03 -0.32891539693E+03  0.20665332089E+03  0.99134464510E+03  0.82261003685E+03 0.  0.
         23    2    4    4    0    0 -0.55835049750E+03 -0.32396387253E+03 -0.71340875648E+02  0.65571347824E+03  0.90348083817E+02 0.  0.
         23    2    4    4    0    0  0.16441395532E+03 -0.49515243992E+01  0.27799419654E+03  0.33563116686E+03  0.91164908574E+02 0.  0.
          3    1    3    3  502    0  0.37622277959E+02  0.16319362560E+02  0.56677598618E+02  0.69957898613E+02  0.00000000000E+00 0. -1.
         -4    1    3    3    0  502  0.35631426422E+03  0.31259603437E+03  0.33107967765E+03  0.57817807684E+03  0.00000000000E+00 0.  1.
         13    1    5    5    0    0 -0.40794580780E+03 -0.27888225764E+03 -0.66575508032E+02  0.49862550477E+03  0.00000000000E+00 0.  1.
        -13    1    5    5    0    0 -0.15040468969E+03 -0.45081614890E+02 -0.47653676162E+01  0.15708797348E+03  0.00000000000E+00 0. -1.
          1    1    6    6  503    0  0.46759127127E+02 -0.42186144704E+02  0.11592354601E+03  0.13192556725E+03  0.00000000000E+00 0. -1.
         -1    1    6    6    0  503  0.11765482820E+03  0.37234620305E+02  0.16207065054E+03  0.20370559961E+03  0.00000000000E+00 0.  1.
<mgrwt>
<rscale>  0 0.15279309E+04</rscale>
<asrwt>0</asrwt>
<pdfrwt beam="1">  1        1 0.17183779E+00 0.15279309E+04</pdfrwt>
<pdfrwt beam="2">  1       -2 0.80390002E-01 0.15279309E+04</pdfrwt>
<totfact> 0.14247787E+01</totfact>
</mgrwt>
</event>
<event>
12    5  0.5197392E-008  0.1639651E+04  0.7818608E-02  0.8796552E-01
          1   -1    0    0  501    0  0.00000000000E+00  0.00000000000E+00  0.71075281675E+03  0.71075281675E+03  0.00000000000E+00 0. -1.
         -2   -1    0    0    0  501 -0.00000000000E+00 -0.00000000000E+00 -0.94563667537E+03  0.94563667537E+03  0.00000000000E+00 0.  1.
        -24    2    1    2    0    0 -0.10273672785E+03 -0.42544773141E+03 -0.44703952485E+03  0.62978167499E+03  0.72249664087E+02 0.  0.
        254    2    1    2    0    0  0.10273672785E+03  0.42544773141E+03  0.21215566623E+03  0.10266078171E+04  0.90407575792E+03 0.  0.
         23    2    4    4    0    0  0.37159504792E+03 -0.10776312276E+03  0.12035231780E+03  0.41544647257E+03  0.91735058194E+02 0.  0.
         23    2    4    4    0    0 -0.26885832007E+03  0.53321085418E+03  0.91803348435E+02  0.61116134456E+03  0.92150545404E+02 0.  0.
          1    1    3    3  502    0 -0.57350993110E+02 -0.11973915862E+03 -0.10921981584E+03  0.17191733679E+03  0.00000000000E+00 0. -1.
         -2    1    3    3    0  502 -0.45385734741E+02 -0.30570857280E+03 -0.33781970901E+03  0.45786433820E+03  0.00000000000E+00 0.  1.
         13    1    5    5    0    0  0.36005009951E+03 -0.93404195007E+02  0.94648403653E+02  0.38382123198E+03  0.00000000000E+00 0.  1.
        -13    1    5    5    0    0  0.11544948412E+02 -0.14358927753E+02  0.25703914144E+02  0.31625240590E+02  0.00000000000E+00 0. -1.
          2    1    6    6  503    0  0.14642949085E+01  0.49616355280E+02  0.31888046976E+00  0.49638982217E+02  0.00000000000E+00 0. -1.
         -2    1    6    6    0  503 -0.27032261498E+03  0.48359449890E+03  0.91484467965E+02  0.56152236234E+03  0.00000000000E+00 0.  1.
<mgrwt>
<rscale>  0 0.16396511E+04</rscale>
<asrwt>0</asrwt>
<pdfrwt beam="1">  1        1 0.10934659E+00 0.16396511E+04</pdfrwt>
<pdfrwt beam="2">  1       -2 0.14548257E+00 0.16396511E+04</pdfrwt>
<totfact> 0.72373114E+00</totfact>
</mgrwt>
</event>
<event>
12    5  0.5197392E-008  0.1289115E+04  0.7818608E-02  0.9038242E-01
          1   -1    0    0  501    0  0.00000000000E+00  0.00000000000E+00  0.20973065886E+03  0.20973065886E+03  0.00000000000E+00 0. -1.
         -2   -1    0    0    0  501 -0.00000000000E+00 -0.00000000000E+00 -0.19808944399E+04  0.19808944399E+04  0.00000000000E+00 0.  1.
        -24    2    1    2    0    0 -0.16376934911E+03 -0.25864628960E+03 -0.49657480476E+03  0.58886206515E+03  0.80334875451E+02 0.  0.
        254    2    1    2    0    0  0.16376934911E+03  0.25864628960E+03 -0.12745889763E+04  0.16017630336E+04  0.92051586329E+03 0.  0.
         23    2    4    4    0    0  0.28356700487E+03  0.31797842287E+03 -0.13529677264E+04  0.14216658270E+04  0.95349521371E+02 0.  0.
         23    2    4    4    0    0 -0.11979765576E+03 -0.59332133264E+02  0.78378750178E+02  0.18009720659E+03  0.91760530621E+02 0.  0.
          3    1    3    3  502    0 -0.63276699449E+02 -0.37450620124E+02 -0.11277100548E+03  0.13462462374E+03  0.00000000000E+00 0. -1.
         -4    1    3    3    0  502 -0.10049264966E+03 -0.22119566948E+03 -0.38380379928E+03  0.45423744141E+03  0.00000000000E+00 0.  1.
         13    1    5    5    0    0  0.25498758970E+03  0.22814256007E+03 -0.10766264636E+04  0.11296867888E+04  0.00000000000E+00 0. -1.
        -13    1    5    5    0    0  0.28579415174E+02  0.89835862800E+02 -0.27634126285E+03  0.29197903824E+03  0.00000000000E+00 0.  1.
          3    1    6    6  503    0 -0.75143556971E+02 -0.82628002884E+02  0.51147329993E+02  0.12284132196E+03  0.00000000000E+00 0.  1.
         -3    1    6    6    0  503 -0.44654098792E+02  0.23295869620E+02  0.27231420185E+02  0.57255884637E+02  0.00000000000E+00 0. -1.
<mgrwt>
<rscale>  0 0.12891149E+04</rscale>
<asrwt>0</asrwt>
<pdfrwt beam="1">  1        1 0.32266255E-01 0.12891149E+04</pdfrwt>
<pdfrwt beam="2">  1       -2 0.30475300E+00 0.12891149E+04</pdfrwt>
<totfact> 0.35881566E+00</totfact>
</mgrwt>
</event>
<event>
12    5  0.5197392E-008  0.1238005E+04  0.7818608E-02  0.9080226E-01
         -2   -1    0    0    0  501 -0.00000000000E+00  0.00000000000E+00  0.11469891816E+04  0.11469891816E+04  0.00000000000E+00 0.  1.
          1   -1    0    0  501    0  0.00000000000E+00 -0.00000000000E+00 -0.33406056951E+03  0.33406056951E+03  0.00000000000E+00 0. -1.
        -24    2    1    2    0    0  0.63721372798E+02 -0.76581523100E+02  0.53345970762E+03  0.54828567451E+03  0.78184257917E+02 0.  0.
        254    2    1    2    0    0 -0.63721372798E+02  0.76581523100E+02  0.27946890448E+03  0.93276407661E+03  0.88431940554E+03 0.  0.
         23    2    4    4    0    0  0.11049985995E+03 -0.16536216236E+03  0.50294945427E+03  0.54856470724E+03  0.91707255396E+02 0.  0.
         23    2    4    4    0    0 -0.17422123275E+03  0.24194368546E+03 -0.22348054979E+03  0.38419936937E+03  0.93679316868E+02 0.  0.
          1    1    3    3  502    0 -0.16996365128E+01 -0.30103717950E+02  0.29809346949E+03  0.29961448422E+03  0.00000000000E+00 0. -1.
         -2    1    3    3    0  502  0.65421009311E+02 -0.46477805151E+02  0.23536623813E+03  0.24867119029E+03  0.00000000000E+00 0.  1.
         13    1    5    5    0    0  0.57749098659E+02 -0.14154719691E+03  0.42366338954E+03  0.45040119337E+03  0.00000000000E+00 0.  1.
        -13    1    5    5    0    0  0.52750761291E+02 -0.23814965449E+02  0.79286064728E+02  0.98163513874E+02  0.00000000000E+00 0. -1.
          1    1    6    6  503    0 -0.87094191802E+02  0.17747329992E+03 -0.10584414340E+03  0.22424351300E+03  0.00000000000E+00 0. -1.
         -1    1    6    6    0  503 -0.87127040945E+02  0.64470385540E+02 -0.11763640640E+03  0.15995585636E+03  0.00000000000E+00 0.  1.
<mgrwt>
<rscale>  0 0.12380046E+04</rscale>
<asrwt>0</asrwt>
<pdfrwt beam="1">  1        1 0.51393934E-01 0.12380046E+04</pdfrwt>
<pdfrwt beam="2">  1       -2 0.17645987E+00 0.12380046E+04</pdfrwt>
<totfact> 0.12579640E+01</totfact>
</mgrwt>
</event>
<event>
12    5  0.5197392E-008  0.1512610E+04  0.7818608E-02  0.8876110E-01
         -4   -1    0    0    0  501 -0.00000000000E+00  0.00000000000E+00  0.23885470039E+03  0.23885470039E+03  0.00000000000E+00 0.  1.
          1   -1    0    0  501    0  0.00000000000E+00 -0.00000000000E+00 -0.23947505280E+04  0.23947505280E+04  0.00000000000E+00 0. -1.
        -24    2    1    2    0    0 -0.45886331478E+02 -0.36987371687E+03 -0.23579458868E+03  0.44795528445E+03  0.78439320272E+02 0.  0.
        254    2    1    2    0    0  0.45886331478E+02  0.36987371687E+03 -0.19201012389E+04  0.21856499439E+04  0.97537930459E+03 0.  0.
         23    2    4    4    0    0 -0.48760532505E+01  0.58189914718E+03 -0.58435575379E+03  0.82958473428E+03  0.90048825486E+02 0.  0.
         23    2    4    4    0    0  0.50762384729E+02 -0.21202543031E+03 -0.13357454851E+04  0.13560652096E+04  0.84647793648E+02 0.  0.
          1    1    3    3  502    0 -0.20464588283E+02 -0.12363805692E+03 -0.12413294809E+03  0.17639205565E+03  0.00000000000E+00 0. -1.
         -4    1    3    3    0  502 -0.25421743196E+02 -0.24623565995E+03 -0.11166164059E+03  0.27156322880E+03  0.00000000000E+00 0.  1.
         13    1    5    5    0    0  0.10170092746E+02  0.56754354863E+03 -0.56909705031E+03  0.80379136786E+03  0.00000000000E+00 0.  1.
        -13    1    5    5    0    0 -0.15046145996E+02  0.14355598549E+02 -0.15258703484E+02  0.25793366416E+02  0.00000000000E+00 0. -1.
          2    1    6    6  503    0 -0.19962333235E+02 -0.17522246477E+02 -0.12989448369E+03  0.13258243006E+03  0.00000000000E+00 0. -1.
         -2    1    6    6    0  503  0.70724717964E+02 -0.19450318383E+03 -0.12058510014E+04  0.12234827796E+04  0.00000000000E+00 0.  1.
<mgrwt>
<rscale>  0 0.15126102E+04</rscale>
<asrwt>0</asrwt>
<pdfrwt beam="1">  1        1 0.36842317E+00 0.15126102E+04</pdfrwt>
<pdfrwt beam="2">  1       -4 0.36746876E-01 0.15126102E+04</pdfrwt>
<totfact> 0.55723617E+00</totfact>
</mgrwt>
</event>
<event>
12    5  0.5197392E-008  0.1565955E+04  0.7818608E-02  0.8841740E-01
         -2   -1    0    0    0  501 -0.00000000000E+00  0.00000000000E+00  0.55198912997E+03  0.55198912997E+03  0.00000000000E+00 0.  1.
          1   -1    0    0  501    0  0.00000000000E+00 -0.00000000000E+00 -0.11106271350E+04  0.11106271350E+04  0.00000000000E+00 0. -1.
        -24    2    1    2    0    0  0.44937647458E+03  0.82838087179E+02 -0.45129144887E+03  0.64735244820E+03  0.81239496370E+02 0.  0.
        254    2    1    2    0    0 -0.44937647458E+03 -0.82838087179E+02 -0.10734655616E+03  0.10152638168E+04  0.90024217294E+03 0.  0.
         23    2    4    4    0    0  0.11232043756E+03 -0.13007422186E+03  0.26864574429E+03  0.33207219146E+03  0.92553879043E+02 0.  0.
         23    2    4    4    0    0 -0.56169691214E+03  0.47236134682E+02 -0.37599230045E+03  0.68319162532E+03  0.87440913648E+02 0.  0.
          1    1    3    3  502    0  0.43405856259E+03  0.73956163346E+02 -0.45002248996E+03  0.62960034254E+03  0.00000000000E+00 0. -1.
         -2    1    3    3    0  502  0.15317911991E+02  0.88819238330E+01 -0.12689589146E+01  0.17752105663E+02  0.00000000000E+00 0.  1.
         13    1    5    5    0    0  0.12601979713E+03 -0.10540385483E+03  0.24635681456E+03  0.29611254948E+03  0.00000000000E+00 0.  1.
        -13    1    5    5    0    0 -0.13699359573E+02 -0.24670367029E+02  0.22288929734E+02  0.35959641972E+02  0.00000000000E+00 0. -1.
          3    1    6    6  503    0 -0.18379196939E+03 -0.22365482242E+02 -0.14155532342E+03  0.23306139190E+03  0.00000000000E+00 0. -1.
         -3    1    6    6    0  503 -0.37790494276E+03  0.69601616924E+02 -0.23443697703E+03  0.45013023342E+03  0.00000000000E+00 0.  1.
<mgrwt>
<rscale>  0 0.15659554E+04</rscale>
<asrwt>0</asrwt>
<pdfrwt beam="1">  1        1 0.17086571E+00 0.15659554E+04</pdfrwt>
<pdfrwt beam="2">  1       -2 0.84921406E-01 0.15659554E+04</pdfrwt>
<totfact> 0.12681635E+01</totfact>
</mgrwt>
</event>
<event>
12    5  0.5197392E-008  0.1161277E+04  0.7818608E-02  0.9147442E-01
          1   -1    0    0  501    0  0.00000000000E+00  0.00000000000E+00  0.80229839918E+03  0.80229839918E+03  0.00000000000E+00 0. -1.
         -2   -1    0    0    0  501 -0.00000000000E+00 -0.00000000000E+00 -0.42021937473E+03  0.42021937473E+03  0.00000000000E+00 0.  1.
        -24    2    1    2    0    0 -0.11502363964E+02 -0.18467756708E+03  0.19809989026E+03  0.28262405574E+03  0.79966756850E+02 0.  0.
        254    2    1    2    0    0  0.11502363964E+02  0.18467756708E+03  0.18397913419E+03  0.93989371817E+03  0.90294726949E+03 0.  0.
         23    2    4    4    0    0 -0.67789829483E+02 -0.35218170939E+03  0.40950781699E+02  0.37219028228E+03  0.90670956143E+02 0.  0.
         23    2    4    4    0    0  0.79292193447E+02  0.53685927648E+03  0.14302835249E+03  0.56770343589E+03  0.85585903189E+02 0.  0.
          3    1    3    3  502    0 -0.45565141520E+02 -0.11998058133E+03  0.13082363436E+03  0.18326577784E+03  0.00000000000E+00 0. -1.
         -4    1    3    3    0  502  0.34062777556E+02 -0.64696985748E+02  0.67276255901E+02  0.99358277903E+02  0.00000000000E+00 0.  1.
         13    1    5    5    0    0  0.11377874347E+02 -0.73343254522E+02 -0.18057554692E+02  0.76385628819E+02  0.00000000000E+00 0. -1.
        -13    1    5    5    0    0 -0.79167703830E+02 -0.27883845487E+03  0.59008336390E+02  0.29580465346E+03  0.00000000000E+00 0.  1.
          3    1    6    6  503    0  0.23212713472E+02  0.19664906373E+03  0.94827566148E+02  0.21954942868E+03  0.00000000000E+00 0. -1.
         -3    1    6    6    0  503  0.56079479975E+02  0.34021021275E+03  0.48200786339E+02  0.34815400721E+03  0.00000000000E+00 0.  1.
<mgrwt>
<rscale>  0 0.11612775E+04</rscale>
<asrwt>0</asrwt>
<pdfrwt beam="1">  1        1 0.12343052E+00 0.11612775E+04</pdfrwt>
<pdfrwt beam="2">  1       -2 0.64649135E-01 0.11612775E+04</pdfrwt>
<totfact> 0.42273853E+01</totfact>
</mgrwt>
</event>
<event>
12    5  0.5197392E-008  0.1640568E+04  0.7818608E-02  0.8796006E-01
          1   -1    0    0  501    0  0.00000000000E+00  0.00000000000E+00  0.13160279042E+04  0.13160279042E+04  0.00000000000E+00 0. -1.
         -2   -1    0    0    0  501 -0.00000000000E+00 -0.00000000000E+00 -0.51128527322E+03  0.51128527322E+03  0.00000000000E+00 0.  1.
        -24    2    1    2    0    0  0.16760591508E+03  0.41800279036E+03 -0.10900306073E+03  0.47010432472E+03  0.79362039744E+02 0.  0.
        254    2    1    2    0    0 -0.16760591508E+03 -0.41800279036E+03  0.91374569174E+03  0.13572088527E+04  0.89680912418E+03 0.  0.
         23    2    4    4    0    0 -0.23771725212E+03  0.17161555449E+03  0.58977330186E+02  0.31290917385E+03  0.92045831579E+02 0.  0.
         23    2    4    4    0    0  0.70111337031E+02 -0.58961834485E+03  0.85476836155E+03  0.10442996789E+04  0.85833997929E+02 0.  0.
          1    1    3    3  502    0  0.13918634202E+02  0.48670791771E+02  0.12281028174E+02  0.52090287028E+02  0.00000000000E+00 0. -1.
         -2    1    3    3    0  502  0.15368728088E+03  0.36933199859E+03 -0.12128408890E+03  0.41801403769E+03  0.00000000000E+00 0.  1.
         13    1    5    5    0    0 -0.14718691559E+03  0.96611602455E+02  0.80160971325E+02  0.19345172828E+03  0.00000000000E+00 0.  1.
        -13    1    5    5    0    0 -0.90530336522E+02  0.75003952033E+02 -0.21183641139E+02  0.11945744557E+03  0.00000000000E+00 0. -1.
          2    1    6    6  503    0  0.85710974276E+02 -0.55758665096E+03  0.79771525946E+03  0.97703576168E+03  0.00000000000E+00 0. -1.
         -2    1    6    6    0  503 -0.15599637244E+02 -0.32031693892E+02  0.57053102099E+02  0.67263917184E+02  0.00000000000E+00 0.  1.
<mgrwt>
<rscale>  0 0.16405678E+04</rscale>
<asrwt>0</asrwt>
<pdfrwt beam="1">  1        1 0.20246583E+00 0.16405678E+04</pdfrwt>
<pdfrwt beam="2">  1       -2 0.78659273E-01 0.16405678E+04</pdfrwt>
<totfact> 0.10612509E+01</totfact>
</mgrwt>
</event>
<event>
12    5  0.1162089E-007  0.1772206E+04  0.7818608E-02  0.8721221E-01
          1   -1    0    0  501    0  0.00000000000E+00  0.00000000000E+00  0.16565225858E+04  0.16565225858E+04  0.00000000000E+00 0. -1.
         -2   -1    0    0    0  501 -0.00000000000E+00 -0.00000000000E+00 -0.47399181674E+03  0.47399181674E+03  0.00000000000E+00 0.  1.
        -24    2    1    2    0    0  0.26153181661E+03 -0.42431611025E+02  0.11575969810E+04  0.11904533419E+04  0.83360998840E+02 0.  0.
        254    2    1    2    0    0 -0.26153181661E+03  0.42431611025E+02  0.24933787989E+02  0.94006106057E+03  0.90160621731E+03 0.  0.
         23    2    4    4    0    0  0.32198531197E+03  0.44896482508E+02  0.78550041470E+02  0.34694196417E+03  0.92240892360E+02 0.  0.
         23    2    4    4    0    0 -0.58351712858E+03 -0.24648714824E+01 -0.53616253482E+02  0.59311909640E+03  0.91745544496E+02 0.  0.
          1    1    3    3  502    0  0.19619760145E+03 -0.67479867791E+02  0.84071598627E+03  0.86593902842E+03  0.00000000000E+00 0. -1.
         -2    1    3    3    0  502  0.65334215163E+02  0.25048256766E+02  0.31688099476E+03  0.32451431352E+03  0.00000000000E+00 0.  1.
         13    1    5    5    0    0  0.31310399286E+03  0.42360900215E+02  0.53773448978E+02  0.32049982844E+03  0.00000000000E+00 0. -1.
        -13    1    5    5    0    0  0.88813191050E+01  0.25355822929E+01  0.24776592492E+02  0.26442135733E+02  0.00000000000E+00 0.  1.
          3    1    6    6  503    0 -0.55392067647E+03 -0.21322700006E+02 -0.41070532789E+02  0.55585030541E+03  0.00000000000E+00 0. -1.
         -3    1    6    6    0  503 -0.29596452108E+02  0.18857828524E+02 -0.12545720692E+02  0.37268790988E+02  0.00000000000E+00 0.  1.
<mgrwt>
<rscale>  0 0.17722056E+04</rscale>
<asrwt>0</asrwt>
<pdfrwt beam="1">  1        1 0.25484962E+00 0.17722056E+04</pdfrwt>
<pdfrwt beam="2">  1       -2 0.72921819E-01 0.17722056E+04</pdfrwt>
<totfact> 0.71995848E+00</totfact>
</mgrwt>
</event>
<event>
12    5  0.5197392E-008  0.1786639E+04  0.7818608E-02  0.8713437E-01
          1   -1    0    0  501    0  0.00000000000E+00  0.00000000000E+00  0.43093189858E+04  0.43093189858E+04  0.00000000000E+00 0. -1.
         -2   -1    0    0    0  501 -0.00000000000E+00 -0.00000000000E+00 -0.18518461060E+03  0.18518461060E+03  0.00000000000E+00 0.  1.
        -24    2    1    2    0    0  0.63845904581E+03 -0.19008449565E+03  0.15557173228E+04  0.16942333144E+04  0.80050399013E+02 0.  0.
        254    2    1    2    0    0 -0.63845904581E+03  0.19008449565E+03  0.25684170523E+04  0.28002702820E+04  0.89497789286E+03 0.  0.
         23    2    4    4    0    0  0.51785690406E+02 -0.24497684924E+03  0.93207798071E+03  0.96949745279E+03  0.91981163537E+02 0.  0.
         23    2    4    4    0    0 -0.69024473622E+03  0.43506134489E+03  0.16363390716E+04  0.18307728292E+04  0.91692011926E+02 0.  0.
          3    1    3    3  502    0  0.11579243342E+03 -0.49245133992E+02  0.36967793642E+03  0.39050575865E+03  0.00000000000E+00 0. -1.
         -4    1    3    3    0  502  0.52266661239E+03 -0.14083936165E+03  0.11860393864E+04  0.13037275558E+04  0.00000000000E+00 0.  1.
         13    1    5    5    0    0  0.20342589456E+02 -0.69562796805E+02  0.44454766105E+03  0.45041694749E+03  0.00000000000E+00 0. -1.
        -13    1    5    5    0    0  0.31443100950E+02 -0.17541405244E+03  0.48753031967E+03  0.51908050530E+03  0.00000000000E+00 0.  1.
          4    1    6    6  503    0 -0.29946663915E+03  0.20955653196E+03  0.82704338867E+03  0.90420958566E+03  0.00000000000E+00 0.  1.
         -4    1    6    6    0  503 -0.39077809707E+03  0.22550481293E+03  0.80929568296E+03  0.92656324353E+03  0.00000000000E+00 0. -1.
<mgrwt>
<rscale>  0 0.17866388E+04</rscale>
<asrwt>0</asrwt>
<pdfrwt beam="1">  1        1 0.66297207E+00 0.17866388E+04</pdfrwt>
<pdfrwt beam="2">  1       -2 0.28489943E-01 0.17866388E+04</pdfrwt>
<totfact> 0.47445188E-01</totfact>
</mgrwt>
</event>
<event>
12    5  0.5197392E-008  0.1373065E+04  0.7818608E-02  0.8973549E-01
         -2   -1    0    0    0  501 -0.00000000000E+00  0.00000000000E+00  0.18464784207E+03  0.18464784207E+03  0.00000000000E+00 0.  1.
          1   -1    0    0  501    0  0.00000000000E+00 -0.00000000000E+00 -0.25525731933E+04  0.25525731933E+04  0.00000000000E+00 0. -1.
        -24    2    1    2    0    0  0.34398542921E+03 -0.68108229095E+02 -0.98325945887E+03  0.10469264774E+04  0.79316954448E+02 0.  0.
        254    2    1    2    0    0 -0.34398542921E+03  0.68108229095E+02 -0.13846658923E+04  0.16902945579E+04  0.90378722762E+03 0.  0.
         23    2    4    4    0    0  0.29783354721E+03 -0.21189519878E+02 -0.39273157086E+03  0.50167525371E+03  0.91028324398E+02 0.  0.
         23    2    4    4    0    0 -0.64181897641E+03  0.89297748973E+02 -0.99193432146E+03  0.11886193042E+04  0.94744212436E+02 0.  0.
          3    1    3    3  502    0  0.23682159962E+03 -0.15833491966E+02 -0.71490065302E+03  0.75327160653E+03  0.00000000000E+00 0. -1.
         -4    1    3    3    0  502  0.10716382958E+03 -0.52274737129E+02 -0.26835880585E+03  0.29365487088E+03  0.00000000000E+00 0.  1.
         13    1    5    5    0    0  0.28353057448E+03 -0.17478957593E+02 -0.39519259198E+03  0.48669526953E+03  0.00000000000E+00 0.  1.
        -13    1    5    5    0    0  0.14302972724E+02 -0.37105622848E+01  0.24610211198E+01  0.14979984185E+02  0.00000000000E+00 0. -1.
          1    1    6    6  503    0 -0.15156516908E+03  0.72370286809E+01 -0.16821921017E+03  0.22654376560E+03  0.00000000000E+00 0. -1.
         -1    1    6    6    0  503 -0.49025380733E+03  0.82060720292E+02 -0.82371511128E+03  0.96207553860E+03  0.00000000000E+00 0.  1.
<mgrwt>
<rscale>  0 0.13730654E+04</rscale>
<asrwt>0</asrwt>
<pdfrwt beam="1">  1        1 0.39270359E+00 0.13730654E+04</pdfrwt>
<pdfrwt beam="2">  1       -2 0.28407359E-01 0.13730654E+04</pdfrwt>
<totfact> 0.12176667E+01</totfact>
</mgrwt>
</event>
<event>
12    5  0.5197392E-008  0.3165429E+04  0.7818608E-02  0.8198007E-01
         -2   -1    0    0    0  501 -0.00000000000E+00  0.00000000000E+00  0.18189266006E+04  0.18189266006E+04  0.00000000000E+00 0.  1.
          1   -1    0    0  501    0  0.00000000000E+00 -0.00000000000E+00 -0.13771779019E+04  0.13771779019E+04  0.00000000000E+00 0. -1.
        -24    2    1    2    0    0 -0.79875700288E+03 -0.50964069491E+02  0.14284505863E+04  0.16393741712E+04  0.80414611739E+02 0.  0.
        254    2    1    2    0    0  0.79875700288E+03  0.50964069491E+02 -0.98670188757E+03  0.15567303314E+04  0.89956579730E+03 0.  0.
         23    2    4    4    0    0 -0.12842181060E+03  0.20314560410E+03 -0.26996010143E+03  0.37142634882E+03  0.85549858745E+02 0.  0.
         23    2    4    4    0    0  0.92717881349E+03 -0.15218153460E+03 -0.71674178615E+03  0.11853039826E+04  0.91689538255E+02 0.  0.
          3    1    3    3  502    0 -0.88044913275E+01  0.82149596102E+01  0.17249570326E+02  0.21036927184E+02  0.00000000000E+00 0. -1.
         -4    1    3    3    0  502 -0.78995251156E+03 -0.59179029101E+02  0.14112010159E+04  0.16183372440E+04  0.00000000000E+00 0.  1.
         13    1    5    5    0    0 -0.13921056879E+03  0.17113944432E+03 -0.24306014409E+03  0.32824765880E+03  0.00000000000E+00 0. -1.
        -13    1    5    5    0    0  0.10788758182E+02  0.32006159777E+02 -0.26899957335E+02  0.43178690015E+02  0.00000000000E+00 0.  1.
          2    1    6    6  503    0  0.42560561735E+03 -0.32829991741E+02 -0.35909440362E+03  0.55782321625E+03  0.00000000000E+00 0. -1.
         -2    1    6    6    0  503  0.50157319614E+03 -0.11935154286E+03 -0.35764738253E+03  0.62748076632E+03  0.00000000000E+00 0.  1.
<mgrwt>
<rscale>  0 0.31654292E+04</rscale>
<asrwt>0</asrwt>
<pdfrwt beam="1">  1        1 0.21187352E+00 0.31654292E+04</pdfrwt>
<pdfrwt beam="2">  1       -2 0.27983486E+00 0.31654292E+04</pdfrwt>
<totfact> 0.24795298E-01</totfact>
</mgrwt>
</event>
<event>
12    5  0.5197392E-008  0.1266908E+04  0.7818608E-02  0.9056227E-01
          1   -1    0    0  501    0  0.00000000000E+00  0.00000000000E+00  0.52006254701E+03  0.52006254701E+03  0.00000000000E+00 0. -1.
         -2   -1    0    0    0  501 -0.00000000000E+00 -0.00000000000E+00 -0.77156884733E+03  0.77156884733E+03  0.00000000000E+00 0.  1.
        -24    2    1    2    0    0 -0.21221397494E+03 -0.59028032409E+02  0.13623873380E+03  0.27076614702E+03  0.78957165698E+02 0.  0.
        254    2    1    2    0    0  0.21221397494E+03  0.59028032409E+02 -0.38774503411E+03  0.10208652473E+04  0.91831397786E+03 0.  0.
         23    2    4    4    0    0  0.22064514497E+03  0.39533814553E+03  0.46196974799E+02  0.46414855319E+03  0.91231516673E+02 0.  0.
         23    2    4    4    0    0 -0.84311700261E+01 -0.33631011312E+03 -0.43394200891E+03  0.55671669413E+03  0.91936030012E+02 0.  0.
          3    1    3    3  502    0 -0.69386448474E+02  0.11307454351E+02  0.67137273406E+02  0.97209830965E+02  0.00000000000E+00 0. -1.
         -4    1    3    3    0  502 -0.14282752647E+03 -0.70335486761E+02  0.69101460391E+02  0.17355631606E+03  0.00000000000E+00 0.  1.
         13    1    5    5    0    0  0.17143798441E+03  0.25182839251E+03  0.64312368754E+02  0.31135928210E+03  0.00000000000E+00 0. -1.
        -13    1    5    5    0    0  0.49207160560E+02  0.14350975302E+03 -0.18115393955E+02  0.15278927109E+03  0.00000000000E+00 0.  1.
          3    1    6    6  503    0  0.69078943276E+01 -0.14805174088E+03 -0.26339363314E+03  0.30223044678E+03  0.00000000000E+00 0. -1.
         -3    1    6    6    0  503 -0.15339064354E+02 -0.18825837224E+03 -0.17054837577E+03  0.25448624735E+03  0.00000000000E+00 0.  1.
<mgrwt>
<rscale>  0 0.12669081E+04</rscale>
<asrwt>0</asrwt>
<pdfrwt beam="1">  1        1 0.80009623E-01 0.12669081E+04</pdfrwt>
<pdfrwt beam="2">  1       -2 0.11870290E+00 0.12669081E+04</pdfrwt>
<totfact> 0.19715391E+01</totfact>
</mgrwt>
</event>
<event>
12    5  0.5197392E-008  0.2238136E+04  0.7818608E-02  0.8502721E-01
          1   -1    0    0  501    0  0.00000000000E+00  0.00000000000E+00  0.27252809359E+04  0.27252809359E+04  0.00000000000E+00 0. -1.
         -2   -1    0    0    0  501 -0.00000000000E+00 -0.00000000000E+00 -0.45951715658E+03  0.45951715658E+03  0.00000000000E+00 0.  1.
        -24    2    1    2    0    0  0.25027336785E+02  0.46599671192E+03  0.22375291329E+04  0.22871497344E+04  0.82085222361E+02 0.  0.
        254    2    1    2    0    0 -0.25027336785E+02 -0.46599671192E+03  0.28234646389E+02  0.89764835808E+03  0.76628720229E+03 0.  0.
         23    2    4    4    0    0 -0.30389322044E+03 -0.49840289652E+03  0.84438979613E+02  0.59651021155E+03  0.89095199154E+02 0.  0.
         23    2    4    4    0    0  0.27886588366E+03  0.32406184602E+02 -0.56204333224E+02  0.30113814653E+03  0.93321564243E+02 0.  0.
          1    1    3    3  502    0 -0.32685949223E+01  0.41691943274E+03  0.19448439741E+04  0.19890325740E+04  0.00000000000E+00 0. -1.
         -2    1    3    3    0  502  0.28295931707E+02  0.49077279181E+02  0.29268515882E+03  0.29811716032E+03  0.00000000000E+00 0.  1.
         13    1    5    5    0    0 -0.18545560675E+03 -0.37214020516E+03  0.79494204874E+02  0.42332191413E+03  0.00000000000E+00 0. -1.
        -13    1    5    5    0    0 -0.11843761369E+03 -0.12626269136E+03  0.49447747385E+01  0.17318829742E+03  0.00000000000E+00 0.  1.
          2    1    6    6  503    0  0.28484010238E+03  0.38316673597E+02 -0.55393757092E+02  0.29269526768E+03  0.00000000000E+00 0. -1.
         -2    1    6    6    0  503 -0.59742187232E+01 -0.59104889951E+01 -0.81057613210E+00  0.84428788443E+01  0.00000000000E+00 0.  1.
<mgrwt>
<rscale>  0 0.22381361E+04</rscale>
<asrwt>0</asrwt>
<pdfrwt beam="1">  1        1 0.41927398E+00 0.22381361E+04</pdfrwt>
<pdfrwt beam="2">  1       -2 0.70694949E-01 0.22381361E+04</pdfrwt>
<totfact> 0.13685991E+00</totfact>
</mgrwt>
</event>
<event>
12    5  0.5197392E-008  0.1656619E+04  0.7818608E-02  0.8786500E-01
          1   -1    0    0  501    0  0.00000000000E+00  0.00000000000E+00  0.10117786224E+04  0.10117786224E+04  0.00000000000E+00 0. -1.
         -2   -1    0    0    0  501 -0.00000000000E+00 -0.00000000000E+00 -0.67810929305E+03  0.67810929305E+03  0.00000000000E+00 0.  1.
        -24    2    1    2    0    0  0.25093093422E+03  0.68907697779E+02 -0.41082611795E+03  0.49280170025E+03  0.79754699028E+02 0.  0.
        254    2    1    2    0    0 -0.25093093422E+03 -0.68907697779E+02  0.74449544728E+03  0.11970862152E+04  0.90057055860E+03 0.  0.
         23    2    4    4    0    0 -0.36801684611E+03  0.23047335741E+03  0.73699929893E+03  0.86019039230E+03  0.90582431423E+02 0.  0.
         23    2    4    4    0    0  0.11708591190E+03 -0.29938105519E+03  0.74961483526E+01  0.33689582289E+03  0.10052102403E+03 0.  0.
          1    1    3    3  502    0  0.40919171073E+02 -0.18202064346E+02 -0.65307337993E+02  0.79188017424E+02  0.00000000000E+00 0. -1.
         -2    1    3    3    0  502  0.21001176315E+03  0.87109762125E+02 -0.34551877996E+03  0.41361368282E+03  0.00000000000E+00 0.  1.
         13    1    5    5    0    0 -0.23466261310E+03  0.19480918448E+03  0.52681642608E+03  0.60873040596E+03  0.00000000000E+00 0. -1.
        -13    1    5    5    0    0 -0.13335423302E+03  0.35664172929E+02  0.21018287285E+03  0.25145998635E+03  0.00000000000E+00 0.  1.
          4    1    6    6  503    0  0.83342547675E+02 -0.25576440391E+03  0.41390910957E+02  0.27216652636E+03  0.00000000000E+00 0. -1.
         -4    1    6    6    0  503  0.33743364221E+02 -0.43616651281E+02 -0.33894762604E+02  0.64729296535E+02  0.00000000000E+00 0.  1.
<mgrwt>
<rscale>  0 0.16566188E+04</rscale>
<asrwt>0</asrwt>
<pdfrwt beam="1">  1        1 0.15565825E+00 0.16566188E+04</pdfrwt>
<pdfrwt beam="2">  1       -2 0.10432451E+00 0.16566188E+04</pdfrwt>
<totfact> 0.92599268E+00</totfact>
</mgrwt>
</event>
<event>
12    5  0.5197392E-008  0.1644976E+04  0.7818608E-02  0.8793384E-01
         -2   -1    0    0    0  501 -0.00000000000E+00  0.00000000000E+00  0.26906324074E+03  0.26906324074E+03  0.00000000000E+00 0.  1.
          1   -1    0    0  501    0  0.00000000000E+00 -0.00000000000E+00 -0.25142282124E+04  0.25142282124E+04  0.00000000000E+00 0. -1.
        -24    2    1    2    0    0  0.47030785411E+02 -0.46971434076E+03 -0.13214452326E+04  0.14055241452E+04  0.80231934650E+02 0.  0.
        254    2    1    2    0    0 -0.47030785411E+02  0.46971434076E+03 -0.92371973915E+03  0.13777673080E+04  0.90671999088E+03 0.  0.
         23    2    4    4    0    0 -0.15451331220E+03  0.67555031444E+03 -0.88020112441E+03  0.11240285407E+04  0.91888790529E+02 0.  0.
         23    2    4    4    0    0  0.10748252679E+03 -0.20583597368E+03 -0.43518614743E+02  0.25373876736E+03  0.92566465890E+02 0.  0.
          3    1    3    3  502    0  0.29136922478E+02 -0.44319186620E+03 -0.12641070820E+04  0.13398636891E+04  0.00000000000E+00 0. -1.
         -4    1    3    3    0  502  0.17893862933E+02 -0.26522474559E+02 -0.57338150565E+02  0.65660456118E+02  0.00000000000E+00 0.  1.
         13    1    5    5    0    0 -0.15859553471E+03  0.55500762434E+03 -0.75225713936E+03  0.94819660958E+03  0.00000000000E+00 0.  1.
        -13    1    5    5    0    0  0.40822225118E+01  0.12054269009E+03 -0.12794398505E+03  0.17583193108E+03  0.00000000000E+00 0. -1.
          2    1    6    6  503    0  0.10389738815E+03 -0.10506748984E+03 -0.38916152595E+02  0.15280154324E+03  0.00000000000E+00 0.  1.
         -2    1    6    6    0  503  0.35851386400E+01 -0.10076848384E+03 -0.46024621478E+01  0.10093722412E+03  0.00000000000E+00 0. -1.
<mgrwt>
<rscale>  0 0.16449759E+04</rscale>
<asrwt>0</asrwt>
<pdfrwt beam="1">  1        1 0.38680436E+00 0.16449759E+04</pdfrwt>
<pdfrwt beam="2">  1       -2 0.41394343E-01 0.16449759E+04</pdfrwt>
<totfact> 0.61579027E+00</totfact>
</mgrwt>
</event>
<event>
12    5  0.5197392E-008  0.1418260E+04  0.7818608E-02  0.8940706E-01
          1   -1    0    0  501    0  0.00000000000E+00  0.00000000000E+00  0.14368386252E+04  0.14368386252E+04  0.00000000000E+00 0. -1.
         -2   -1    0    0    0  501 -0.00000000000E+00 -0.00000000000E+00 -0.34998016641E+03  0.34998016641E+03  0.00000000000E+00 0.  1.
        -24    2    1    2    0    0  0.14898776011E+03 -0.23549953404E+03 -0.64846550648E+02  0.29673118743E+03  0.78657099288E+02 0.  0.
        254    2    1    2    0    0 -0.14898776011E+03  0.23549953404E+03  0.11517050094E+04  0.14900876041E+04  0.90348174089E+03 0.  0.
         23    2    4    4    0    0  0.36840522610E+03  0.15736939156E+03  0.56360703981E+03  0.69738939443E+03  0.90617526603E+02 0.  0.
         23    2    4    4    0    0 -0.51739298621E+03  0.78130142475E+02  0.58809796959E+03  0.79269820971E+03  0.93334926417E+02 0.  0.
          3    1    3    3  502    0  0.57907790640E+02 -0.96394786251E+02  0.12888011059E+02  0.11318731317E+03  0.00000000000E+00 0. -1.
         -2    1    3    3    0  502  0.91079969472E+02 -0.13910474779E+03 -0.77734561707E+02  0.18354387426E+03  0.00000000000E+00 0.  1.
         13    1    5    5    0    0  0.97517483147E+02  0.87322942363E+02  0.17560813644E+03  0.21902779131E+03  0.00000000000E+00 0. -1.
        -13    1    5    5    0    0  0.27088774295E+03  0.70046449201E+02  0.38799890337E+03  0.47836160312E+03  0.00000000000E+00 0.  1.
          1    1    6    6  503    0 -0.96834502567E+02  0.40465959749E+02  0.79454175816E+02  0.13163350956E+03  0.00000000000E+00 0. -1.
         -1    1    6    6    0  503 -0.42055848364E+03  0.37664182727E+02  0.50864379378E+03  0.66106470014E+03  0.00000000000E+00 0.  1.
<mgrwt>
<rscale>  0 0.14182595E+04</rscale>
<asrwt>0</asrwt>
<pdfrwt beam="1">  1        1 0.22105209E+00 0.14182595E+04</pdfrwt>
<pdfrwt beam="2">  1       -2 0.53843103E-01 0.14182595E+04</pdfrwt>
<totfact> 0.20093994E+01</totfact>
</mgrwt>
</event>
<event>
12    5  0.5197392E-008  0.1168727E+04  0.7818608E-02  0.9140678E-01
         -2   -1    0    0    0  501 -0.00000000000E+00  0.00000000000E+00  0.15890391935E+03  0.15890391935E+03  0.00000000000E+00 0.  1.
          1   -1    0    0  501    0  0.00000000000E+00 -0.00000000000E+00 -0.21489775758E+04  0.21489775758E+04  0.00000000000E+00 0. -1.
        -24    2    1    2    0    0 -0.16009094245E+03 -0.72646961050E+02 -0.12995171948E+03  0.23338960579E+03  0.81710267947E+02 0.  0.
        254    2    1    2    0    0  0.16009094245E+03  0.72646961050E+02 -0.18601219370E+04  0.20744918894E+04  0.90141904118E+03 0.  0.
         23    2    4    4    0    0 -0.40967057936E+02 -0.19659752959E+03 -0.43157859778E+02  0.22447991567E+03  0.90552433453E+02 0.  0.
         23    2    4    4    0    0  0.20105800039E+03  0.26924449064E+03 -0.18169640772E+04  0.18500119737E+04  0.90933655514E+02 0.  0.
          1    1    3    3  502    0 -0.13999632334E+01 -0.62150453981E+01 -0.37595727564E+02  0.38131685216E+02  0.00000000000E+00 0. -1.
         -2    1    3    3    0  502 -0.15869097922E+03 -0.66431915651E+02 -0.92355991921E+02  0.19525792057E+03  0.00000000000E+00 0.  1.
         13    1    5    5    0    0 -0.20960218721E+02 -0.14691835590E+02 -0.32221226631E+02  0.41150798868E+02  0.00000000000E+00 0.  1.
        -13    1    5    5    0    0 -0.20006839215E+02 -0.18190569400E+03 -0.10936633147E+02  0.18332911681E+03  0.00000000000E+00 0. -1.
          3    1    6    6  503    0  0.57029415592E+02  0.50597000561E+02 -0.62489989296E+03  0.62953338825E+03  0.00000000000E+00 0. -1.
         -3    1    6    6    0  503  0.14402858480E+03  0.21864749008E+03 -0.11920641842E+04  0.12204785854E+04  0.00000000000E+00 0.  1.
<mgrwt>
<rscale>  0 0.11687274E+04</rscale>
<asrwt>0</asrwt>
<pdfrwt beam="1">  1        1 0.33061193E+00 0.11687274E+04</pdfrwt>
<pdfrwt beam="2">  1       -2 0.24446757E-01 0.11687274E+04</pdfrwt>
<totfact> 0.30807897E+01</totfact>
</mgrwt>
</event>
<event>
12    5  0.5197392E-008  0.2489667E+04  0.7818608E-02  0.8406676E-01
         -2   -1    0    0    0  501 -0.00000000000E+00  0.00000000000E+00  0.95292260334E+03  0.95292260334E+03  0.00000000000E+00 0.  1.
          1   -1    0    0  501    0  0.00000000000E+00 -0.00000000000E+00 -0.16261659696E+04  0.16261659696E+04  0.00000000000E+00 0. -1.
        -24    2    1    2    0    0  0.99155296905E+03  0.29925172427E+03 -0.59747984072E+03  0.11984400205E+04  0.80916238889E+02 0.  0.
        254    2    1    2    0    0 -0.99155296905E+03 -0.29925172427E+03 -0.75763525500E+02  0.13806485524E+04  0.90979196994E+03 0.  0.
         23    2    4    4    0    0 -0.86071570683E+03  0.12686889009E+03  0.12453070538E+03  0.88374111931E+03  0.92537701052E+02 0.  0.
         23    2    4    4    0    0 -0.13083726222E+03 -0.42612061436E+03 -0.20029423088E+03  0.49690743310E+03  0.90011393629E+02 0.  0.
          1    1    3    3  502    0  0.96463383403E+02  0.21162300596E+02 -0.84367421606E+02  0.12988798687E+03  0.00000000000E+00 0. -1.
         -2    1    3    3    0  502  0.89508958565E+03  0.27808942368E+03 -0.51311241912E+03  0.10685520336E+04  0.00000000000E+00 0.  1.
         13    1    5    5    0    0 -0.33076109600E+03  0.14932514412E+02  0.77561682285E+02  0.34006131384E+03  0.00000000000E+00 0. -1.
        -13    1    5    5    0    0 -0.52995461083E+03  0.11193637567E+03  0.46969023098E+02  0.54367980547E+03  0.00000000000E+00 0.  1.
          1    1    6    6  503    0 -0.13335086949E+03 -0.34530026987E+03 -0.18785947322E+03  0.41509747343E+03  0.00000000000E+00 0. -1.
         -1    1    6    6    0  503  0.25136072704E+01 -0.80820344484E+02 -0.12434757666E+02  0.81809959676E+02  0.00000000000E+00 0.  1.
<mgrwt>
<rscale>  0 0.24896669E+04</rscale>
<asrwt>0</asrwt>
<pdfrwt beam="1">  1        1 0.25017938E+00 0.24896669E+04</pdfrwt>
<pdfrwt beam="2">  1       -2 0.14660348E+00 0.24896669E+04</pdfrwt>
<totfact> 0.13310836E+00</totfact>
</mgrwt>
</event>
<event>
12    5  0.5197392E-008  0.1482313E+04  0.7818608E-02  0.8896301E-01
          1   -1    0    0  501    0  0.00000000000E+00  0.00000000000E+00  0.15093802567E+04  0.15093802567E+04  0.00000000000E+00 0. -1.
         -2   -1    0    0    0  501 -0.00000000000E+00 -0.00000000000E+00 -0.36393269612E+03  0.36393269612E+03  0.00000000000E+00 0.  1.
        -24    2    1    2    0    0 -0.17435689880E+03  0.41592430206E+03  0.21302222161E+03  0.50497276699E+03  0.78902948626E+02 0.  0.
        254    2    1    2    0    0  0.17435689880E+03 -0.41592430206E+03  0.93242533894E+03  0.13683401858E+04  0.89417252148E+03 0.  0.
         23    2    4    4    0    0 -0.21294202528E+03 -0.44531940454E+03  0.21467314956E+03  0.54733580944E+03  0.99187947661E+02 0.  0.
         23    2    4    4    0    0  0.38729892408E+03  0.29395102482E+02  0.71775218938E+03  0.82100437635E+03  0.89529056687E+02 0.  0.
          3    1    3    3  502    0 -0.37697910212E+02  0.52713146075E+02  0.58387048901E+02  0.87228754908E+02  0.00000000000E+00 0. -1.
         -2    1    3    3    0  502 -0.13665898859E+03  0.36321115599E+03  0.15463517271E+03  0.41774401209E+03  0.00000000000E+00 0.  1.
         13    1    5    5    0    0 -0.18124324655E+03 -0.39892587894E+03  0.22108112354E+03  0.49078287918E+03  0.00000000000E+00 0.  1.
        -13    1    5    5    0    0 -0.31698778732E+02 -0.46393525605E+02 -0.64079739789E+01  0.56552930266E+02  0.00000000000E+00 0. -1.
          1    1    6    6  503    0  0.11666987978E+03  0.17316087321E+02  0.30787208192E+03  0.32969216939E+03  0.00000000000E+00 0. -1.
         -1    1    6    6    0  503  0.27062904430E+03  0.12079015161E+02  0.40988010746E+03  0.49131220697E+03  0.00000000000E+00 0.  1.
<mgrwt>
<rscale>  0 0.14823128E+04</rscale>
<asrwt>0</asrwt>
<pdfrwt beam="1">  1        1 0.23221234E+00 0.14823128E+04</pdfrwt>
<pdfrwt beam="2">  1       -2 0.55989647E-01 0.14823128E+04</pdfrwt>
<totfact> 0.16408838E+01</totfact>
</mgrwt>
</event>
<event>
12    5  0.5197392E-008  0.1270186E+04  0.7818608E-02  0.9053548E-01
         -2   -1    0    0    0  501 -0.00000000000E+00  0.00000000000E+00  0.43661945440E+03  0.43661945440E+03  0.00000000000E+00 0.  1.
          1   -1    0    0  501    0  0.00000000000E+00 -0.00000000000E+00 -0.92378579959E+03  0.92378579959E+03  0.00000000000E+00 0. -1.
        -24    2    1    2    0    0  0.23820803565E+03 -0.17214923305E+03 -0.23907474580E+03  0.38658140423E+03  0.76876663087E+02 0.  0.
        254    2    1    2    0    0 -0.23820803565E+03  0.17214923305E+03 -0.24809159938E+03  0.97382384976E+03  0.89465357652E+03 0.  0.
         23    2    4    4    0    0  0.29827896284E+03  0.12343159456E+03  0.66976072482E+02  0.34295580966E+03  0.94483834000E+02 0.  0.
         23    2    4    4    0    0 -0.53648699849E+03  0.48717638486E+02 -0.31506767186E+03  0.63086804010E+03  0.92385812276E+02 0.  0.
          3    1    3    3  502    0  0.19041665948E+03 -0.97031628740E+02 -0.18303227890E+03  0.28137955914E+03  0.00000000000E+00 0. -1.
         -4    1    3    3    0  502  0.47791376174E+02 -0.75117604308E+02 -0.56042466901E+02  0.10520184509E+03  0.00000000000E+00 0.  1.
         13    1    5    5    0    0  0.99600893797E+02  0.75765218730E+02 -0.78015884285E+01  0.12538568976E+03  0.00000000000E+00 0.  1.
        -13    1    5    5    0    0  0.19867806904E+03  0.47666375831E+02  0.74777660910E+02  0.21757011990E+03  0.00000000000E+00 0. -1.
          4    1    6    6  503    0 -0.41431890154E+03  0.51918864282E+02 -0.19989867961E+03  0.46294189997E+03  0.00000000000E+00 0. -1.
         -4    1    6    6    0  503 -0.12216809696E+03 -0.32012257962E+01 -0.11516899226E+03  0.16792614013E+03  0.00000000000E+00 0.  1.
<mgrwt>
<rscale>  0 0.12701856E+04</rscale>
<asrwt>0</asrwt>
<pdfrwt beam="1">  1        1 0.14212089E+00 0.12701856E+04</pdfrwt>
<pdfrwt beam="2">  1       -2 0.67172224E-01 0.12701856E+04</pdfrwt>
<totfact> 0.30543896E+01</totfact>
</mgrwt>
</event>
<event>
12    5  0.5197392E-008  0.2286760E+04  0.7818608E-02  0.8483160E-01
         -2   -1    0    0    0  501 -0.00000000000E+00  0.00000000000E+00  0.62423910418E+03  0.62423910418E+03  0.00000000000E+00 0.  1.
          1   -1    0    0  501    0  0.00000000000E+00 -0.00000000000E+00 -0.20942587380E+04  0.20942587380E+04  0.00000000000E+00 0. -1.
        -24    2    1    2    0    0 -0.56653338881E+03 -0.20251499890E+03  0.27496573778E+03  0.66629302347E+03  0.79798688955E+02 0.  0.
        254    2    1    2    0    0  0.56653338881E+03  0.20251499890E+03 -0.17449853716E+04  0.20522048187E+04  0.89699401637E+03 0.  0.
         23    2    4    4    0    0 -0.64504931162E+00  0.27236055144E+03 -0.12718486213E+04  0.13038398851E+04  0.90657842228E+02 0.  0.
         23    2    4    4    0    0  0.56717843813E+03 -0.69845552541E+02 -0.47313675032E+03  0.74836493364E+03  0.98091322335E+02 0.  0.
          1    1    3    3  502    0 -0.42823678599E+03 -0.15361044307E+03  0.16897956952E+03  0.48532155115E+03  0.00000000000E+00 0. -1.
         -2    1    3    3    0  502 -0.13829660282E+03 -0.48904555824E+02  0.10598616825E+03  0.18097147232E+03  0.00000000000E+00 0.  1.
         13    1    5    5    0    0 -0.20258516531E+02  0.37902224331E+02 -0.10404789250E+03  0.11257419791E+03  0.00000000000E+00 0.  1.
        -13    1    5    5    0    0  0.19613467219E+02  0.23445832711E+03 -0.11678007288E+04  0.11912656872E+04  0.00000000000E+00 0. -1.
          3    1    6    6  503    0  0.38669115113E+03 -0.93101046068E+02 -0.31813042678E+03  0.50931799456E+03  0.00000000000E+00 0. -1.
         -3    1    6    6    0  503  0.18048728699E+03  0.23255493527E+02 -0.15500632354E+03  0.23904693908E+03  0.00000000000E+00 0.  1.
<mgrwt>
<rscale>  0 0.22867603E+04</rscale>
<asrwt>0</asrwt>
<pdfrwt beam="1">  1        1 0.32219365E+00 0.22867603E+04</pdfrwt>
<pdfrwt beam="2">  1       -2 0.96036785E-01 0.22867603E+04</pdfrwt>
<totfact> 0.18574898E+00</totfact>
</mgrwt>
</event>
<event>
12    5  0.5197392E-008  0.1732493E+04  0.7818608E-02  0.8743046E-01
         -2   -1    0    0    0  501 -0.00000000000E+00  0.00000000000E+00  0.27560105564E+03  0.27560105564E+03  0.00000000000E+00 0.  1.
          1   -1    0    0  501    0  0.00000000000E+00 -0.00000000000E+00 -0.27227159136E+04  0.27227159136E+04  0.00000000000E+00 0. -1.
        -24    2    1    2    0    0 -0.48774535766E+03  0.15897985511E+03 -0.26505518251E+03  0.58288295796E+03  0.79549762164E+02 0.  0.
        254    2    1    2    0    0  0.48774535766E+03 -0.15897985511E+03 -0.21820596755E+04  0.24154340113E+04  0.89987049476E+03 0.  0.
         23    2    4    4    0    0 -0.24111669802E+02  0.28285777806E+03 -0.10707716198E+04  0.11114244902E+04  0.90125691960E+02 0.  0.
         23    2    4    4    0    0  0.51185702746E+03 -0.44183763317E+03 -0.11112880557E+04  0.13040095211E+04  0.90893222304E+02 0.  0.
          3    1    3    3  502    0 -0.22325505174E+03  0.74798866712E+02 -0.16636314611E+03  0.28829565549E+03  0.00000000000E+00 0. -1.
         -4    1    3    3    0  502 -0.26449030591E+03  0.84180988400E+02 -0.98692036401E+02  0.29458730247E+03  0.00000000000E+00 0.  1.
         13    1    5    5    0    0  0.10847732951E+02  0.11301596996E+03 -0.57769251970E+03  0.58874351809E+03  0.00000000000E+00 0.  1.
        -13    1    5    5    0    0 -0.34959402753E+02  0.16984180809E+03 -0.49307910008E+03  0.52268097206E+03  0.00000000000E+00 0. -1.
          3    1    6    6  503    0  0.14810245056E+03 -0.12073382537E+03 -0.24050456253E+03  0.30717004582E+03  0.00000000000E+00 0.  1.
         -3    1    6    6    0  503  0.36375457689E+03 -0.32110380779E+03 -0.87078349314E+03  0.99683947530E+03  0.00000000000E+00 0. -1.
<mgrwt>
<rscale>  0 0.17324934E+04</rscale>
<asrwt>0</asrwt>
<pdfrwt beam="1">  1        1 0.41887937E+00 0.17324934E+04</pdfrwt>
<pdfrwt beam="2">  1       -2 0.42400163E-01 0.17324934E+04</pdfrwt>
<totfact> 0.41656348E+00</totfact>
</mgrwt>
</event>
<event>
12    5  0.5197392E-008  0.1225430E+04  0.7818608E-02  0.9090885E-01
         -2   -1    0    0    0  501 -0.00000000000E+00  0.00000000000E+00  0.43371429664E+03  0.43371429664E+03  0.00000000000E+00 0.  1.
          1   -1    0    0  501    0  0.00000000000E+00 -0.00000000000E+00 -0.86559163169E+03  0.86559163169E+03  0.00000000000E+00 0. -1.
        -24    2    1    2    0    0 -0.72619345713E+02 -0.17597540930E+03 -0.31761139334E+03  0.37845950728E+03  0.78190072442E+02 0.  0.
        254    2    1    2    0    0  0.72619345713E+02  0.17597540930E+03 -0.11426594172E+03  0.92084642105E+03  0.89367808056E+03 0.  0.
         23    2    4    4    0    0  0.14008564464E+03  0.50111225327E+03 -0.19765855693E+03  0.56451003940E+03  0.94155197631E+02 0.  0.
         23    2    4    4    0    0 -0.67466298928E+02 -0.32513684398E+03  0.83392615209E+02  0.35633638165E+03  0.98770541242E+02 0.  0.
          1    1    3    3  502    0 -0.33591571557E+02 -0.79490868948E+02 -0.21772523516E+03  0.23420390678E+03  0.00000000000E+00 0. -1.
         -2    1    3    3    0  502 -0.39027774156E+02 -0.96484540347E+02 -0.99886158178E+02  0.14425560051E+03  0.00000000000E+00 0.  1.
         13    1    5    5    0    0  0.13720260954E+03  0.44238486419E+03 -0.20251671449E+03  0.50551156641E+03  0.00000000000E+00 0. -1.
        -13    1    5    5    0    0  0.28830351007E+01  0.58727389079E+02  0.48581575626E+01  0.58998472983E+02  0.00000000000E+00 0.  1.
          4    1    6    6  503    0  0.11514770261E+02 -0.17336569104E+03  0.24905125413E+02  0.17552355408E+03  0.00000000000E+00 0. -1.
         -4    1    6    6    0  503 -0.78981069188E+02 -0.15177115293E+03  0.58487489796E+02  0.18081282757E+03  0.00000000000E+00 0.  1.
<mgrwt>
<rscale>  0 0.12254297E+04</rscale>
<asrwt>0</asrwt>
<pdfrwt beam="1">  1        1 0.13316794E+00 0.12254297E+04</pdfrwt>
<pdfrwt beam="2">  1       -2 0.66725277E-01 0.12254297E+04</pdfrwt>
<totfact> 0.34714425E+01</totfact>
</mgrwt>
</event>
<event>
12    5  0.5197392E-008  0.2088700E+04  0.7818608E-02  0.8566238E-01
         -2   -1    0    0    0  501 -0.00000000000E+00  0.00000000000E+00  0.12782180360E+04  0.12782180360E+04  0.00000000000E+00 0.  1.
          1   -1    0    0  501    0  0.00000000000E+00 -0.00000000000E+00 -0.85327131333E+03  0.85327131333E+03  0.00000000000E+00 0. -1.
        -24    2    1    2    0    0 -0.45101086850E+03  0.52524566792E+03  0.66629125753E+03  0.96411461190E+03  0.79240960597E+02 0.  0.
        254    2    1    2    0    0  0.45101086850E+03 -0.52524566792E+03 -0.24134453489E+03  0.11673747374E+04  0.90841773310E+03 0.  0.
         23    2    4    4    0    0  0.87239633050E+02 -0.67923722887E+03 -0.30718086901E+03  0.75530538069E+03  0.84570474520E+02 0.  0.
         23    2    4    4    0    0  0.36377123545E+03  0.15399156095E+03  0.65836334119E+02  0.41206935670E+03  0.97076357862E+02 0.  0.
          3    1    3    3  502    0 -0.35956947557E+03  0.39042227467E+03  0.54710814974E+03  0.76226444744E+03  0.00000000000E+00 0. -1.
         -4    1    3    3    0  502 -0.91441392938E+02  0.13482339325E+03  0.11918310779E+03  0.20185016446E+03  0.00000000000E+00 0.  1.
         13    1    5    5    0    0  0.68037313542E+02 -0.54967383042E+03 -0.28348319378E+03  0.62220022263E+03  0.00000000000E+00 0.  1.
        -13    1    5    5    0    0  0.19202319509E+02 -0.12956339844E+03 -0.23697675230E+02  0.13310515806E+03  0.00000000000E+00 0. -1.
          3    1    6    6  503    0  0.32894066455E+03  0.13219630668E+03  0.27008650631E+02  0.35553803102E+03  0.00000000000E+00 0. -1.
         -3    1    6    6    0  503  0.34830570906E+02  0.21795254272E+02  0.38827683488E+02  0.56531325683E+02  0.00000000000E+00 0.  1.
<mgrwt>
<rscale>  0 0.20886999E+04</rscale>
<asrwt>0</asrwt>
<pdfrwt beam="1">  1        1 0.13127251E+00 0.20886999E+04</pdfrwt>
<pdfrwt beam="2">  1       -2 0.19664893E+00 0.20886999E+04</pdfrwt>
<totfact> 0.22460897E+00</totfact>
</mgrwt>
</event>
<event>
12    5  0.5197392E-008  0.2546614E+04  0.7818608E-02  0.8386565E-01
         -2   -1    0    0    0  501 -0.00000000000E+00  0.00000000000E+00  0.13269886679E+04  0.13269886679E+04  0.00000000000E+00 0.  1.
          1   -1    0    0  501    0  0.00000000000E+00 -0.00000000000E+00 -0.12217965420E+04  0.12217965420E+04  0.00000000000E+00 0. -1.
        -24    2    1    2    0    0 -0.34741923870E+03 -0.48081622580E+03  0.99369806464E+03  0.11600524597E+04  0.80009344546E+02 0.  0.
        254    2    1    2    0    0  0.34741923870E+03  0.48081622580E+03 -0.88850593883E+03  0.13887327502E+04  0.88727192995E+03 0.  0.
         23    2    4    4    0    0  0.45706024614E+03  0.16437530502E+03 -0.70810998251E+02  0.50030803704E+03  0.96801988345E+02 0.  0.
         23    2    4    4    0    0 -0.10964100744E+03  0.31644092078E+03 -0.81769494058E+03  0.88842471314E+03  0.92290022309E+02 0.  0.
          1    1    3    3  502    0 -0.75937270946E+02 -0.13112298429E+03  0.19598817571E+03  0.24773185331E+03  0.00000000000E+00 0. -1.
         -2    1    3    3    0  502 -0.27148196776E+03 -0.34969324152E+03  0.79770988892E+03  0.91232060640E+03  0.00000000000E+00 0.  1.
         13    1    5    5    0    0  0.42548120986E+03  0.16659064994E+03 -0.86388106791E+02  0.46502646116E+03  0.00000000000E+00 0. -1.
        -13    1    5    5    0    0  0.31579036288E+02 -0.22153449128E+01  0.15577108540E+02  0.35281575878E+02  0.00000000000E+00 0.  1.
          2    1    6    6  503    0 -0.10489626855E+03  0.19152423408E+03 -0.58225133950E+03  0.62185318343E+03  0.00000000000E+00 0. -1.
         -2    1    6    6    0  503 -0.47447388932E+01  0.12491668670E+03 -0.23544360108E+03  0.26657152971E+03  0.00000000000E+00 0.  1.
<mgrwt>
<rscale>  0 0.25466136E+04</rscale>
<asrwt>0</asrwt>
<pdfrwt beam="1">  1        1 0.18796870E+00 0.25466136E+04</pdfrwt>
<pdfrwt beam="2">  1       -2 0.20415210E+00 0.25466136E+04</pdfrwt>
<totfact> 0.99926733E-01</totfact>
</mgrwt>
</event>
<event>
12    5  0.5197392E-008  0.1647110E+04  0.7818608E-02  0.8792118E-01
         -2   -1    0    0    0  501 -0.00000000000E+00  0.00000000000E+00  0.15974115322E+03  0.15974115322E+03  0.00000000000E+00 0.  1.
          1   -1    0    0  501    0  0.00000000000E+00 -0.00000000000E+00 -0.42458854830E+04  0.42458854830E+04  0.00000000000E+00 0. -1.
        -24    2    1    2    0    0 -0.49420793619E+03  0.25991725168E+03 -0.11494315651E+04  0.12806902521E+04  0.84712082223E+02 0.  0.
        254    2    1    2    0    0  0.49420793619E+03 -0.25991725168E+03 -0.29367127646E+04  0.31249363842E+04  0.91057513757E+03 0.  0.
         23    2    4    4    0    0 -0.38679930564E+02 -0.46936854483E+03 -0.15294772037E+04  0.16029338627E+04  0.91068565422E+02 0.  0.
         23    2    4    4    0    0  0.53288786676E+03  0.20945129315E+03 -0.14072355609E+04  0.15220025214E+04  0.91325947393E+02 0.  0.
          1    1    3    3  502    0 -0.33527697532E+03  0.21115439211E+03 -0.86059611415E+03  0.94742941646E+03  0.00000000000E+00 0. -1.
         -2    1    3    3    0  502 -0.15893096087E+03  0.48762859561E+02 -0.28883545099E+03  0.33326083560E+03  0.00000000000E+00 0.  1.
         13    1    5    5    0    0  0.11247298581E+02 -0.12453140315E+03 -0.29942399257E+03  0.32448312656E+03  0.00000000000E+00 0. -1.
        -13    1    5    5    0    0 -0.49927229145E+02 -0.34483714168E+03 -0.12300532112E+04  0.12784507362E+04  0.00000000000E+00 0.  1.
          4    1    6    6  503    0  0.39321850540E+03  0.18693178807E+03 -0.99242659125E+03  0.10837318974E+04  0.00000000000E+00 0.  1.
         -4    1    6    6    0  503  0.13966936135E+03  0.22519505084E+02 -0.41480896965E+03  0.43827062406E+03  0.00000000000E+00 0. -1.
<mgrwt>
<rscale>  0 0.16471098E+04</rscale>
<asrwt>0</asrwt>
<pdfrwt beam="1">  1        1 0.65321318E+00 0.16471098E+04</pdfrwt>
<pdfrwt beam="2">  1       -2 0.24575561E-01 0.16471098E+04</pdfrwt>
<totfact> 0.72534961E-01</totfact>
</mgrwt>
</event>
<event>
12    5  0.5197392E-008  0.1260775E+04  0.7818608E-02  0.9061262E-01
         -2   -1    0    0    0  501 -0.00000000000E+00  0.00000000000E+00  0.65767212316E+03  0.65767212316E+03  0.00000000000E+00 0.  1.
          1   -1    0    0  501    0  0.00000000000E+00 -0.00000000000E+00 -0.60423517080E+03  0.60423517080E+03  0.00000000000E+00 0. -1.
        -24    2    1    2    0    0  0.11481437357E+03 -0.15953683885E+03 -0.21545482223E+03  0.30477955239E+03  0.88518087441E+02 0.  0.
        254    2    1    2    0    0 -0.11481437357E+03  0.15953683885E+03  0.26889177459E+03  0.95712774156E+03  0.89730506735E+03 0.  0.
         23    2    4    4    0    0 -0.36367295713E+03 -0.23391350023E+03  0.96045578463E+02  0.45246695543E+03  0.92347427006E+02 0.  0.
         23    2    4    4    0    0  0.24885858356E+03  0.39345033908E+03  0.17284619613E+03  0.50466078614E+03  0.89849527629E+02 0.  0.
          1    1    3    3  502    0  0.15144126530E+02 -0.49804025359E+02 -0.11348299883E+03  0.12485261925E+03  0.00000000000E+00 0. -1.
         -2    1    3    3    0  502  0.99670247041E+02 -0.10973281349E+03 -0.10197182340E+03  0.17992693314E+03  0.00000000000E+00 0.  1.
         13    1    5    5    0    0 -0.76446645726E+02 -0.41147219493E+02 -0.17163049125E+02  0.88497195267E+02  0.00000000000E+00 0.  1.
        -13    1    5    5    0    0 -0.28722631141E+03 -0.19276628073E+03  0.11320862759E+03  0.36396976016E+03  0.00000000000E+00 0. -1.
          2    1    6    6  503    0  0.12982094900E+03  0.24818022069E+03  0.62991083824E+02  0.28707974046E+03  0.00000000000E+00 0. -1.
         -2    1    6    6    0  503  0.11903763456E+03  0.14527011839E+03  0.10985511231E+03  0.21758104568E+03  0.00000000000E+00 0.  1.
<mgrwt>
<rscale>  0 0.12607754E+04</rscale>
<asrwt>0</asrwt>
<pdfrwt beam="1">  1        1 0.92959257E-01 0.12607754E+04</pdfrwt>
<pdfrwt beam="2">  1       -2 0.10118033E+00 0.12607754E+04</pdfrwt>
<totfact> 0.23485282E+01</totfact>
</mgrwt>
</event>
<event>
12    5  0.5197392E-008  0.1591272E+04  0.7818608E-02  0.8825928E-01
         -2   -1    0    0    0  501 -0.00000000000E+00  0.00000000000E+00  0.25553842880E+03  0.25553842880E+03  0.00000000000E+00 0.  1.
          1   -1    0    0  501    0  0.00000000000E+00 -0.00000000000E+00 -0.24772670438E+04  0.24772670438E+04  0.00000000000E+00 0. -1.
        -24    2    1    2    0    0  0.33471158934E+03  0.22668791263E+03 -0.14842413142E+03  0.43784471066E+03  0.79113905873E+02 0.  0.
        254    2    1    2    0    0 -0.33471158934E+03 -0.22668791263E+03 -0.20733044836E+04  0.22949607620E+04  0.89712549817E+03 0.  0.
         23    2    4    4    0    0 -0.48816472251E+03 -0.40822056229E+03 -0.18407825190E+04  0.19496367071E+04  0.87488190865E+02 0.  0.
         23    2    4    4    0    0  0.15345313318E+03  0.18153264967E+03 -0.23252196464E+03  0.34532405492E+03  0.93167976741E+02 0.  0.
          3    1    3    3  502    0  0.16214347302E+03  0.97089867927E+02 -0.10989792478E+03  0.21861953748E+03  0.00000000000E+00 0. -1.
         -4    1    3    3    0  502  0.17256811632E+03  0.12959804470E+03 -0.38526206632E+02  0.21922517318E+03  0.00000000000E+00 0.  1.
         13    1    5    5    0    0 -0.40422372633E+03 -0.35807063519E+03 -0.14655539081E+04  0.15618769664E+04  0.00000000000E+00 0. -1.
        -13    1    5    5    0    0 -0.83940996184E+02 -0.50149927102E+02 -0.37522861094E+03  0.38775974068E+03  0.00000000000E+00 0.  1.
          4    1    6    6  503    0  0.15441554716E+03  0.19002880192E+03 -0.23102846697E+03  0.33664411374E+03  0.00000000000E+00 0. -1.
         -4    1    6    6    0  503 -0.96241398468E+00 -0.84961522474E+01 -0.14934976697E+01  0.86799411852E+01  0.00000000000E+00 0.  1.
<mgrwt>
<rscale>  0 0.15912724E+04</rscale>
<asrwt>0</asrwt>
<pdfrwt beam="1">  1        1 0.38111803E+00 0.15912724E+04</pdfrwt>
<pdfrwt beam="2">  1       -2 0.39313602E-01 0.15912724E+04</pdfrwt>
<totfact> 0.72613593E+00</totfact>
</mgrwt>
</event>
<event>
12    5  0.5197392E-008  0.1924265E+04  0.7818608E-02  0.8642871E-01
          1   -1    0    0  501    0  0.00000000000E+00  0.00000000000E+00  0.14894737326E+04  0.14894737326E+04  0.00000000000E+00 0. -1.
         -2   -1    0    0    0  501 -0.00000000000E+00 -0.00000000000E+00 -0.62149415507E+03  0.62149415507E+03  0.00000000000E+00 0.  1.
        -24    2    1    2    0    0 -0.38987649644E+03 -0.19781790968E+03  0.10148842597E+04  0.11079385595E+04  0.80013643686E+02 0.  0.
        254    2    1    2    0    0  0.38987649644E+03  0.19781790968E+03 -0.14690468223E+03  0.10030293281E+04  0.89070266616E+03 0.  0.
         23    2    4    4    0    0 -0.26215650293E+03 -0.35108843160E+02 -0.12231043063E+03  0.30439577070E+03  0.87967499012E+02 0.  0.
         23    2    4    4    0    0  0.65203299937E+03  0.23292675284E+03 -0.24594251599E+02  0.69863355740E+03  0.89900310628E+02 0.  0.
          1    1    3    3  502    0 -0.25331479699E+03 -0.97065285926E+02  0.68977126934E+03  0.74119798982E+03  0.00000000000E+00 0. -1.
         -2    1    3    3    0  502 -0.13656169945E+03 -0.10075262375E+03  0.32511299038E+03  0.36674056970E+03  0.00000000000E+00 0.  1.
         13    1    5    5    0    0 -0.22214697784E+03 -0.54786347241E+02 -0.12307151804E+03  0.25980266003E+03  0.00000000000E+00 0. -1.
        -13    1    5    5    0    0 -0.40009525099E+02  0.19677504082E+02  0.76108741052E+00  0.44593110674E+02  0.00000000000E+00 0.  1.
          3    1    6    6  503    0  0.59095208848E+03  0.18182972223E+03 -0.27984244238E+02  0.61892611570E+03  0.00000000000E+00 0. -1.
         -3    1    6    6    0  503  0.61080910889E+02  0.51097030606E+02  0.33899926396E+01  0.79707441697E+02  0.00000000000E+00 0.  1.
<mgrwt>
<rscale>  0 0.19242653E+04</rscale>
<asrwt>0</asrwt>
<pdfrwt beam="1">  1        1 0.22914980E+00 0.19242653E+04</pdfrwt>
<pdfrwt beam="2">  1       -2 0.95614486E-01 0.19242653E+04</pdfrwt>
<totfact> 0.50048114E+00</totfact>
</mgrwt>
</event>
<event>
12    5  0.5197392E-008  0.1407428E+04  0.7818608E-02  0.8948459E-01
         -2   -1    0    0    0  501 -0.00000000000E+00  0.00000000000E+00  0.27521020441E+04  0.27521020441E+04  0.00000000000E+00 0.  1.
          1   -1    0    0  501    0  0.00000000000E+00 -0.00000000000E+00 -0.17994008252E+03  0.17994008252E+03  0.00000000000E+00 0. -1.
        -24    2    1    2    0    0  0.10900021748E+03 -0.71105329223E+02  0.16065312265E+04  0.16137070812E+04  0.78555373842E+02 0.  0.
        254    2    1    2    0    0 -0.10900021748E+03  0.71105329223E+02  0.96563073504E+03  0.13183350454E+04  0.88804704849E+03 0.  0.
         23    2    4    4    0    0  0.22470570741E+03 -0.26300414306E+03  0.18780498709E+03  0.40368942176E+03  0.89613625393E+02 0.  0.
         23    2    4    4    0    0 -0.33370592489E+03  0.33410947228E+03  0.77782574795E+03  0.91464562368E+03  0.92600966322E+02 0.  0.
          1    1    3    3  502    0  0.37702954622E+02  0.11280826565E+02  0.60187353027E+03  0.60315878198E+03  0.00000000000E+00 0. -1.
         -2    1    3    3    0  502  0.71297262859E+02 -0.82386155788E+02  0.10046576962E+04  0.10105482992E+04  0.00000000000E+00 0.  1.
         13    1    5    5    0    0  0.10765241913E+03 -0.63951240788E+02  0.50368222960E+02  0.13496578243E+03  0.00000000000E+00 0.  1.
        -13    1    5    5    0    0  0.11705328828E+03 -0.19905290227E+03  0.13743676413E+03  0.26872363933E+03  0.00000000000E+00 0. -1.
          2    1    6    6  503    0 -0.28004662746E+03  0.32060402875E+03  0.69625066667E+03  0.81607478067E+03  0.00000000000E+00 0.  1.
         -2    1    6    6    0  503 -0.53659297436E+02  0.13505443530E+02  0.81575081280E+02  0.98570843012E+02  0.00000000000E+00 0. -1.
<mgrwt>
<rscale>  0 0.14074281E+04</rscale>
<asrwt>0</asrwt>
<pdfrwt beam="1">  1        1 0.27683092E-01 0.14074281E+04</pdfrwt>
<pdfrwt beam="2">  1       -2 0.42340028E+00 0.14074281E+04</pdfrwt>
<totfact> 0.76499824E-01</totfact>
</mgrwt>
</event>
<event>
12    5  0.5197392E-008  0.1399606E+04  0.7818608E-02  0.8954104E-01
          1   -1    0    0  501    0  0.00000000000E+00  0.00000000000E+00  0.44660053843E+03  0.44660053843E+03  0.00000000000E+00 0. -1.
         -2   -1    0    0    0  501 -0.00000000000E+00 -0.00000000000E+00 -0.10965599081E+04  0.10965599081E+04  0.00000000000E+00 0.  1.
        -24    2    1    2    0    0  0.21922252815E+03 -0.65064870283E+02 -0.55349214693E+03  0.60426748331E+03  0.80583375940E+02 0.  0.
        254    2    1    2    0    0 -0.21922252815E+03  0.65064870283E+02 -0.96467222718E+02  0.93889296319E+03  0.90549550914E+03 0.  0.
         23    2    4    4    0    0 -0.39422395882E+03  0.19309071139E+02  0.29295474692E+03  0.50021957939E+03  0.92799643999E+02 0.  0.
         23    2    4    4    0    0  0.17500143067E+03  0.45755799144E+02 -0.38942196964E+03  0.43867338380E+03  0.89809650537E+02 0.  0.
          1    1    3    3  502    0  0.97224223601E+02 -0.25180715560E+02 -0.14731303938E+03  0.17829119345E+03  0.00000000000E+00 0. -1.
         -2    1    3    3    0  502  0.12199830455E+03 -0.39884154722E+02 -0.40617910755E+03  0.42597628986E+03  0.00000000000E+00 0.  1.
         13    1    5    5    0    0 -0.57952259887E+02 -0.23134490500E+02  0.73598103961E+02  0.96490154852E+02  0.00000000000E+00 0.  1.
        -13    1    5    5    0    0 -0.33627169893E+03  0.42443561639E+02  0.21935664296E+03  0.40372942454E+03  0.00000000000E+00 0. -1.
          4    1    6    6  503    0  0.12785511607E+03  0.20063441511E+02 -0.17515426711E+03  0.21778082945E+03  0.00000000000E+00 0. -1.
         -4    1    6    6    0  503  0.47146314600E+02  0.25692357632E+02 -0.21426770253E+03  0.22089255435E+03  0.00000000000E+00 0.  1.
<mgrwt>
<rscale>  0 0.13996060E+04</rscale>
<asrwt>0</asrwt>
<pdfrwt beam="1">  1        1 0.68707775E-01 0.13996060E+04</pdfrwt>
<pdfrwt beam="2">  1       -2 0.16870152E+00 0.13996060E+04</pdfrwt>
<totfact> 0.95911736E+00</totfact>
</mgrwt>
</event>
<event>
12    5  0.5197392E-008  0.1091888E+04  0.7818608E-02  0.9213134E-01
         -2   -1    0    0    0  501 -0.00000000000E+00  0.00000000000E+00  0.53767318398E+03  0.53767318398E+03  0.00000000000E+00 0.  1.
          1   -1    0    0  501    0  0.00000000000E+00 -0.00000000000E+00 -0.55434217884E+03  0.55434217884E+03  0.00000000000E+00 0. -1.
        -24    2    1    2    0    0  0.11299447670E+03 -0.38405346487E+02  0.87183649990E+02  0.16906968652E+03  0.82102665432E+02 0.  0.
        254    2    1    2    0    0 -0.11299447670E+03  0.38405346487E+02 -0.10385264485E+03  0.92294567630E+03  0.90928577859E+03 0.  0.
         23    2    4    4    0    0 -0.16546638552E+03  0.45185030633E+03 -0.61884452992E+02  0.49387173223E+03  0.92367625810E+02 0.  0.
         23    2    4    4    0    0  0.52471908823E+02 -0.41344495985E+03 -0.41968191859E+02  0.42907394407E+03  0.93021956096E+02 0.  0.
          3    1    3    3  502    0  0.14751895126E+02 -0.20801751889E+02 -0.12156442699E+02  0.28250847608E+02  0.00000000000E+00 0. -1.
         -4    1    3    3    0  502  0.98242581575E+02 -0.17603594598E+02  0.99340092690E+02  0.14081883891E+03  0.00000000000E+00 0.  1.
         13    1    5    5    0    0 -0.14330259806E+03  0.38000880888E+03 -0.17376587723E+02  0.40650249106E+03  0.00000000000E+00 0. -1.
        -13    1    5    5    0    0 -0.22163787468E+02  0.71841497451E+02 -0.44507865269E+02  0.87369241165E+02  0.00000000000E+00 0.  1.
          2    1    6    6  503    0  0.37182310219E+02 -0.20125855850E+03  0.24666862292E+02  0.20614554484E+03  0.00000000000E+00 0.  1.
         -2    1    6    6    0  503  0.15289598604E+02 -0.21218640135E+03 -0.66635054151E+02  0.22292839923E+03  0.00000000000E+00 0. -1.
<mgrwt>
<rscale>  0 0.10918881E+04</rscale>
<asrwt>0</asrwt>
<pdfrwt beam="1">  1        1 0.85283412E-01 0.10918881E+04</pdfrwt>
<pdfrwt beam="2">  1       -2 0.82718952E-01 0.10918881E+04</pdfrwt>
<totfact> 0.42909786E+01</totfact>
</mgrwt>
</event>
<event>
12    5  0.5197392E-008  0.1299997E+04  0.7818608E-02  0.9029568E-01
          1   -1    0    0  501    0  0.00000000000E+00  0.00000000000E+00  0.15033553607E+04  0.15033553607E+04  0.00000000000E+00 0. -1.
         -2   -1    0    0    0  501 -0.00000000000E+00 -0.00000000000E+00 -0.28103665991E+03  0.28103665991E+03  0.00000000000E+00 0.  1.
        -24    2    1    2    0    0  0.33320854578E+02 -0.24827194721E+03  0.62356720517E+03  0.67653199960E+03  0.78168075282E+02 0.  0.
        254    2    1    2    0    0 -0.33320854578E+02  0.24827194721E+03  0.59875149563E+03  0.11078600210E+04  0.89783140597E+03 0.  0.
         23    2    4    4    0    0 -0.42964749562E+03 -0.11246976438E+02  0.36581152046E+03  0.57212556009E+03  0.93734321495E+02 0.  0.
         23    2    4    4    0    0  0.39632664105E+03  0.25951892365E+03  0.23293997517E+03  0.53573446094E+03  0.91244191428E+02 0.  0.
          3    1    3    3  502    0  0.35149293503E+02 -0.19628801519E+03  0.55970420678E+03  0.59416601790E+03  0.00000000000E+00 0. -1.
         -4    1    3    3    0  502 -0.18284389252E+01 -0.51983932024E+02  0.63862998390E+02  0.82365981697E+02  0.00000000000E+00 0.  1.
         13    1    5    5    0    0 -0.26302156721E+03 -0.20873686533E+02  0.27897588974E+03  0.38398385729E+03  0.00000000000E+00 0. -1.
        -13    1    5    5    0    0 -0.16662592841E+03  0.96267100948E+01  0.86835630728E+02  0.18814170279E+03  0.00000000000E+00 0.  1.
          1    1    6    6  503    0  0.16331890786E+03  0.16075249174E+03  0.10288268548E+03  0.25119569311E+03  0.00000000000E+00 0. -1.
         -1    1    6    6    0  503  0.23300773318E+03  0.98766431914E+02  0.13005728968E+03  0.28453876783E+03  0.00000000000E+00 0.  1.
<mgrwt>
<rscale>  0 0.12999969E+04</rscale>
<asrwt>0</asrwt>
<pdfrwt beam="1">  1        1 0.23128544E+00 0.12999969E+04</pdfrwt>
<pdfrwt beam="2">  1       -2 0.43236410E-01 0.12999969E+04</pdfrwt>
<totfact> 0.28450782E+01</totfact>
</mgrwt>
</event>
<event>
12    5  0.5197392E-008  0.1803811E+04  0.7818608E-02  0.8704275E-01
          1   -1    0    0  501    0  0.00000000000E+00  0.00000000000E+00  0.12351559629E+04  0.12351559629E+04  0.00000000000E+00 0. -1.
         -2   -1    0    0    0  501 -0.00000000000E+00 -0.00000000000E+00 -0.65856771245E+03  0.65856771245E+03  0.00000000000E+00 0.  1.
        -24    2    1    2    0    0  0.26069942436E+03 -0.17014183110E+03 -0.41316668620E+03  0.52326206120E+03  0.78638677197E+02 0.  0.
        254    2    1    2    0    0 -0.26069942436E+03  0.17014183110E+03  0.98975493666E+03  0.13704616142E+04  0.89534226345E+03 0.  0.
         23    2    4    4    0    0 -0.57008751407E+03  0.21948663056E+03  0.70741990005E+03  0.93906745580E+03  0.90722747239E+02 0.  0.
         23    2    4    4    0    0  0.30938808972E+03 -0.49344799461E+02  0.28233503661E+03  0.43139415836E+03  0.90730081441E+02 0.  0.
          1    1    3    3  502    0  0.17009188073E+02 -0.21526759383E+02 -0.79853519391E+02  0.84435172811E+02  0.00000000000E+00 0. -1.
         -2    1    3    3    0  502  0.24369023628E+03 -0.14861507172E+03 -0.33331316681E+03  0.43882688838E+03  0.00000000000E+00 0.  1.
         13    1    5    5    0    0 -0.46909813567E+02  0.15995523535E+02  0.10223264550E+03  0.11361294463E+03  0.00000000000E+00 0.  1.
        -13    1    5    5    0    0 -0.52317770051E+03  0.20349110703E+03  0.60518725455E+03  0.82545451118E+03  0.00000000000E+00 0. -1.
          4    1    6    6  503    0  0.28514453920E+03 -0.21783053782E+02  0.26819083250E+03  0.39205641470E+03  0.00000000000E+00 0. -1.
         -4    1    6    6    0  503  0.24243550514E+02 -0.27561745679E+02  0.14144204102E+02  0.39337743657E+02  0.00000000000E+00 0.  1.
<mgrwt>
<rscale>  0 0.18038113E+04</rscale>
<asrwt>0</asrwt>
<pdfrwt beam="1">  1        1 0.19002399E+00 0.18038113E+04</pdfrwt>
<pdfrwt beam="2">  1       -2 0.10131811E+00 0.18038113E+04</pdfrwt>
<totfact> 0.66738580E+00</totfact>
</mgrwt>
</event>
<event>
12    5  0.5197392E-008  0.2183033E+04  0.7818608E-02  0.8525524E-01
          1   -1    0    0  501    0  0.00000000000E+00  0.00000000000E+00  0.53342240801E+03  0.53342240801E+03  0.00000000000E+00 0. -1.
         -2   -1    0    0    0  501 -0.00000000000E+00 -0.00000000000E+00 -0.22335164538E+04  0.22335164538E+04  0.00000000000E+00 0.  1.
        -24    2    1    2    0    0  0.16179649134E+03  0.35210404670E+03 -0.17461089852E+04  0.17904473621E+04  0.81546328942E+02 0.  0.
        254    2    1    2    0    0 -0.16179649134E+03 -0.35210404670E+03  0.46014939368E+02  0.97649149980E+03  0.89513290087E+03 0.  0.
         23    2    4    4    0    0 -0.41852376715E+03 -0.49236415112E+03  0.11059075123E+03  0.66180757856E+03  0.90412144126E+02 0.  0.
         23    2    4    4    0    0  0.25672727581E+03  0.14026010442E+03 -0.64575811866E+02  0.31468392124E+03  0.96302355981E+02 0.  0.
          1    1    3    3  502    0  0.36114654129E+02  0.16388596387E+03 -0.65928245636E+03  0.68030598605E+03  0.00000000000E+00 0. -1.
         -2    1    3    3    0  502  0.12568183721E+03  0.18821808283E+03 -0.10868265288E+04  0.11101413760E+04  0.00000000000E+00 0.  1.
         13    1    5    5    0    0 -0.34908478723E+03 -0.45503807785E+03  0.92558172932E+02  0.58093618957E+03  0.00000000000E+00 0.  1.
        -13    1    5    5    0    0 -0.69438979918E+02 -0.37326073268E+02  0.18032578302E+02  0.80871388994E+02  0.00000000000E+00 0. -1.
          1    1    6    6  503    0  0.11564190784E+03  0.20311542739E+02  0.32863878688E+01  0.11745812004E+03  0.00000000000E+00 0. -1.
         -1    1    6    6    0  503  0.14108536798E+03  0.11994856169E+03 -0.67862199735E+02  0.19722580120E+03  0.00000000000E+00 0.  1.
<mgrwt>
<rscale>  0 0.21830325E+04</rscale>
<asrwt>0</asrwt>
<pdfrwt beam="1">  1        1 0.82064985E-01 0.21830325E+04</pdfrwt>
<pdfrwt beam="2">  1       -2 0.34361792E+00 0.21830325E+04</pdfrwt>
<totfact> 0.55346542E-01</totfact>
</mgrwt>
</event>
<event>
12    5  0.5197392E-008  0.1712427E+04  0.7818608E-02  0.8754308E-01
         -2   -1    0    0    0  501 -0.00000000000E+00  0.00000000000E+00  0.60552966826E+03  0.60552966826E+03  0.00000000000E+00 0.  1.
          1   -1    0    0  501    0  0.00000000000E+00 -0.00000000000E+00 -0.12106788024E+04  0.12106788024E+04  0.00000000000E+00 0. -1.
        -24    2    1    2    0    0 -0.53690544166E+03 -0.28509300410E+03 -0.29455206256E+03  0.68085794577E+03  0.85212384573E+02 0.  0.
        254    2    1    2    0    0  0.53690544166E+03  0.28509300410E+03 -0.31059707162E+03  0.11353505249E+04  0.90719611953E+03 0.  0.
         23    2    4    4    0    0  0.50137486017E+03  0.48493029706E+03  0.56105593591E+02  0.70567204171E+03  0.91055199805E+02 0.  0.
         23    2    4    4    0    0  0.35530581493E+02 -0.19983729296E+03 -0.36670266521E+03  0.42967848322E+03  0.94632913890E+02 0.  0.
          1    1    3    3  502    0 -0.17907204330E+02  0.55031234201E+01 -0.12782152628E+02  0.22678971760E+02  0.00000000000E+00 0. -1.
         -2    1    3    3    0  502 -0.51899823733E+03 -0.29059612752E+03 -0.28176990994E+03  0.65817897401E+03  0.00000000000E+00 0.  1.
         13    1    5    5    0    0  0.20761063971E+02  0.51822118521E+02  0.12658066493E+02  0.57243168959E+02  0.00000000000E+00 0. -1.
        -13    1    5    5    0    0  0.48061379620E+03  0.43310817854E+03  0.43447527098E+02  0.64842887275E+03  0.00000000000E+00 0.  1.
          3    1    6    6  503    0  0.59161384909E+02 -0.69129661385E+02 -0.15638086770E+03  0.18092527555E+03  0.00000000000E+00 0. -1.
         -3    1    6    6    0  503 -0.23630803416E+02 -0.13070763157E+03 -0.21032179751E+03  0.24875320767E+03  0.00000000000E+00 0.  1.
<mgrwt>
<rscale>  0 0.17124274E+04</rscale>
<asrwt>0</asrwt>
<pdfrwt beam="1">  1        1 0.18625828E+00 0.17124274E+04</pdfrwt>
<pdfrwt beam="2">  1       -2 0.93158411E-01 0.17124274E+04</pdfrwt>
<totfact> 0.85374383E+00</totfact>
</mgrwt>
</event>
<event>
12    5  0.5197392E-008  0.3520484E+04  0.7818608E-02  0.8108953E-01
         -2   -1    0    0    0  501 -0.00000000000E+00  0.00000000000E+00  0.13455831184E+04  0.13455831184E+04  0.00000000000E+00 0.  1.
          1   -1    0    0  501    0  0.00000000000E+00 -0.00000000000E+00 -0.23026829854E+04  0.23026829854E+04  0.00000000000E+00 0. -1.
        -24    2    1    2    0    0 -0.67209757743E+03 -0.17979957292E+03 -0.19876777555E+04  0.21075511545E+04  0.82861142995E+02 0.  0.
        254    2    1    2    0    0  0.67209757743E+03  0.17979957292E+03  0.10305778885E+04  0.15407149492E+04  0.90976300782E+03 0.  0.
         23    2    4    4    0    0  0.23451343590E+03  0.30653896970E+03 -0.15479612893E+02  0.39640404296E+03  0.89072191487E+02 0.  0.
         23    2    4    4    0    0  0.43758414154E+03 -0.12673939678E+03  0.10460575014E+04  0.11443109063E+04  0.87569391277E+02 0.  0.
          3    1    3    3  502    0 -0.55865427911E+03 -0.11653131956E+03 -0.16068549067E+04  0.17051852812E+04  0.00000000000E+00 0. -1.
         -4    1    3    3    0  502 -0.11344329833E+03 -0.63268253360E+02 -0.38082284880E+03  0.40236587329E+03  0.00000000000E+00 0.  1.
         13    1    5    5    0    0  0.10401466676E+03  0.19813099867E+03  0.13986257881E+02  0.22421096973E+03  0.00000000000E+00 0. -1.
        -13    1    5    5    0    0  0.13049876914E+03  0.10840797103E+03 -0.29465870773E+02  0.17219307323E+03  0.00000000000E+00 0.  1.
          2    1    6    6  503    0  0.91643371967E+02 -0.26965484361E+02  0.14144659112E+03  0.17068328305E+03  0.00000000000E+00 0. -1.
         -2    1    6    6    0  503  0.34594076957E+03 -0.99773912417E+02  0.90461091029E+03  0.97362762321E+03  0.00000000000E+00 0.  1.
<mgrwt>
<rscale>  0 0.35204837E+04</rscale>
<asrwt>0</asrwt>
<pdfrwt beam="1">  1        1 0.35425892E+00 0.35204837E+04</pdfrwt>
<pdfrwt beam="2">  1       -2 0.20701279E+00 0.35204837E+04</pdfrwt>
<totfact> 0.15894329E-01</totfact>
</mgrwt>
</event>
<event>
12    5  0.5197392E-008  0.3070212E+04  0.7818608E-02  0.8223961E-01
          3   -1    0    0  501    0  0.00000000000E+00  0.00000000000E+00  0.34394016480E+04  0.34394016480E+04  0.00000000000E+00 0. -1.
         -4   -1    0    0    0  501 -0.00000000000E+00 -0.00000000000E+00 -0.68516278240E+03  0.68516278240E+03  0.00000000000E+00 0.  1.
        -24    2    1    2    0    0  0.73690987947E+03  0.18804914888E+03 -0.32268646138E+03  0.82988158678E+03  0.78601799379E+02 0.  0.
        254    2    1    2    0    0 -0.73690987947E+03 -0.18804914888E+03  0.30769253270E+04  0.32946828436E+04  0.89948147253E+03 0.  0.
         23    2    4    4    0    0 -0.61648634750E+03  0.16461960284E+03  0.10553774619E+04  0.12370494466E+04  0.96512776063E+02 0.  0.
         23    2    4    4    0    0 -0.12042353196E+03 -0.35266875172E+03  0.20215478651E+04  0.20576333970E+04  0.91226916338E+02 0.  0.
          3    1    3    3  502    0  0.32069105749E+03  0.11877210737E+03 -0.16152918072E+03  0.37820793761E+03  0.00000000000E+00 0. -1.
         -4    1    3    3    0  502  0.41621882197E+03  0.69277041508E+02 -0.16115728066E+03  0.45167364917E+03  0.00000000000E+00 0.  1.
         13    1    5    5    0    0 -0.54497867975E+03  0.12144119906E+03  0.95720988250E+03  0.11081518332E+04  0.00000000000E+00 0. -1.
        -13    1    5    5    0    0 -0.71507667759E+02  0.43178403784E+02  0.98167579391E+02  0.12889761342E+03  0.00000000000E+00 0.  1.
          4    1    6    6  503    0 -0.12897816085E+03 -0.25643634113E+03  0.15184594556E+04  0.15453524133E+04  0.00000000000E+00 0. -1.
         -4    1    6    6    0  503  0.85546288906E+01 -0.96232410590E+02  0.50308840948E+03  0.51228098371E+03  0.00000000000E+00 0.  1.
<mgrwt>
<rscale>  0 0.30702117E+04</rscale>
<asrwt>0</asrwt>
<pdfrwt beam="1">  1        3 0.52913871E+00 0.30702117E+04</pdfrwt>
<pdfrwt beam="2">  1       -4 0.10540966E+00 0.30702117E+04</pdfrwt>
<totfact> 0.34936469E-03</totfact>
</mgrwt>
</event>
<event>
12    5  0.5197392E-008  0.1199636E+04  0.7818608E-02  0.9113175E-01
         -2   -1    0    0    0  501 -0.00000000000E+00  0.00000000000E+00  0.12950895709E+04  0.12950895709E+04  0.00000000000E+00 0.  1.
          1   -1    0    0  501    0  0.00000000000E+00 -0.00000000000E+00 -0.27780450792E+03  0.27780450792E+03  0.00000000000E+00 0. -1.
        -24    2    1    2    0    0  0.20866907730E+03  0.29270796344E+02  0.38306793300E+03  0.44495983472E+03  0.82756570005E+02 0.  0.
        254    2    1    2    0    0 -0.20866907730E+03 -0.29270796344E+02  0.63421712997E+03  0.11279342441E+04  0.90862793690E+03 0.  0.
         23    2    4    4    0    0  0.24424532333E+03 -0.29175261693E+03  0.18533753957E+03  0.43278027843E+03  0.90406849133E+02 0.  0.
         23    2    4    4    0    0 -0.45291440063E+03  0.26248182059E+03  0.44887959040E+03  0.69515396566E+03  0.87852085089E+02 0.  0.
          3    1    3    3  502    0  0.16053846864E+01 -0.58871575132E+01 -0.19298182680E+01  0.64000064160E+01  0.00000000000E+00 0. -1.
         -4    1    3    3    0  502  0.20706369262E+03  0.35157953857E+02  0.38499775127E+03  0.43855982830E+03  0.00000000000E+00 0.  1.
         13    1    5    5    0    0  0.81383430121E+02 -0.42143340024E+02  0.59461107103E+02  0.10924718333E+03  0.00000000000E+00 0. -1.
        -13    1    5    5    0    0  0.16286189321E+03 -0.24960927691E+03  0.12587643247E+03  0.32353309511E+03  0.00000000000E+00 0.  1.
          4    1    6    6  503    0 -0.41593356020E+03  0.26536437251E+03  0.41099499812E+03  0.64213383743E+03  0.00000000000E+00 0.  1.
         -4    1    6    6    0  503 -0.36980840435E+02 -0.28825519229E+01  0.37884592283E+02  0.53020128228E+02  0.00000000000E+00 0. -1.
<mgrwt>
<rscale>  0 0.11996361E+04</rscale>
<asrwt>0</asrwt>
<pdfrwt beam="1">  1        1 0.42739156E-01 0.11996361E+04</pdfrwt>
<pdfrwt beam="2">  1       -2 0.19924455E+00 0.11996361E+04</pdfrwt>
<totfact> 0.11254076E+01</totfact>
</mgrwt>
</event>
<event>
12    5  0.5197392E-008  0.1999982E+04  0.7818608E-02  0.8606629E-01
          1   -1    0    0  501    0  0.00000000000E+00  0.00000000000E+00  0.86628222428E+03  0.86628222428E+03  0.00000000000E+00 0. -1.
         -2   -1    0    0    0  501 -0.00000000000E+00 -0.00000000000E+00 -0.11543376777E+04  0.11543376777E+04  0.00000000000E+00 0.  1.
        -24    2    1    2    0    0  0.34370729885E+03 -0.66497655688E+03  0.17766396978E+03  0.77381738575E+03  0.83068236094E+02 0.  0.
        254    2    1    2    0    0 -0.34370729885E+03  0.66497655688E+03 -0.46571942322E+03  0.12468025163E+04  0.88164244731E+03 0.  0.
         23    2    4    4    0    0 -0.17139804963E+03  0.61191905470E+03  0.96191013822E+02  0.64911254459E+03  0.90951434733E+02 0.  0.
         23    2    4    4    0    0 -0.17230924922E+03  0.53057502186E+02 -0.56191043704E+03  0.59768997167E+03  0.94786006766E+02 0.  0.
          3    1    3    3  502    0  0.26054291393E+03 -0.56382111091E+03  0.16231248903E+03  0.64196744404E+03  0.00000000000E+00 0. -1.
         -2    1    3    3    0  502  0.83164384919E+02 -0.10115544597E+03  0.15351480745E+02  0.13184994171E+03  0.00000000000E+00 0.  1.
         13    1    5    5    0    0 -0.13950542430E+03  0.44291379910E+03  0.10786848211E+03  0.47672844081E+03  0.00000000000E+00 0.  1.
        -13    1    5    5    0    0 -0.31892625330E+02  0.16900525560E+03 -0.11677468286E+02  0.17238410378E+03  0.00000000000E+00 0. -1.
          3    1    6    6  503    0 -0.35354640560E+02  0.72571857077E+01 -0.31281056292E+02  0.47761091238E+02  0.00000000000E+00 0. -1.
         -3    1    6    6    0  503 -0.13695460866E+03  0.45800316478E+02 -0.53062938075E+03  0.54992888043E+03  0.00000000000E+00 0.  1.
<mgrwt>
<rscale>  0 0.19999822E+04</rscale>
<asrwt>0</asrwt>
<pdfrwt beam="1">  1        1 0.13327419E+00 0.19999822E+04</pdfrwt>
<pdfrwt beam="2">  1       -2 0.17759041E+00 0.19999822E+04</pdfrwt>
<totfact> 0.29718838E+00</totfact>
</mgrwt>
</event>
<event>
12    5  0.5197392E-008  0.1150261E+04  0.7818608E-02  0.9157543E-01
         -2   -1    0    0    0  501 -0.00000000000E+00  0.00000000000E+00  0.14650582439E+03  0.14650582439E+03  0.00000000000E+00 0.  1.
          1   -1    0    0  501    0  0.00000000000E+00 -0.00000000000E+00 -0.22577593090E+04  0.22577593090E+04  0.00000000000E+00 0. -1.
        -24    2    1    2    0    0  0.19552230399E+03  0.60836307429E+02 -0.53949557509E+03  0.58259984413E+03  0.80231385237E+02 0.  0.
        254    2    1    2    0    0 -0.19552230399E+03 -0.60836307429E+02 -0.15717579095E+04  0.18216652892E+04  0.89783710786E+03 0.  0.
         23    2    4    4    0    0  0.52979845329E+02 -0.37560089892E+03 -0.32085338387E+03  0.50479028612E+03  0.89350096487E+02 0.  0.
         23    2    4    4    0    0 -0.24850214932E+03  0.31476459149E+03 -0.12509045256E+04  0.13168750031E+04  0.92561197660E+02 0.  0.
          1    1    3    3  502    0  0.15134512154E+03  0.20589786147E+02 -0.44795393032E+03  0.47327794032E+03  0.00000000000E+00 0. -1.
         -2    1    3    3    0  502  0.44177182447E+02  0.40246521282E+02 -0.91541644778E+02  0.10932190381E+03  0.00000000000E+00 0.  1.
         13    1    5    5    0    0  0.22584484490E+02 -0.34173727771E+03 -0.26683700122E+03  0.43416173385E+03  0.00000000000E+00 0. -1.
        -13    1    5    5    0    0  0.30395360839E+02 -0.33863621208E+02 -0.54016382650E+02  0.70628552275E+02  0.00000000000E+00 0.  1.
          3    1    6    6  503    0 -0.22548347861E+03  0.29909631351E+03 -0.12150690261E+04  0.12714928793E+04  0.00000000000E+00 0. -1.
         -3    1    6    6    0  503 -0.23018670706E+02  0.15668277975E+02 -0.35835499474E+02  0.45382123775E+02  0.00000000000E+00 0.  1.
<mgrwt>
<rscale>  0 0.11502606E+04</rscale>
<asrwt>0</asrwt>
<pdfrwt beam="1">  1        1 0.34734757E+00 0.11502606E+04</pdfrwt>
<pdfrwt beam="2">  1       -2 0.22539359E-01 0.11502606E+04</pdfrwt>
<totfact> 0.30132239E+01</totfact>
</mgrwt>
</event>
<event>
12    5  0.5197392E-008  0.2530330E+04  0.7818608E-02  0.8392259E-01
          1   -1    0    0  501    0  0.00000000000E+00  0.00000000000E+00  0.20070543204E+04  0.20070543204E+04  0.00000000000E+00 0. -1.
         -2   -1    0    0    0  501 -0.00000000000E+00 -0.00000000000E+00 -0.79750829856E+03  0.79750829856E+03  0.00000000000E+00 0.  1.
        -24    2    1    2    0    0  0.95088602940E+03  0.24222311423E+03 -0.17266932144E+02  0.98454084507E+03  0.78525477965E+02 0.  0.
        254    2    1    2    0    0 -0.95088602940E+03 -0.24222311423E+03  0.12268129539E+04  0.18200217739E+04  0.91899562314E+03 0.  0.
         23    2    4    4    0    0 -0.10307093208E+04  0.18839998294E+02  0.81634258505E+03  0.13181737404E+04  0.91924665754E+02 0.  0.
         23    2    4    4    0    0  0.79823291441E+02 -0.26106311252E+03  0.41047036890E+03  0.50184803343E+03  0.94020308112E+02 0.  0.
          3    1    3    3  502    0  0.11368394539E+03  0.35707735049E+02  0.22765961482E+02  0.12131517129E+03  0.00000000000E+00 0. -1.
         -4    1    3    3    0  502  0.83720208401E+03  0.20651537918E+03 -0.40032893625E+02  0.86322567378E+03  0.00000000000E+00 0.  1.
         13    1    5    5    0    0 -0.53630740196E+03  0.46002524471E+02  0.46115368182E+03  0.70880503660E+03  0.00000000000E+00 0. -1.
        -13    1    5    5    0    0 -0.49440191888E+03 -0.27162526177E+02  0.35518890323E+03  0.60936870383E+03  0.00000000000E+00 0.  1.
          3    1    6    6  503    0  0.84624879965E+02 -0.26295973952E+03  0.41237185139E+03  0.49634638986E+03  0.00000000000E+00 0. -1.
         -3    1    6    6    0  503 -0.48015885246E+01  0.18966269966E+01 -0.19014824825E+01  0.55016435685E+01  0.00000000000E+00 0.  1.
<mgrwt>
<rscale>  0 0.25303300E+04</rscale>
<asrwt>0</asrwt>
<pdfrwt beam="1">  1        1 0.30877759E+00 0.25303300E+04</pdfrwt>
<pdfrwt beam="2">  1       -2 0.12269358E+00 0.25303300E+04</pdfrwt>
<totfact> 0.11529534E+00</totfact>
</mgrwt>
</event>
<event>
12    5  0.5197392E-008  0.1898489E+04  0.7818608E-02  0.8655609E-01
          1   -1    0    0  501    0  0.00000000000E+00  0.00000000000E+00  0.18429168186E+04  0.18429168186E+04  0.00000000000E+00 0. -1.
         -2   -1    0    0    0  501 -0.00000000000E+00 -0.00000000000E+00 -0.48893439362E+03  0.48893439362E+03  0.00000000000E+00 0.  1.
        -24    2    1    2    0    0  0.18349771456E+03 -0.60162147542E+03  0.64119361843E+02  0.63505344776E+03  0.59680633523E+02 0.  0.
        254    2    1    2    0    0 -0.18349771456E+03  0.60162147542E+03  0.12898630632E+04  0.16967977645E+04  0.90540384410E+03 0.  0.
         23    2    4    4    0    0  0.25918961205E+03  0.15247753109E+03  0.72603631452E+02  0.32271726882E+03  0.91904819339E+02 0.  0.
         23    2    4    4    0    0 -0.44268732661E+03  0.44914394433E+03  0.12172594317E+04  0.13740804957E+04  0.93136097095E+02 0.  0.
          3    1    3    3  502    0  0.17849156861E+03 -0.52791082825E+03  0.65894712965E+02  0.56115166920E+03  0.00000000000E+00 0. -1.
         -4    1    3    3    0  502  0.50061459554E+01 -0.73710647173E+02 -0.17753511216E+01  0.73901778569E+02  0.00000000000E+00 0.  1.
         13    1    5    5    0    0  0.90304081820E+02  0.10049585392E+03  0.10890730859E+02  0.13554649338E+03  0.00000000000E+00 0. -1.
        -13    1    5    5    0    0  0.16888553023E+03  0.51981677165E+02  0.61712900593E+02  0.18717077545E+03  0.00000000000E+00 0.  1.
          2    1    6    6  503    0 -0.29510519749E+03  0.27156292113E+03  0.85672035787E+03  0.94594041530E+03  0.00000000000E+00 0. -1.
         -2    1    6    6    0  503 -0.14758212912E+03  0.17758102321E+03  0.36053907385E+03  0.42814008036E+03  0.00000000000E+00 0.  1.
<mgrwt>
<rscale>  0 0.18984893E+04</rscale>
<asrwt>0</asrwt>
<pdfrwt beam="1">  1        1 0.28352566E+00 0.18984893E+04</pdfrwt>
<pdfrwt beam="2">  1       -2 0.75220677E-01 0.18984893E+04</pdfrwt>
<totfact> 0.49649602E+00</totfact>
</mgrwt>
</event>
<event>
12    5  0.5197392E-008  0.2049120E+04  0.7818608E-02  0.8583994E-01
         -2   -1    0    0    0  501 -0.00000000000E+00  0.00000000000E+00  0.13328929319E+04  0.13328929319E+04  0.00000000000E+00 0.  1.
          1   -1    0    0  501    0  0.00000000000E+00 -0.00000000000E+00 -0.78755274978E+03  0.78755274978E+03  0.00000000000E+00 0. -1.
        -24    2    1    2    0    0 -0.62458533042E+03  0.38813839106E+02  0.77744085808E+03  0.10038843347E+04  0.10842564502E+03 0.  0.
        254    2    1    2    0    0  0.62458533042E+03 -0.38813839106E+02 -0.23210067591E+03  0.11165613471E+04  0.89511181922E+03 0.  0.
         23    2    4    4    0    0  0.13107779142E+03  0.56637771414E+02  0.32065561498E+03  0.36345910220E+03  0.94304140945E+02 0.  0.
         23    2    4    4    0    0  0.49350753900E+03 -0.95451610520E+02 -0.55275629089E+03  0.75310224486E+03  0.94671923484E+02 0.  0.
          1    1    3    3  502    0 -0.29940569490E+03  0.72337212531E+02  0.38945375667E+03  0.49653869037E+03  0.00000000000E+00 0. -1.
         -4    1    3    3    0  502 -0.32517963552E+03 -0.33523373425E+02  0.38798710141E+03  0.50734564429E+03  0.00000000000E+00 0.  1.
         13    1    5    5    0    0  0.10516939188E+03  0.76808853524E+02  0.29259042487E+03  0.32026451208E+03  0.00000000000E+00 0. -1.
        -13    1    5    5    0    0  0.25908399534E+02 -0.20171082110E+02  0.28065190102E+02  0.43194590117E+02  0.00000000000E+00 0.  1.
          3    1    6    6  503    0  0.32263674228E+03 -0.37478494398E+02 -0.29714473116E+03  0.44022050868E+03  0.00000000000E+00 0. -1.
         -3    1    6    6    0  503  0.17087079672E+03 -0.57973116122E+02 -0.25561155973E+03  0.31288173618E+03  0.00000000000E+00 0.  1.
<mgrwt>
<rscale>  0 0.20491203E+04</rscale>
<asrwt>0</asrwt>
<pdfrwt beam="1">  1        1 0.12116196E+00 0.20491203E+04</pdfrwt>
<pdfrwt beam="2">  1       -2 0.20506045E+00 0.20491203E+04</pdfrwt>
<totfact> 0.22606298E+00</totfact>
</mgrwt>
</event>
<event>
12    5  0.5197392E-008  0.1600655E+04  0.7818608E-02  0.8820146E-01
         -2   -1    0    0    0  501 -0.00000000000E+00  0.00000000000E+00  0.49100619502E+03  0.49100619502E+03  0.00000000000E+00 0.  1.
          1   -1    0    0  501    0  0.00000000000E+00 -0.00000000000E+00 -0.13045136264E+04  0.13045136264E+04  0.00000000000E+00 0. -1.
        -24    2    1    2    0    0  0.19504005672E+03 -0.50494567373E+02  0.28731035708E+03  0.36185403913E+03  0.88322020443E+02 0.  0.
        254    2    1    2    0    0 -0.19504005672E+03  0.50494567373E+02 -0.11008177885E+04  0.14336657823E+04  0.89610682783E+03 0.  0.
         23    2    4    4    0    0 -0.73191092121E+02  0.42990659691E+03 -0.83194529556E+03  0.94366846751E+03  0.90557074429E+02 0.  0.
         23    2    4    4    0    0 -0.12184896460E+03 -0.37941202954E+03 -0.26887249292E+03  0.48999731481E+03  0.94890951831E+02 0.  0.
          1    1    3    3  502    0  0.21260291039E+02  0.18829213174E+02  0.67298842829E+02  0.73045694534E+02  0.00000000000E+00 0. -1.
         -2    1    3    3    0  502  0.17377976568E+03 -0.69323780547E+02  0.22001151425E+03  0.28880834460E+03  0.00000000000E+00 0.  1.
         13    1    5    5    0    0 -0.29940949604E+02  0.19658291964E+03 -0.28551967322E+03  0.34794078311E+03  0.00000000000E+00 0. -1.
        -13    1    5    5    0    0 -0.43250142518E+02  0.23332367727E+03 -0.54642562235E+03  0.59572768440E+03  0.00000000000E+00 0.  1.
          1    1    6    6  503    0 -0.74163571016E+02 -0.18879908592E+03 -0.19108317292E+03  0.27867204575E+03  0.00000000000E+00 0. -1.
         -1    1    6    6    0  503 -0.47685393582E+02 -0.19061294362E+03 -0.77789319997E+02  0.21132526906E+03  0.00000000000E+00 0.  1.
<mgrwt>
<rscale>  0 0.16006552E+04</rscale>
<asrwt>0</asrwt>
<pdfrwt beam="1">  1        1 0.20069440E+00 0.16006552E+04</pdfrwt>
<pdfrwt beam="2">  1       -2 0.75539416E-01 0.16006552E+04</pdfrwt>
<totfact> 0.11876817E+01</totfact>
</mgrwt>
</event>
<event>
12    5  0.5197392E-008  0.2193323E+04  0.7818608E-02  0.8521212E-01
          1   -1    0    0  501    0  0.00000000000E+00  0.00000000000E+00  0.14922661045E+04  0.14922661045E+04  0.00000000000E+00 0. -1.
         -2   -1    0    0    0  501 -0.00000000000E+00 -0.00000000000E+00 -0.80593279176E+03  0.80593279176E+03  0.00000000000E+00 0.  1.
        -24    2    1    2    0    0 -0.28705285011E+03 -0.51279307295E+03  0.10143728754E+04  0.11751577959E+04  0.81776772832E+02 0.  0.
        254    2    1    2    0    0  0.28705285011E+03  0.51279307295E+03 -0.32803956261E+03  0.11230411004E+04  0.89903019084E+03 0.  0.
         23    2    4    4    0    0 -0.15734630748E+02 -0.23193522096E+03 -0.21653201452E+01  0.25029367877E+03  0.92740022070E+02 0.  0.
         23    2    4    4    0    0  0.30278748086E+03  0.74472829391E+03 -0.32587424247E+03  0.87274742159E+03  0.95882999954E+02 0.  0.
          3    1    3    3  502    0 -0.28793538282E+03 -0.47703274897E+03  0.94278849407E+03  0.10951334041E+04  0.00000000000E+00 0. -1.
         -4    1    3    3    0  502  0.88253270502E+00 -0.35760323985E+02  0.71584381283E+02  0.80024391777E+02  0.00000000000E+00 0.  1.
         13    1    5    5    0    0  0.11288013151E+02 -0.13530064264E+03  0.39868789885E+02  0.14150336938E+03  0.00000000000E+00 0.  1.
        -13    1    5    5    0    0 -0.27022643898E+02 -0.96634578321E+02 -0.42034110030E+02  0.10879030939E+03  0.00000000000E+00 0. -1.
          1    1    6    6  503    0  0.62642150670E+02  0.85324293280E+02 -0.22533927588E+02  0.10822223412E+03  0.00000000000E+00 0. -1.
         -1    1    6    6    0  503  0.24014533019E+03  0.65940400063E+03 -0.30334031488E+03  0.76452518748E+03  0.00000000000E+00 0.  1.
<mgrwt>
<rscale>  0 0.21933228E+04</rscale>
<asrwt>0</asrwt>
<pdfrwt beam="1">  1        1 0.22957940E+00 0.21933228E+04</pdfrwt>
<pdfrwt beam="2">  1       -2 0.12398966E+00 0.21933228E+04</pdfrwt>
<totfact> 0.25955773E+00</totfact>
</mgrwt>
</event>
<event>
12    5  0.5197392E-008  0.1153076E+04  0.7818608E-02  0.9154951E-01
          1   -1    0    0  501    0  0.00000000000E+00  0.00000000000E+00  0.44112130695E+03  0.44112130695E+03  0.00000000000E+00 0. -1.
         -2   -1    0    0    0  501 -0.00000000000E+00 -0.00000000000E+00 -0.75352515005E+03  0.75352515005E+03  0.00000000000E+00 0.  1.
        -24    2    1    2    0    0 -0.50220286867E+02  0.67285714728E+02  0.13828973391E+03  0.18022708591E+03  0.79424853627E+02 0.  0.
        254    2    1    2    0    0  0.50220286867E+02 -0.67285714728E+02 -0.45069357700E+03  0.10144193711E+04  0.90491575048E+03 0.  0.
         23    2    4    4    0    0  0.26870989917E+03  0.70031120828E+02  0.16845634171E+03  0.33712353524E+03  0.90362443289E+02 0.  0.
         23    2    4    4    0    0 -0.21848961230E+03 -0.13731683556E+03 -0.61914991871E+03  0.67729583585E+03  0.93751818189E+02 0.  0.
          3    1    3    3  502    0 -0.46318310261E+02  0.37167470216E+02  0.13757855261E+03  0.14984880662E+03  0.00000000000E+00 0. -1.
         -4    1    3    3    0  502 -0.39019766065E+01  0.30118244512E+02  0.71118129589E+00  0.30378279292E+02  0.00000000000E+00 0.  1.
         13    1    5    5    0    0  0.24840286991E+03  0.84839552572E+02  0.13469091602E+03  0.29503114805E+03  0.00000000000E+00 0. -1.
        -13    1    5    5    0    0  0.20307029259E+02 -0.14808431744E+02  0.33765425683E+02  0.42092387192E+02  0.00000000000E+00 0.  1.
          2    1    6    6  503    0 -0.18373976337E+03 -0.13364241385E+03 -0.44467432554E+03  0.49935543576E+03  0.00000000000E+00 0. -1.
         -2    1    6    6    0  503 -0.34749848930E+02 -0.36744217102E+01 -0.17447559316E+03  0.17794040009E+03  0.00000000000E+00 0.  1.
<mgrwt>
<rscale>  0 0.11530759E+04</rscale>
<asrwt>0</asrwt>
<pdfrwt beam="1">  1        1 0.67864817E-01 0.11530759E+04</pdfrwt>
<pdfrwt beam="2">  1       -2 0.11592694E+00 0.11530759E+04</pdfrwt>
<totfact> 0.26389711E+01</totfact>
</mgrwt>
</event>
<event>
12    5  0.5197392E-008  0.1627793E+04  0.7818608E-02  0.8803653E-01
          1   -1    0    0  501    0  0.00000000000E+00  0.00000000000E+00  0.15288459079E+04  0.15288459079E+04  0.00000000000E+00 0. -1.
         -2   -1    0    0    0  501 -0.00000000000E+00 -0.00000000000E+00 -0.43328597227E+03  0.43328597227E+03  0.00000000000E+00 0.  1.
        -24    2    1    2    0    0 -0.47657696365E+03 -0.21848642740E+03  0.60494582537E+03  0.80466657523E+03  0.81651236477E+02 0.  0.
        254    2    1    2    0    0  0.47657696365E+03  0.21848642740E+03  0.49061411024E+03  0.11574653049E+04  0.90783357818E+03 0.  0.
         23    2    4    4    0    0  0.46170180561E+01  0.13279012101E+02  0.61319895165E+03  0.62000312435E+03  0.90516688381E+02 0.  0.
         23    2    4    4    0    0  0.47195994559E+03  0.20520741530E+03 -0.12258484142E+03  0.53746218057E+03  0.94774884105E+02 0.  0.
          1    1    3    3  502    0 -0.29598023156E+03 -0.10413072258E+03  0.40160698144E+03  0.50964269091E+03  0.00000000000E+00 0. -1.
         -2    1    3    3    0  502 -0.18059673209E+03 -0.11435570482E+03  0.20333884394E+03  0.29502388432E+03  0.00000000000E+00 0.  1.
         13    1    5    5    0    0 -0.66886324828E+01  0.14260238847E+02  0.60674237740E+03  0.60694678906E+03  0.00000000000E+00 0. -1.
        -13    1    5    5    0    0  0.11305650539E+02 -0.98122674584E+00  0.64565742481E+01  0.13056335284E+02  0.00000000000E+00 0.  1.
          4    1    6    6  503    0  0.25727055548E+03  0.67826749883E+02 -0.88041712529E+02  0.28024979904E+03  0.00000000000E+00 0. -1.
         -4    1    6    6    0  503  0.21468939011E+03  0.13738066542E+03 -0.34543128886E+02  0.25721238153E+03  0.00000000000E+00 0.  1.
<mgrwt>
<rscale>  0 0.16277930E+04</rscale>
<asrwt>0</asrwt>
<pdfrwt beam="1">  1        1 0.23520706E+00 0.16277930E+04</pdfrwt>
<pdfrwt beam="2">  1       -2 0.66659381E-01 0.16277930E+04</pdfrwt>
<totfact> 0.10851241E+01</totfact>
</mgrwt>
</event>
<event>
12    5  0.5197392E-008  0.1428424E+04  0.7818608E-02  0.8933497E-01
         -2   -1    0    0    0  501 -0.00000000000E+00  0.00000000000E+00  0.23828291042E+03  0.23828291042E+03  0.00000000000E+00 0.  1.
          1   -1    0    0  501    0  0.00000000000E+00 -0.00000000000E+00 -0.21407278025E+04  0.21407278025E+04  0.00000000000E+00 0. -1.
        -24    2    1    2    0    0 -0.24665401248E+02  0.94484266486E+02 -0.12760267623E+04  0.12822796809E+04  0.80381735529E+02 0.  0.
        254    2    1    2    0    0  0.24665401248E+02 -0.94484266486E+02 -0.62641812981E+03  0.10967310320E+04  0.89492101584E+03 0.  0.
         23    2    4    4    0    0 -0.16009159859E+03 -0.32008847651E+03  0.31914545073E+02  0.37087890614E+03  0.91905778350E+02 0.  0.
         23    2    4    4    0    0  0.18475699984E+03  0.22560421003E+03 -0.65833267488E+03  0.72585212587E+03  0.91798634240E+02 0.  0.
          3    1    3    3  502    0 -0.45270556916E+02  0.51005402793E+02 -0.97983230662E+03  0.98220279145E+03  0.00000000000E+00 0. -1.
         -4    1    3    3    0  502  0.20605155668E+02  0.43478863693E+02 -0.29619445564E+03  0.30007688945E+03  0.00000000000E+00 0.  1.
         13    1    5    5    0    0 -0.13820256623E+03 -0.28635243782E+03 -0.24699577986E+01  0.31796818811E+03  0.00000000000E+00 0. -1.
        -13    1    5    5    0    0 -0.21889032358E+02 -0.33736038692E+02  0.34384502872E+02  0.52910718025E+02  0.00000000000E+00 0.  1.
          1    1    6    6  503    0  0.12488375108E+03  0.20836373283E+03 -0.50688574840E+03  0.56208945762E+03  0.00000000000E+00 0. -1.
         -1    1    6    6    0  503  0.59873248763E+02  0.17240477195E+02 -0.15144692648E+03  0.16376266825E+03  0.00000000000E+00 0.  1.
<mgrwt>
<rscale>  0 0.14284241E+04</rscale>
<asrwt>0</asrwt>
<pdfrwt beam="1">  1        1 0.32934273E+00 0.14284241E+04</pdfrwt>
<pdfrwt beam="2">  1       -2 0.36658910E-01 0.14284241E+04</pdfrwt>
<totfact> 0.14330919E+01</totfact>
</mgrwt>
</event>
<event>
12    5  0.5197392E-008  0.1604869E+04  0.7818608E-02  0.8817563E-01
         -2   -1    0    0    0  501 -0.00000000000E+00  0.00000000000E+00  0.33668343441E+03  0.33668343441E+03  0.00000000000E+00 0.  1.
          1   -1    0    0  501    0  0.00000000000E+00 -0.00000000000E+00 -0.19124811930E+04  0.19124811930E+04  0.00000000000E+00 0. -1.
        -24    2    1    2    0    0 -0.13828727554E+03  0.25220812593E+03  0.11125805102E+03  0.31869142885E+03  0.80334074631E+02 0.  0.
        254    2    1    2    0    0  0.13828727554E+03 -0.25220812593E+03 -0.16870558096E+04  0.19304731985E+04  0.89321730626E+03 0.  0.
         23    2    4    4    0    0 -0.26548178829E+03  0.42123322690E+02 -0.11807512226E+04  0.12141222704E+04  0.87547035858E+02 0.  0.
         23    2    4    4    0    0  0.40376906382E+03 -0.29433144862E+03 -0.50630458699E+03  0.71635092817E+03  0.84580487868E+02 0.  0.
          3    1    3    3  502    0 -0.26562565194E+02  0.71667237545E+02  0.67378040481E+02  0.10188995606E+03  0.00000000000E+00 0. -1.
         -4    1    3    3    0  502 -0.11172471034E+03  0.18054088839E+03  0.43880010543E+02  0.21680147279E+03  0.00000000000E+00 0.  1.
         13    1    5    5    0    0 -0.23863618539E+02 -0.19941338078E+02 -0.18515180546E+03  0.18774536031E+03  0.00000000000E+00 0. -1.
        -13    1    5    5    0    0 -0.24161816975E+03  0.62064660768E+02 -0.99559941715E+03  0.10263769101E+04  0.00000000000E+00 0.  1.
          1    1    6    6  503    0  0.96751746363E+02 -0.10691115362E+03 -0.18058962864E+03  0.23109199286E+03  0.00000000000E+00 0. -1.
         -1    1    6    6    0  503  0.30701731746E+03 -0.18742029501E+03 -0.32571495835E+03  0.48525893530E+03  0.00000000000E+00 0.  1.
<mgrwt>
<rscale>  0 0.16048685E+04</rscale>
<asrwt>0</asrwt>
<pdfrwt beam="1">  1        1 0.29422787E+00 0.16048685E+04</pdfrwt>
<pdfrwt beam="2">  1       -2 0.51797452E-01 0.16048685E+04</pdfrwt>
<totfact> 0.10129595E+01</totfact>
</mgrwt>
</event>
<event>
12    5  0.5197392E-008  0.2271049E+04  0.7818608E-02  0.8489424E-01
         -2   -1    0    0    0  501 -0.00000000000E+00  0.00000000000E+00  0.91966355851E+03  0.91966355851E+03  0.00000000000E+00 0.  1.
          1   -1    0    0  501    0  0.00000000000E+00 -0.00000000000E+00 -0.14020520583E+04  0.14020520583E+04  0.00000000000E+00 0. -1.
        -24    2    1    2    0    0  0.90708517578E+03 -0.17117414953E+03 -0.45635589843E+03  0.10330543846E+04  0.82683432503E+02 0.  0.
        254    2    1    2    0    0 -0.90708517578E+03  0.17117414953E+03 -0.26032601352E+02  0.12886612322E+04  0.89881364552E+03 0.  0.
         23    2    4    4    0    0 -0.87687620165E+03  0.16153349151E+03  0.30291314198E+03  0.94602298999E+03  0.90543824150E+02 0.  0.
         23    2    4    4    0    0 -0.30208974122E+02  0.96406580175E+01 -0.32894574333E+03  0.34263824218E+03  0.90499384230E+02 0.  0.
          3    1    3    3  502    0  0.78643865032E+03 -0.16932937456E+03 -0.41713966047E+03  0.90618082309E+03  0.00000000000E+00 0. -1.
         -4    1    3    3    0  502  0.12064652546E+03 -0.18447749703E+01 -0.39216237955E+02  0.12687356154E+03  0.00000000000E+00 0.  1.
         13    1    5    5    0    0 -0.81637643506E+03  0.12874633039E+03  0.26781207579E+03  0.86877465965E+03  0.00000000000E+00 0. -1.
        -13    1    5    5    0    0 -0.60499766593E+02  0.32787161120E+02  0.35101066185E+02  0.77248330334E+02  0.00000000000E+00 0.  1.
          3    1    6    6  503    0 -0.21286445972E+01  0.26044239914E+02 -0.29300714602E+03  0.29417005486E+03  0.00000000000E+00 0. -1.
         -3    1    6    6    0  503 -0.28080329525E+02 -0.16403581896E+02 -0.35938597313E+02  0.48468187320E+02  0.00000000000E+00 0.  1.
<mgrwt>
<rscale>  0 0.22710493E+04</rscale>
<asrwt>0</asrwt>
<pdfrwt beam="1">  1        1 0.21570032E+00 0.22710493E+04</pdfrwt>
<pdfrwt beam="2">  1       -2 0.14148670E+00 0.22710493E+04</pdfrwt>
<totfact> 0.21281772E+00</totfact>
</mgrwt>
</event>
<event>
12    5  0.5197392E-008  0.1457712E+04  0.7818608E-02  0.8913071E-01
          1   -1    0    0  501    0  0.00000000000E+00  0.00000000000E+00  0.17771061223E+04  0.17771061223E+04  0.00000000000E+00 0. -1.
         -2   -1    0    0    0  501 -0.00000000000E+00 -0.00000000000E+00 -0.29893038034E+03  0.29893038034E+03  0.00000000000E+00 0.  1.
        -24    2    1    2    0    0  0.67625764911E+02  0.15811417979E+03 -0.13635545368E+03  0.23284080412E+03  0.77773339813E+02 0.  0.
        254    2    1    2    0    0 -0.67625764911E+02 -0.15811417979E+03  0.16145311956E+04  0.18431956985E+04  0.87240246641E+03 0.  0.
         23    2    4    4    0    0 -0.43903835066E+03 -0.11604235540E+03  0.11529827172E+04  0.12423729000E+04  0.88886303157E+02 0.  0.
         23    2    4    4    0    0  0.37141258575E+03 -0.42071824392E+02  0.46154847844E+03  0.60082279852E+03  0.90794768622E+02 0.  0.
          3    1    3    3  502    0 -0.32027401522E+01  0.29242592710E+02  0.38407693880E+01  0.29667124606E+02  0.00000000000E+00 0. -1.
         -2    1    3    3    0  502  0.70828505064E+02  0.12887158708E+03 -0.14019622306E+03  0.20317367952E+03  0.00000000000E+00 0.  1.
         13    1    5    5    0    0 -0.33423252209E+03 -0.12355217624E+03  0.92800779051E+03  0.99406990615E+03  0.00000000000E+00 0. -1.
        -13    1    5    5    0    0 -0.10480582857E+03  0.75098208380E+01  0.22497492665E+03  0.24830299380E+03  0.00000000000E+00 0.  1.
          2    1    6    6  503    0  0.32640832834E+01  0.80804441047E+01  0.54625130268E+00  0.87319074145E+01  0.00000000000E+00 0. -1.
         -2    1    6    6    0  503  0.36814850246E+03 -0.50152268497E+02  0.46100222714E+03  0.59209089111E+03  0.00000000000E+00 0.  1.
<mgrwt>
<rscale>  0 0.14577119E+04</rscale>
<asrwt>0</asrwt>
<pdfrwt beam="1">  1        1 0.27340093E+00 0.14577119E+04</pdfrwt>
<pdfrwt beam="2">  1       -2 0.45989291E-01 0.14577119E+04</pdfrwt>
<totfact> 0.16132706E+01</totfact>
</mgrwt>
</event>
<event>
12    5  0.5197392E-008  0.1880544E+04  0.7818608E-02  0.8664602E-01
          1   -1    0    0  501    0  0.00000000000E+00  0.00000000000E+00  0.19772243745E+04  0.19772243745E+04  0.00000000000E+00 0. -1.
         -2   -1    0    0    0  501 -0.00000000000E+00 -0.00000000000E+00 -0.44714783179E+03  0.44714783179E+03  0.00000000000E+00 0.  1.
        -24    2    1    2    0    0 -0.90810411817E+02 -0.38561897006E+03 -0.18728235543E+03  0.44572910924E+03  0.81555117596E+02 0.  0.
        254    2    1    2    0    0  0.90810411817E+02  0.38561897006E+03  0.17173588981E+04  0.19786430970E+04  0.89930995739E+03 0.  0.
         23    2    4    4    0    0 -0.51996494934E+02  0.50504255210E+03  0.16931502886E+04  0.17700159165E+04  0.91797766438E+02 0.  0.
         23    2    4    4    0    0  0.14280690675E+03 -0.11942358204E+03  0.24208609466E+02  0.20862718048E+03  0.91013400655E+02 0.  0.
          1    1    3    3  502    0 -0.44295681943E+02 -0.18671583018E+03 -0.13575013609E+03  0.23505958421E+03  0.00000000000E+00 0. -1.
         -2    1    3    3    0  502 -0.46514729874E+02 -0.19890313988E+03 -0.51532219344E+02  0.21066952504E+03  0.00000000000E+00 0.  1.
         13    1    5    5    0    0  0.35986938634E+01  0.32573010235E+03  0.11551469561E+04  0.12001989587E+04  0.00000000000E+00 0. -1.
        -13    1    5    5    0    0 -0.55595188797E+02  0.17931244975E+03  0.53800333253E+03  0.56981695786E+03  0.00000000000E+00 0.  1.
          3    1    6    6  503    0  0.70090933334E+02 -0.58615414729E+02 -0.33885143739E+02  0.97451058207E+02  0.00000000000E+00 0. -1.
         -3    1    6    6    0  503  0.72715973417E+02 -0.60808167313E+02  0.58093753205E+02  0.11117612227E+03  0.00000000000E+00 0.  1.
<mgrwt>
<rscale>  0 0.18805442E+04</rscale>
<asrwt>0</asrwt>
<pdfrwt beam="1">  1        1 0.30418836E+00 0.18805442E+04</pdfrwt>
<pdfrwt beam="2">  1       -2 0.68791975E-01 0.18805442E+04</pdfrwt>
<totfact> 0.49069862E+00</totfact>
</mgrwt>
</event>
<event>
12    5  0.5197392E-008  0.2478047E+04  0.7818608E-02  0.8410848E-01
         -2   -1    0    0    0  501 -0.00000000000E+00  0.00000000000E+00  0.55334591224E+03  0.55334591224E+03  0.00000000000E+00 0.  1.
          1   -1    0    0  501    0  0.00000000000E+00 -0.00000000000E+00 -0.27743573875E+04  0.27743573875E+04  0.00000000000E+00 0. -1.
        -24    2    1    2    0    0 -0.14378413212E+03  0.20431806719E+03 -0.23702030127E+04  0.23846408828E+04  0.78930788877E+02 0.  0.
        254    2    1    2    0    0  0.14378413212E+03 -0.20431806719E+03  0.14919153744E+03  0.94306241691E+03  0.89704451290E+03 0.  0.
         23    2    4    4    0    0 -0.20999403431E+03 -0.16382369766E+03 -0.26701727162E+03  0.38794492862E+03  0.90924946717E+02 0.  0.
         23    2    4    4    0    0  0.35377816643E+03 -0.40494369527E+02  0.41620880906E+03  0.55511748830E+03  0.90149143485E+02 0.  0.
          1    1    3    3  502    0 -0.14050166114E+03  0.19043734588E+03 -0.23298991018E+04  0.23418874704E+04  0.00000000000E+00 0. -1.
         -2    1    3    3    0  502 -0.32824709727E+01  0.13880721308E+02 -0.40303910844E+02  0.42753412367E+02  0.00000000000E+00 0.  1.
         13    1    5    5    0    0 -0.21770157536E+02 -0.26594780631E+02 -0.87034629056E+02  0.93574829793E+02  0.00000000000E+00 0.  1.
        -13    1    5    5    0    0 -0.18822387678E+03 -0.13722891703E+03 -0.17998264256E+03  0.29437009882E+03  0.00000000000E+00 0. -1.
          4    1    6    6  503    0  0.18433256129E+03 -0.51933101590E+02  0.17038299687E+03  0.25633163249E+03  0.00000000000E+00 0. -1.
         -4    1    6    6    0  503  0.16944560513E+03  0.11438732063E+02  0.24582581219E+03  0.29878585581E+03  0.00000000000E+00 0.  1.
<mgrwt>
<rscale>  0 0.24780471E+04</rscale>
<asrwt>0</asrwt>
<pdfrwt beam="1">  1        1 0.42682421E+00 0.24780471E+04</pdfrwt>
<pdfrwt beam="2">  1       -2 0.85130140E-01 0.24780471E+04</pdfrwt>
<totfact> 0.81664906E-01</totfact>
</mgrwt>
</event>
<event>
12    5  0.6012879E-008  0.2840718E+04  0.7818608E-02  0.8290737E-01
         -2   -1    0    0    0  501 -0.00000000000E+00  0.00000000000E+00  0.11478820543E+04  0.11478820543E+04  0.00000000000E+00 0.  1.
          1   -1    0    0  501    0  0.00000000000E+00 -0.00000000000E+00 -0.17575148958E+04  0.17575148958E+04  0.00000000000E+00 0. -1.
        -24    2    1    2    0    0  0.38574928494E+03 -0.16638840076E+03  0.94770619274E+03  0.10399369990E+04  0.82669966524E+02 0.  0.
        254    2    1    2    0    0 -0.38574928494E+03  0.16638840076E+03 -0.15573390342E+04  0.18654599512E+04  0.93709570010E+03 0.  0.
         23    2    4    4    0    0 -0.16517586776E+03  0.40796164878E+03 -0.24844492867E+03  0.51330936666E+03  0.89698657512E+02 0.  0.
         23    2    4    4    0    0 -0.22057341718E+03 -0.24157324801E+03 -0.13088941055E+04  0.13521505845E+04  0.89984204679E+02 0.  0.
          1    1    3    3  502    0  0.11948739168E+02 -0.25297678244E+02  0.77396901644E+02  0.82298391699E+02  0.00000000000E+00 0. -1.
         -2    1    3    3    0  502  0.37380054577E+03 -0.14109072252E+03  0.87030929110E+03  0.95763860729E+03  0.00000000000E+00 0.  1.
         13    1    5    5    0    0  0.73687550103E+01  0.16494165675E+01 -0.62492613913E+01  0.98016525827E+01  0.00000000000E+00 0. -1.
        -13    1    5    5    0    0 -0.17254462278E+03  0.40631223221E+03 -0.24219566728E+03  0.50350771408E+03  0.00000000000E+00 0.  1.
          2    1    6    6  503    0 -0.19245515661E+02  0.57028915127E+01 -0.92797997050E+02  0.94944094610E+02  0.00000000000E+00 0. -1.
         -2    1    6    6    0  503 -0.20132790151E+03 -0.24727613953E+03 -0.12160961085E+04  0.12572064899E+04  0.00000000000E+00 0.  1.
<mgrwt>
<rscale>  0 0.28407181E+04</rscale>
<asrwt>0</asrwt>
<pdfrwt beam="1">  1        1 0.27038691E+00 0.28407181E+04</pdfrwt>
<pdfrwt beam="2">  1       -2 0.17659724E+00 0.28407181E+04</pdfrwt>
<totfact> 0.63209846E-01</totfact>
</mgrwt>
</event>
<event>
12    5  0.5197392E-008  0.1982522E+04  0.7818608E-02  0.8614836E-01
          1   -1    0    0  501    0  0.00000000000E+00  0.00000000000E+00  0.10011225882E+04  0.10011225882E+04  0.00000000000E+00 0. -1.
         -4   -1    0    0    0  501 -0.00000000000E+00 -0.00000000000E+00 -0.98149701857E+03  0.98149701857E+03  0.00000000000E+00 0.  1.
        -24    2    1    2    0    0  0.38803535414E+03  0.29621466072E+03  0.62570028327E+03  0.79771161544E+03  0.80798611664E+02 0.  0.
        254    2    1    2    0    0 -0.38803535414E+03 -0.29621466072E+03 -0.60607471369E+03  0.11849079913E+04  0.89351319405E+03 0.  0.
         23    2    4    4    0    0 -0.39677368472E+03  0.23036646958E+03 -0.17990367248E+03  0.50103922672E+03  0.90426258079E+02 0.  0.
         23    2    4    4    0    0  0.87383305855E+01 -0.52658113031E+03 -0.42617104121E+03  0.68386876456E+03  0.93223846505E+02 0.  0.
          1    1    3    3  502    0  0.11966759398E+03  0.11039293369E+03  0.15417627255E+03  0.22422590367E+03  0.00000000000E+00 0. -1.
         -2    1    3    3    0  502  0.26836776016E+03  0.18582172703E+03  0.47152401072E+03  0.57348571178E+03  0.00000000000E+00 0.  1.
         13    1    5    5    0    0 -0.40157975152E+03  0.22873547478E+03 -0.17561788360E+03  0.49439645558E+03  0.00000000000E+00 0.  1.
        -13    1    5    5    0    0  0.48060667995E+01  0.16309948063E+01 -0.42857888763E+01  0.66427711410E+01  0.00000000000E+00 0. -1.
          2    1    6    6  503    0  0.11371100808E+02 -0.42395617291E+03 -0.38652568063E+03  0.57382073879E+03  0.00000000000E+00 0.  1.
         -2    1    6    6    0  503 -0.26327702226E+01 -0.10262495740E+03 -0.39645360584E+02  0.11004802577E+03  0.00000000000E+00 0. -1.
<mgrwt>
<rscale>  0 0.19825225E+04</rscale>
<asrwt>0</asrwt>
<pdfrwt beam="1">  1        1 0.15401886E+00 0.19825225E+04</pdfrwt>
<pdfrwt beam="2">  1       -4 0.15099954E+00 0.19825225E+04</pdfrwt>
<totfact> 0.19894152E+00</totfact>
</mgrwt>
</event>
<event>
12    5  0.5197392E-008  0.1505025E+04  0.7818608E-02  0.8881118E-01
         -2   -1    0    0    0  501 -0.00000000000E+00  0.00000000000E+00  0.49765650562E+03  0.49765650562E+03  0.00000000000E+00 0.  1.
          1   -1    0    0  501    0  0.00000000000E+00 -0.00000000000E+00 -0.11378828019E+04  0.11378828019E+04  0.00000000000E+00 0. -1.
        -24    2    1    2    0    0  0.32165745789E+03  0.85718068152E+02  0.15978000381E+03  0.37806788580E+03  0.81206953097E+02 0.  0.
        254    2    1    2    0    0 -0.32165745789E+03 -0.85718068152E+02 -0.80000630010E+03  0.12574714217E+04  0.91127009653E+03 0.  0.
         23    2    4    4    0    0 -0.23851277224E+03  0.38244458314E+03 -0.53449932973E+03  0.70492444429E+03  0.89870668093E+02 0.  0.
         23    2    4    4    0    0 -0.83144685653E+02 -0.46816265129E+03 -0.26550697037E+03  0.55254697743E+03  0.93407195310E+02 0.  0.
          3    1    3    3  502    0  0.52389356091E+02  0.42713355617E+00  0.57192286858E+02  0.77561490127E+02  0.00000000000E+00 0. -1.
         -4    1    3    3    0  502  0.26926810180E+03  0.85290934596E+02  0.10258771696E+03  0.30050639567E+03  0.00000000000E+00 0.  1.
         13    1    5    5    0    0 -0.69636117957E+02  0.52198801710E+02 -0.12621690727E+03  0.15331213750E+03  0.00000000000E+00 0. -1.
        -13    1    5    5    0    0 -0.16887665428E+03  0.33024578143E+03 -0.40828242246E+03  0.55161230679E+03  0.00000000000E+00 0.  1.
          2    1    6    6  503    0 -0.25994295342E+02 -0.66681032890E+02 -0.77709440488E+02  0.10564478538E+03  0.00000000000E+00 0. -1.
         -2    1    6    6    0  503 -0.57150390311E+02 -0.40148161840E+03 -0.18779752988E+03  0.44690219205E+03  0.00000000000E+00 0.  1.
<mgrwt>
<rscale>  0 0.15050246E+04</rscale>
<asrwt>0</asrwt>
<pdfrwt beam="1">  1        1 0.17505889E+00 0.15050246E+04</pdfrwt>
<pdfrwt beam="2">  1       -2 0.76562539E-01 0.15050246E+04</pdfrwt>
<totfact> 0.15360528E+01</totfact>
</mgrwt>
</event>
<event>
12    5  0.5197392E-008  0.1500782E+04  0.7818608E-02  0.8883933E-01
          1   -1    0    0  501    0  0.00000000000E+00  0.00000000000E+00  0.35696500224E+03  0.35696500224E+03  0.00000000000E+00 0. -1.
         -2   -1    0    0    0  501 -0.00000000000E+00 -0.00000000000E+00 -0.15774290992E+04  0.15774290992E+04  0.00000000000E+00 0.  1.
        -24    2    1    2    0    0 -0.25761162615E+03 -0.32052631114E+03 -0.66983953283E+03  0.79003752260E+03  0.79833710339E+02 0.  0.
        254    2    1    2    0    0  0.25761162615E+03  0.32052631114E+03 -0.55062456409E+03  0.11443565788E+04  0.91502114883E+03 0.  0.
         23    2    4    4    0    0  0.48474508730E+03  0.25516465654E+03 -0.18979203042E+02  0.55543717488E+03  0.89796678537E+02 0.  0.
         23    2    4    4    0    0 -0.22713346115E+03  0.65361654601E+02 -0.53164536105E+03  0.58891940393E+03  0.91200434905E+02 0.  0.
          3    1    3    3  502    0 -0.51856681942E+02 -0.33911168803E+02 -0.64908043165E+02  0.89733699907E+02  0.00000000000E+00 0. -1.
         -4    1    3    3    0  502 -0.20575494421E+03 -0.28661514234E+03 -0.60493148967E+03  0.70030382269E+03  0.00000000000E+00 0.  1.
         13    1    5    5    0    0  0.10280484989E+03  0.22229219075E+02  0.17331213468E+02  0.10659899766E+03  0.00000000000E+00 0. -1.
        -13    1    5    5    0    0  0.38194023742E+03  0.23293543746E+03 -0.36310416511E+02  0.44883817722E+03  0.00000000000E+00 0.  1.
          3    1    6    6  503    0 -0.22286995963E+03  0.63909737138E+02 -0.53514770540E+03  0.58321397446E+03  0.00000000000E+00 0.  1.
         -3    1    6    6    0  503 -0.42635015199E+01  0.14519174633E+01  0.35023443466E+01  0.57054294713E+01  0.00000000000E+00 0. -1.
<mgrwt>
<rscale>  0 0.15007824E+04</rscale>
<asrwt>0</asrwt>
<pdfrwt beam="1">  1        1 0.54917693E-01 0.15007824E+04</pdfrwt>
<pdfrwt beam="2">  1       -2 0.24268140E+00 0.15007824E+04</pdfrwt>
<totfact> 0.42062628E+00</totfact>
</mgrwt>
</event>
<event>
12    5  0.5197392E-008  0.1892516E+04  0.7818608E-02  0.8658590E-01
          3   -1    0    0  501    0  0.00000000000E+00  0.00000000000E+00  0.12697413363E+04  0.12697413363E+04  0.00000000000E+00 0. -1.
         -4   -1    0    0    0  501 -0.00000000000E+00 -0.00000000000E+00 -0.70518653293E+03  0.70518653293E+03  0.00000000000E+00 0.  1.
        -24    2    1    2    0    0 -0.36913167677E+03 -0.10602515635E+03 -0.42776927845E+03  0.58047738417E+03  0.80423313641E+02 0.  0.
        254    2    1    2    0    0  0.36913167677E+03  0.10602515635E+03  0.99232408179E+03  0.13944504850E+04  0.90126885184E+03 0.  0.
         23    2    4    4    0    0  0.18469950882E+02  0.45861830070E+03  0.39731929741E+03  0.61390642667E+03  0.91359683601E+02 0.  0.
         23    2    4    4    0    0  0.35066172588E+03 -0.35259314435E+03  0.59500478438E+03  0.78054405836E+03  0.89066054994E+02 0.  0.
          3    1    3    3  502    0 -0.23402929445E+03 -0.70145569825E+02 -0.21247351246E+03  0.32378249663E+03  0.00000000000E+00 0. -1.
         -4    1    3    3    0  502 -0.13510238232E+03 -0.35879586523E+02 -0.21529576599E+03  0.25669488754E+03  0.00000000000E+00 0.  1.
         13    1    5    5    0    0  0.18228043207E+02  0.35350875041E+02  0.12064137608E+02  0.41563076661E+02  0.00000000000E+00 0.  1.
        -13    1    5    5    0    0  0.24190767522E+00  0.42326742566E+03  0.38525515980E+03  0.57234335000E+03  0.00000000000E+00 0. -1.
          2    1    6    6  503    0  0.19592207725E+03 -0.21137944646E+03  0.27704129361E+03  0.39977319708E+03  0.00000000000E+00 0. -1.
         -2    1    6    6    0  503  0.15473964864E+03 -0.14121369789E+03  0.31796349077E+03  0.38077086127E+03  0.00000000000E+00 0.  1.
<mgrwt>
<rscale>  0 0.18925163E+04</rscale>
<asrwt>0</asrwt>
<pdfrwt beam="1">  1        3 0.19534482E+00 0.18925163E+04</pdfrwt>
<pdfrwt beam="2">  1       -4 0.10849024E+00 0.18925163E+04</pdfrwt>
<totfact> 0.22952937E-01</totfact>
</mgrwt>
</event>
<event>
12    5  0.5197392E-008  0.2613827E+04  0.7818608E-02  0.8363520E-01
          1   -1    0    0  501    0  0.00000000000E+00  0.00000000000E+00  0.15959817506E+04  0.15959817506E+04  0.00000000000E+00 0. -1.
         -2   -1    0    0    0  501 -0.00000000000E+00 -0.00000000000E+00 -0.10702021217E+04  0.10702021217E+04  0.00000000000E+00 0.  1.
        -24    2    1    2    0    0 -0.19092222232E+03 -0.37681328182E+03 -0.85583146779E+03  0.95767379580E+03  0.79069928351E+02 0.  0.
        254    2    1    2    0    0  0.19092222232E+03  0.37681328182E+03  0.13816110967E+04  0.17085100765E+04  0.91198569885E+03 0.  0.
         23    2    4    4    0    0  0.69439546125E+02  0.39081503029E+03  0.10194331759E+03  0.41980010458E+03  0.91002468851E+02 0.  0.
         23    2    4    4    0    0  0.12148267620E+03 -0.14001748469E+02  0.12796677791E+04  0.12887099720E+04  0.90937767011E+02 0.  0.
          1    1    3    3  502    0 -0.75979465268E+01  0.28049926898E+01 -0.19018977499E+02  0.20671678222E+02  0.00000000000E+00 0. -1.
         -2    1    3    3    0  502 -0.18332427580E+03 -0.37961827451E+03 -0.83681249029E+03  0.93700211758E+03  0.00000000000E+00 0.  1.
         13    1    5    5    0    0  0.52766725167E+02  0.81386169904E+02  0.16812480062E+02  0.98441329848E+02  0.00000000000E+00 0. -1.
        -13    1    5    5    0    0  0.16672820959E+02  0.30942886039E+03  0.85130837524E+02  0.32135877473E+03  0.00000000000E+00 0.  1.
          4    1    6    6  503    0  0.89167121550E+02  0.11284043702E+02  0.50354926906E+03  0.51150754792E+03  0.00000000000E+00 0.  1.
         -4    1    6    6    0  503  0.32315554648E+02 -0.25285792172E+02  0.77611851001E+03  0.77720242404E+03  0.00000000000E+00 0. -1.
<mgrwt>
<rscale>  0 0.26138271E+04</rscale>
<asrwt>0</asrwt>
<pdfrwt beam="1">  1        1 0.24553565E+00 0.26138271E+04</pdfrwt>
<pdfrwt beam="2">  1       -2 0.16464648E+00 0.26138271E+04</pdfrwt>
<totfact> 0.10105413E+00</totfact>
</mgrwt>
</event>
<event>
12    5  0.5197392E-008  0.2339854E+04  0.7818608E-02  0.8462371E-01
          1   -1    0    0  501    0  0.00000000000E+00  0.00000000000E+00  0.19737808396E+04  0.19737808396E+04  0.00000000000E+00 0. -1.
         -2   -1    0    0    0  501 -0.00000000000E+00 -0.00000000000E+00 -0.69345574234E+03  0.69345574234E+03  0.00000000000E+00 0.  1.
        -24    2    1    2    0    0  0.30971990383E+03  0.51355745591E+03  0.14329636840E+04  0.15554444271E+04  0.79716790873E+02 0.  0.
        254    2    1    2    0    0 -0.30971990383E+03 -0.51355745591E+03 -0.15263858670E+03  0.11117921549E+04  0.92364255976E+03 0.  0.
         23    2    4    4    0    0 -0.23013898616E+03 -0.21599536850E+03  0.37205213884E+03  0.49616049431E+03  0.90191407226E+02 0.  0.
         23    2    4    4    0    0 -0.79580917674E+02 -0.29756208741E+03 -0.52469072554E+03  0.61563166059E+03  0.93945014360E+02 0.  0.
          1    1    3    3  502    0  0.27631836732E+03  0.48886052682E+03  0.12988145486E+04  0.14150108433E+04  0.00000000000E+00 0. -1.
         -2    1    3    3    0  502  0.33401536506E+02  0.24696929089E+02  0.13414913532E+03  0.14043358378E+03  0.00000000000E+00 0.  1.
         13    1    5    5    0    0 -0.17183669529E+03 -0.20660101068E+03  0.31498981181E+03  0.41404155468E+03  0.00000000000E+00 0.  1.
        -13    1    5    5    0    0 -0.58302290869E+02 -0.93943578183E+01  0.57062327038E+02  0.82118939632E+02  0.00000000000E+00 0. -1.
          2    1    6    6  503    0 -0.35623085922E+02 -0.16435123019E+03 -0.19598163025E+03  0.25824238713E+03  0.00000000000E+00 0. -1.
         -2    1    6    6    0  503 -0.43957831752E+02 -0.13321085723E+03 -0.32870909529E+03  0.35738927346E+03  0.00000000000E+00 0.  1.
<mgrwt>
<rscale>  0 0.23398544E+04</rscale>
<asrwt>0</asrwt>
<pdfrwt beam="1">  1        1 0.30365859E+00 0.23398544E+04</pdfrwt>
<pdfrwt beam="2">  1       -2 0.10668550E+00 0.23398544E+04</pdfrwt>
<totfact> 0.17381175E+00</totfact>
</mgrwt>
</event>
<event>
12    5  0.5197392E-008  0.1977565E+04  0.7818608E-02  0.8617182E-01
         -2   -1    0    0    0  501 -0.00000000000E+00  0.00000000000E+00  0.52506910907E+03  0.52506910907E+03  0.00000000000E+00 0.  1.
          1   -1    0    0  501    0  0.00000000000E+00 -0.00000000000E+00 -0.18620239003E+04  0.18620239003E+04  0.00000000000E+00 0. -1.
        -24    2    1    2    0    0  0.55209593527E+03 -0.44893413478E+03 -0.92980696593E+03  0.11736955997E+04  0.81661421095E+02 0.  0.
        254    2    1    2    0    0 -0.55209593527E+03  0.44893413478E+03 -0.40714782532E+03  0.12133974097E+04  0.89454577477E+03 0.  0.
         23    2    4    4    0    0 -0.55943226128E+03  0.49921336603E+03  0.38073563439E+02  0.75596754176E+03  0.88650370393E+02 0.  0.
         23    2    4    4    0    0  0.73363260117E+01 -0.50279231252E+02 -0.44522138876E+03  0.45742986797E+03  0.91859546735E+02 0.  0.
          3    1    3    3  502    0  0.53984593444E+03 -0.44017439983E+03 -0.88385324351E+03  0.11253371456E+04  0.00000000000E+00 0. -1.
         -4    1    3    3    0  502  0.12250000828E+02 -0.87597349494E+01 -0.45953722414E+02  0.48358454073E+02  0.00000000000E+00 0.  1.
         13    1    5    5    0    0 -0.19314792740E+03  0.22306412631E+03 -0.60863939512E+01  0.29512839663E+03  0.00000000000E+00 0. -1.
        -13    1    5    5    0    0 -0.36628433388E+03  0.27614923972E+03  0.44159957390E+02  0.46083914513E+03  0.00000000000E+00 0.  1.
          4    1    6    6  503    0 -0.34041205916E+02 -0.47651924835E+02 -0.18866455988E+03  0.19754449068E+03  0.00000000000E+00 0. -1.
         -4    1    6    6    0  503  0.41377531928E+02 -0.26273064177E+01 -0.25655682888E+03  0.25988537729E+03  0.00000000000E+00 0.  1.
<mgrwt>
<rscale>  0 0.19775654E+04</rscale>
<asrwt>0</asrwt>
<pdfrwt beam="1">  1        1 0.28646522E+00 0.19775654E+04</pdfrwt>
<pdfrwt beam="2">  1       -2 0.80779862E-01 0.19775654E+04</pdfrwt>
<totfact> 0.40806375E+00</totfact>
</mgrwt>
</event>
<event>
12    5  0.5197392E-008  0.2190955E+04  0.7818608E-02  0.8522202E-01
         -2   -1    0    0    0  501 -0.00000000000E+00  0.00000000000E+00  0.81935811381E+03  0.81935811381E+03  0.00000000000E+00 0.  1.
          1   -1    0    0  501    0  0.00000000000E+00 -0.00000000000E+00 -0.14646478762E+04  0.14646478762E+04  0.00000000000E+00 0. -1.
        -24    2    1    2    0    0  0.66039643382E+03 -0.24948244238E+03  0.32866320216E+03  0.78277302764E+03  0.79681701043E+02 0.  0.
        254    2    1    2    0    0 -0.66039643382E+03  0.24948244238E+03 -0.97395296458E+03  0.15012329624E+04  0.89819323718E+03 0.  0.
         23    2    4    4    0    0 -0.18769213832E+03 -0.32035712824E+03 -0.44353320192E+03  0.58599492903E+03  0.93868670219E+02 0.  0.
         23    2    4    4    0    0 -0.47270429551E+03  0.56983957062E+03 -0.53041976266E+03  0.91523803337E+03  0.90272065793E+02 0.  0.
          1    1    3    3  502    0  0.27395958718E+02 -0.20553251076E+02  0.13219636887E+01  0.34274221681E+02  0.00000000000E+00 0. -1.
         -2    1    3    3    0  502  0.63300047510E+03 -0.22892919130E+03  0.32734123847E+03  0.74849880596E+03  0.00000000000E+00 0.  1.
         13    1    5    5    0    0  0.58171044512E+01 -0.40695438380E+02 -0.67084210250E+02  0.78678133391E+02  0.00000000000E+00 0. -1.
        -13    1    5    5    0    0 -0.19350924277E+03 -0.27966168986E+03 -0.37644899167E+03  0.50731679564E+03  0.00000000000E+00 0.  1.
          1    1    6    6  503    0 -0.18715517680E+03  0.20279222237E+03 -0.14791388417E+03  0.31309784858E+03  0.00000000000E+00 0. -1.
         -1    1    6    6    0  503 -0.28554911871E+03  0.36704734826E+03 -0.38250587849E+03  0.60214018479E+03  0.00000000000E+00 0.  1.
<mgrwt>
<rscale>  0 0.21909552E+04</rscale>
<asrwt>0</asrwt>
<pdfrwt beam="1">  1        1 0.22533044E+00 0.21909552E+04</pdfrwt>
<pdfrwt beam="2">  1       -2 0.12605510E+00 0.21909552E+04</pdfrwt>
<totfact> 0.26031047E+00</totfact>
</mgrwt>
</event>
<event>
12    5  0.5197392E-008  0.1530080E+04  0.7818608E-02  0.8864693E-01
          1   -1    0    0  501    0  0.00000000000E+00  0.00000000000E+00  0.96251426173E+03  0.96251426173E+03  0.00000000000E+00 0. -1.
         -2   -1    0    0    0  501 -0.00000000000E+00 -0.00000000000E+00 -0.60808089819E+03  0.60808089819E+03  0.00000000000E+00 0.  1.
        -24    2    1    2    0    0  0.39641769734E+03 -0.25428576262E+03 -0.36327265140E+02  0.47960099599E+03  0.83001236851E+02 0.  0.
        254    2    1    2    0    0 -0.39641769734E+03  0.25428576262E+03  0.39076062868E+03  0.10909941639E+04  0.90319773969E+03 0.  0.
         23    2    4    4    0    0  0.13609724465E+03 -0.22771603658E+03  0.27436046652E+02  0.28177421435E+03  0.90922592912E+02 0.  0.
         23    2    4    4    0    0 -0.53251494199E+03  0.48200179920E+03  0.36332458203E+03  0.80921994959E+03  0.83272306510E+02 0.  0.
          3    1    3    3  502    0  0.38456087397E+03 -0.23585747144E+03 -0.18762848175E+02  0.45151728327E+03  0.00000000000E+00 0. -1.
         -4    1    3    3    0  502  0.11856823375E+02 -0.18428291189E+02 -0.17564416965E+02  0.28083712718E+02  0.00000000000E+00 0.  1.
         13    1    5    5    0    0 -0.67218703496E+01 -0.39299414423E+02  0.21442559613E+02  0.45270419456E+02  0.00000000000E+00 0. -1.
        -13    1    5    5    0    0  0.14281911500E+03 -0.18841662215E+03  0.59934870394E+01  0.23650379489E+03  0.00000000000E+00 0.  1.
          1    1    6    6  503    0 -0.45098760948E+02  0.24200841668E+02  0.74471581408E+01  0.51720780551E+02  0.00000000000E+00 0. -1.
         -1    1    6    6    0  503 -0.48741618104E+03  0.45780095753E+03  0.35587742389E+03  0.75749916904E+03  0.00000000000E+00 0.  1.
<mgrwt>
<rscale>  0 0.15300804E+04</rscale>
<asrwt>0</asrwt>
<pdfrwt beam="1">  1        1 0.14807912E+00 0.15300804E+04</pdfrwt>
<pdfrwt beam="2">  1       -2 0.93550908E-01 0.15300804E+04</pdfrwt>
<totfact> 0.13236918E+01</totfact>
</mgrwt>
</event>
<event>
12    5  0.5197392E-008  0.1669839E+04  0.7818608E-02  0.8778756E-01
          1   -1    0    0  501    0  0.00000000000E+00  0.00000000000E+00  0.10099420439E+04  0.10099420439E+04  0.00000000000E+00 0. -1.
         -2   -1    0    0    0  501 -0.00000000000E+00 -0.00000000000E+00 -0.69022796244E+03  0.69022796244E+03  0.00000000000E+00 0.  1.
        -24    2    1    2    0    0 -0.55204696380E+03 -0.17912064367E+03  0.53017978489E+02  0.58886254604E+03  0.84309767231E+02 0.  0.
        254    2    1    2    0    0  0.55204696380E+03  0.17912064367E+03  0.26669610294E+03  0.11113074603E+04  0.90941596902E+03 0.  0.
         23    2    4    4    0    0  0.42468058654E+03  0.44147968336E+03  0.44180269810E+03  0.76031848310E+03  0.87387987120E+02 0.  0.
         23    2    4    4    0    0  0.12736637726E+03 -0.26235903969E+03 -0.17510659515E+03  0.35098897717E+03  0.86466656396E+02 0.  0.
          3    1    3    3  502    0 -0.15039277524E+03 -0.87853824031E+02  0.25772245275E+02  0.17606955974E+03  0.00000000000E+00 0. -1.
         -4    1    3    3    0  502 -0.40165418856E+03 -0.91266819639E+02  0.27245733214E+02  0.41279298629E+03  0.00000000000E+00 0.  1.
         13    1    5    5    0    0  0.15954151354E+02  0.50140947936E+02  0.44395841395E+02  0.68845045853E+02  0.00000000000E+00 0.  1.
        -13    1    5    5    0    0  0.40872643519E+03  0.39133873542E+03  0.39740685670E+03  0.69147343725E+03  0.00000000000E+00 0. -1.
          3    1    6    6  503    0  0.91472294949E+02 -0.21152446615E+03 -0.17397168605E+03  0.28874890142E+03  0.00000000000E+00 0. -1.
         -3    1    6    6    0  503  0.35894082308E+02 -0.50834573536E+02 -0.11349091090E+01  0.62240075755E+02  0.00000000000E+00 0.  1.
<mgrwt>
<rscale>  0 0.16698386E+04</rscale>
<asrwt>0</asrwt>
<pdfrwt beam="1">  1        1 0.15537570E+00 0.16698386E+04</pdfrwt>
<pdfrwt beam="2">  1       -2 0.10618892E+00 0.16698386E+04</pdfrwt>
<totfact> 0.88933436E+00</totfact>
</mgrwt>
</event>
<event>
12    5  0.5197392E-008  0.1711132E+04  0.7818608E-02  0.8755041E-01
         -2   -1    0    0    0  501 -0.00000000000E+00  0.00000000000E+00  0.38647352593E+03  0.38647352593E+03  0.00000000000E+00 0.  1.
          1   -1    0    0  501    0  0.00000000000E+00 -0.00000000000E+00 -0.18940314799E+04  0.18940314799E+04  0.00000000000E+00 0. -1.
        -24    2    1    2    0    0  0.28289150533E+03  0.56290027181E+02  0.17018029337E+03  0.34437610998E+03  0.80233421511E+02 0.  0.
        254    2    1    2    0    0 -0.28289150533E+03 -0.56290027181E+02 -0.16777382473E+04  0.19361288958E+04  0.92227615374E+03 0.  0.
         23    2    4    4    0    0 -0.58879802875E+03  0.10283328049E+03 -0.95728166389E+03  0.11322006583E+04  0.90732268102E+02 0.  0.
         23    2    4    4    0    0  0.30590652341E+03 -0.15912330767E+03 -0.72045658342E+03  0.80392823748E+03  0.91344919469E+02 0.  0.
          1    1    3    3  502    0  0.13930316220E+03 -0.12692658370E+02  0.85998520353E+02  0.16420176637E+03  0.00000000000E+00 0. -1.
         -2    1    3    3    0  502  0.14358834313E+03  0.68982685551E+02  0.84181773014E+02  0.18017434361E+03  0.00000000000E+00 0.  1.
         13    1    5    5    0    0 -0.16607022580E+03  0.55875553078E+02 -0.34121297947E+03  0.38357228091E+03  0.00000000000E+00 0.  1.
        -13    1    5    5    0    0 -0.42272780295E+03  0.46957727413E+02 -0.61606868442E+03  0.74862837742E+03  0.00000000000E+00 0. -1.
          1    1    6    6  503    0  0.22387289522E+03 -0.10884052049E+03 -0.41769453129E+03  0.48624484942E+03  0.00000000000E+00 0. -1.
         -1    1    6    6    0  503  0.82033628193E+02 -0.50282787182E+02 -0.30276205213E+03  0.31768338806E+03  0.00000000000E+00 0.  1.
<mgrwt>
<rscale>  0 0.17111318E+04</rscale>
<asrwt>0</asrwt>
<pdfrwt beam="1">  1        1 0.29138946E+00 0.17111318E+04</pdfrwt>
<pdfrwt beam="2">  1       -2 0.59457465E-01 0.17111318E+04</pdfrwt>
<totfact> 0.77507543E+00</totfact>
</mgrwt>
</event>
<event>
12    5  0.5197392E-008  0.1371082E+04  0.7818608E-02  0.8975021E-01
          1   -1    0    0  501    0  0.00000000000E+00  0.00000000000E+00  0.12804369016E+04  0.12804369016E+04  0.00000000000E+00 0. -1.
         -2   -1    0    0    0  501 -0.00000000000E+00 -0.00000000000E+00 -0.36703625873E+03  0.36703625873E+03  0.00000000000E+00 0.  1.
        -24    2    1    2    0    0  0.15249620765E+03 -0.31609694761E+03  0.43623753899E+03  0.56531889987E+03  0.78165814095E+02 0.  0.
        254    2    1    2    0    0 -0.15249620765E+03  0.31609694761E+03  0.47716310386E+03  0.10821542604E+04  0.90564940351E+03 0.  0.
         23    2    4    4    0    0  0.24952843744E+03  0.12978484223E+03 -0.12994037295E+03  0.32509519390E+03  0.98457291309E+02 0.  0.
         23    2    4    4    0    0 -0.40202464509E+03  0.18631210537E+03  0.60710347681E+03  0.75705906654E+03  0.90707126589E+02 0.  0.
          1    1    3    3  502    0  0.12562349038E+03 -0.30211091637E+03  0.38007656642E+03  0.50150818883E+03  0.00000000000E+00 0. -1.
         -2    1    3    3    0  502  0.26872717268E+02 -0.13986031239E+02  0.56160972571E+02  0.63810711039E+02  0.00000000000E+00 0.  1.
         13    1    5    5    0    0  0.18695692826E+03  0.13439818831E+03 -0.12541198116E+03  0.26219063878E+03  0.00000000000E+00 0. -1.
        -13    1    5    5    0    0  0.62571509173E+02 -0.46133460771E+01 -0.45283917870E+01  0.62904555117E+02  0.00000000000E+00 0.  1.
          3    1    6    6  503    0 -0.39843592212E+03  0.17834988779E+03  0.60777657826E+03  0.74829956274E+03  0.00000000000E+00 0. -1.
         -3    1    6    6    0  503 -0.35887229659E+01  0.79622175830E+01 -0.67310144958E+00  0.87595038059E+01  0.00000000000E+00 0.  1.
<mgrwt>
<rscale>  0 0.13710824E+04</rscale>
<asrwt>0</asrwt>
<pdfrwt beam="1">  1        1 0.19699029E+00 0.13710824E+04</pdfrwt>
<pdfrwt beam="2">  1       -2 0.56467117E-01 0.13710824E+04</pdfrwt>
<totfact> 0.23566273E+01</totfact>
</mgrwt>
</event>
<event>
12    5  0.5197392E-008  0.1213888E+04  0.7818608E-02  0.9100787E-01
         -2   -1    0    0    0  501 -0.00000000000E+00  0.00000000000E+00  0.83964707565E+03  0.83964707565E+03  0.00000000000E+00 0.  1.
          1   -1    0    0  501    0  0.00000000000E+00 -0.00000000000E+00 -0.43873294217E+03  0.43873294217E+03  0.00000000000E+00 0. -1.
        -24    2    1    2    0    0  0.19867932274E+03 -0.14741009319E+03 -0.28677892713E+01  0.25996488304E+03  0.79814205156E+02 0.  0.
        254    2    1    2    0    0 -0.19867932274E+03  0.14741009319E+03  0.40378192276E+03  0.10184151348E+04  0.90162427692E+03 0.  0.
         23    2    4    4    0    0 -0.49267352319E+03 -0.76671957440E+02  0.38978364409E+03  0.63918611791E+03  0.89564583498E+02 0.  0.
         23    2    4    4    0    0  0.29399420045E+03  0.22408205063E+03  0.13998278669E+02  0.37922901687E+03  0.83506527408E+02 0.  0.
          3    1    3    3  502    0  0.19063171749E+03 -0.15505930800E+03 -0.11349183295E+02  0.24599318014E+03  0.00000000000E+00 0. -1.
         -4    1    3    3    0  502  0.80476052451E+01  0.76492148189E+01  0.84813940236E+01  0.13971702907E+02  0.00000000000E+00 0.  1.
         13    1    5    5    0    0 -0.48161500778E+03 -0.80308118826E+02  0.39336409329E+03  0.62700695336E+03  0.00000000000E+00 0.  1.
        -13    1    5    5    0    0 -0.11058515404E+02  0.36361613855E+01 -0.35804492014E+01  0.12179164546E+02  0.00000000000E+00 0. -1.
          2    1    6    6  503    0  0.20504479840E+02  0.11088924268E+02 -0.20274125400E+02  0.30893981544E+02  0.00000000000E+00 0. -1.
         -2    1    6    6    0  503  0.27348972061E+03  0.21299312636E+03  0.34272404068E+02  0.34833503533E+03  0.00000000000E+00 0.  1.
<mgrwt>
<rscale>  0 0.12138877E+04</rscale>
<asrwt>0</asrwt>
<pdfrwt beam="1">  1        1 0.67497376E-01 0.12138877E+04</pdfrwt>
<pdfrwt beam="2">  1       -2 0.12917647E+00 0.12138877E+04</pdfrwt>
<totfact> 0.20199785E+01</totfact>
</mgrwt>
</event>
<event>
12    5  0.5197392E-008  0.3110587E+04  0.7818608E-02  0.8212838E-01
          1   -1    0    0  501    0  0.00000000000E+00  0.00000000000E+00  0.32958993163E+04  0.32958993163E+04  0.00000000000E+00 0. -1.
         -2   -1    0    0    0  501 -0.00000000000E+00 -0.00000000000E+00 -0.73392340857E+03  0.73392340857E+03  0.00000000000E+00 0.  1.
        -24    2    1    2    0    0  0.53558215082E+03  0.39881920590E+03  0.28032003466E+04  0.28829132334E+04  0.85741057573E+02 0.  0.
        254    2    1    2    0    0 -0.53558215082E+03 -0.39881920590E+03 -0.24122443892E+03  0.11469094914E+04  0.90072590296E+03 0.  0.
         23    2    4    4    0    0 -0.21879007771E+03 -0.24038848646E+03 -0.56492657607E+03  0.65852688811E+03  0.94127060375E+02 0.  0.
         23    2    4    4    0    0 -0.31679207312E+03 -0.15843071943E+03  0.32370213715E+03  0.48838260329E+03  0.90977926736E+02 0.  0.
          3    1    3    3  502    0  0.52869613518E+03  0.37819197050E+03  0.26726984102E+04  0.27506118522E+04  0.00000000000E+00 0. -1.
         -4    1    3    3    0  502  0.68860156439E+01  0.20627235400E+02  0.13050193645E+03  0.13230138121E+03  0.00000000000E+00 0.  1.
         13    1    5    5    0    0 -0.95421242792E+01 -0.25357639911E+02 -0.12411159032E+02  0.29800988342E+02  0.00000000000E+00 0. -1.
        -13    1    5    5    0    0 -0.20924795343E+03 -0.21503084655E+03 -0.55251541703E+03  0.62872589977E+03  0.00000000000E+00 0.  1.
          1    1    6    6  503    0 -0.65965074742E+02 -0.72524467055E+02  0.62902538638E+02  0.11648140957E+03  0.00000000000E+00 0. -1.
         -1    1    6    6    0  503 -0.25082699837E+03 -0.85906252380E+02  0.26079959851E+03  0.37190119372E+03  0.00000000000E+00 0.  1.
<mgrwt>
<rscale>  0 0.31105869E+04</rscale>
<asrwt>0</asrwt>
<pdfrwt beam="1">  1        1 0.50706142E+00 0.31105869E+04</pdfrwt>
<pdfrwt beam="2">  1       -2 0.11291130E+00 0.31105869E+04</pdfrwt>
<totfact> 0.16445931E-01</totfact>
</mgrwt>
</event>
<event>
12    5  0.5197392E-008  0.4190091E+04  0.7818608E-02  0.7967260E-01
          1   -1    0    0  501    0  0.00000000000E+00  0.00000000000E+00  0.20756328228E+04  0.20756328228E+04  0.00000000000E+00 0. -1.
         -2   -1    0    0    0  501 -0.00000000000E+00 -0.00000000000E+00 -0.21146396213E+04  0.21146396213E+04  0.00000000000E+00 0.  1.
        -24    2    1    2    0    0  0.38615979202E+03 -0.12392394245E+03 -0.19752947453E+04  0.20186262900E+04  0.92661963047E+02 0.  0.
        254    2    1    2    0    0 -0.38615979202E+03  0.12392394245E+03  0.19362879468E+04  0.21716461541E+04  0.89574520770E+03 0.  0.
         23    2    4    4    0    0 -0.64818876654E+03  0.21450585054E+03  0.14287082128E+04  0.15861001441E+04  0.91351369723E+02 0.  0.
         23    2    4    4    0    0  0.26202897452E+03 -0.90581908092E+02  0.50757973400E+03  0.58554601000E+03  0.91447678448E+02 0.  0.
          3    1    3    3  502    0  0.96791399429E+02 -0.74657990258E+02 -0.55018212411E+03  0.56359804844E+03  0.00000000000E+00 0. -1.
         -4    1    3    3    0  502  0.28936839260E+03 -0.49265952187E+02 -0.14251126212E+04  0.14550282416E+04  0.00000000000E+00 0.  1.
         13    1    5    5    0    0 -0.38027307267E+03  0.11790509796E+03  0.72860055340E+03  0.83028187282E+03  0.00000000000E+00 0. -1.
        -13    1    5    5    0    0 -0.26791569388E+03  0.96600752579E+02  0.70010765938E+03  0.75581827124E+03  0.00000000000E+00 0.  1.
          3    1    6    6  503    0  0.10718979238E+03 -0.46539014614E+02  0.30613448641E+03  0.32767950079E+03  0.00000000000E+00 0. -1.
         -3    1    6    6    0  503  0.15483918214E+03 -0.44042893479E+02  0.20144524760E+03  0.25786650921E+03  0.00000000000E+00 0.  1.
<mgrwt>
<rscale>  0 0.41900909E+04</rscale>
<asrwt>0</asrwt>
<pdfrwt beam="1">  1        1 0.31932813E+00 0.41900909E+04</pdfrwt>
<pdfrwt beam="2">  1       -2 0.32532917E+00 0.41900909E+04</pdfrwt>
<totfact> 0.39794038E-02</totfact>
</mgrwt>
</event>
<event>
12    5  0.5197392E-008  0.1399770E+04  0.7818608E-02  0.8953985E-01
         -2   -1    0    0    0  501 -0.00000000000E+00  0.00000000000E+00  0.18018982845E+03  0.18018982845E+03  0.00000000000E+00 0.  1.
          1   -1    0    0  501    0  0.00000000000E+00 -0.00000000000E+00 -0.27184615635E+04  0.27184615635E+04  0.00000000000E+00 0. -1.
        -24    2    1    2    0    0 -0.21237979686E+03  0.21409599793E+03 -0.33339120725E+03  0.45684835337E+03  0.81353834931E+02 0.  0.
        254    2    1    2    0    0  0.21237979686E+03 -0.21409599793E+03 -0.22048805278E+04  0.24418030386E+04  0.10049684885E+04 0.  0.
         23    2    4    4    0    0  0.47476523676E+03 -0.46477316879E+03 -0.13325022450E+04  0.14918350355E+04  0.92700657379E+02 0.  0.
         23    2    4    4    0    0 -0.26238543989E+03  0.25067717086E+03 -0.87237828280E+03  0.94996800304E+03  0.98540222438E+02 0.  0.
          3    1    3    3  502    0 -0.41967240402E+02  0.26547471325E+02 -0.10308211123E+03  0.11442001205E+03  0.00000000000E+00 0. -1.
         -4    1    3    3    0  502 -0.17041255646E+03  0.18754852661E+03 -0.23030909602E+03  0.34242834132E+03  0.00000000000E+00 0.  1.
         13    1    5    5    0    0  0.42005869735E+03 -0.41523777307E+03 -0.12400900680E+04  0.13735701999E+04  0.00000000000E+00 0. -1.
        -13    1    5    5    0    0  0.54706539409E+02 -0.49535395721E+02 -0.92412177020E+02  0.11826483562E+03  0.00000000000E+00 0.  1.
          3    1    6    6  503    0 -0.25364707403E+03  0.25534581774E+03 -0.80409081421E+03  0.88096558520E+03  0.00000000000E+00 0. -1.
         -3    1    6    6    0  503 -0.87383658659E+01 -0.46686468852E+01 -0.68287468590E+02  0.69002417843E+02  0.00000000000E+00 0.  1.
<mgrwt>
<rscale>  0 0.13997702E+04</rscale>
<asrwt>0</asrwt>
<pdfrwt beam="1">  1        1 0.41822483E+00 0.13997702E+04</pdfrwt>
<pdfrwt beam="2">  1       -2 0.27721514E-01 0.13997702E+04</pdfrwt>
<totfact> 0.97324209E+00</totfact>
</mgrwt>
</event>
<event>
12    5  0.5197392E-008  0.1162935E+04  0.7818608E-02  0.9145932E-01
          1   -1    0    0  501    0  0.00000000000E+00  0.00000000000E+00  0.25189131598E+04  0.25189131598E+04  0.00000000000E+00 0. -1.
         -2   -1    0    0    0  501 -0.00000000000E+00 -0.00000000000E+00 -0.13422643217E+03  0.13422643217E+03  0.00000000000E+00 0.  1.
        -24    2    1    2    0    0  0.10323011616E+03  0.85047607818E+02  0.80213225463E+03  0.81731311819E+03  0.81823143329E+02 0.  0.
        254    2    1    2    0    0 -0.10323011616E+03 -0.85047607818E+02  0.15825544730E+04  0.18358264738E+04  0.92080976825E+03 0.  0.
         23    2    4    4    0    0 -0.30917234190E+03  0.95488632391E+02  0.14973104288E+04  0.15347573843E+04  0.94000491779E+02 0.  0.
         23    2    4    4    0    0  0.20594222575E+03 -0.18053624021E+03  0.85244044167E+02  0.30106908947E+03  0.91490519694E+02 0.  0.
          3    1    3    3  502    0  0.83336739672E+02  0.90567474844E+02  0.76491623375E+03  0.77475436387E+03  0.00000000000E+00 0. -1.
         -4    1    3    3    0  502  0.19893376484E+02 -0.55198670261E+01  0.37216020874E+02  0.42558754324E+02  0.00000000000E+00 0.  1.
         13    1    5    5    0    0 -0.29074546585E+03  0.59973823285E+02  0.13082236423E+04  0.13414838365E+04  0.00000000000E+00 0.  1.
        -13    1    5    5    0    0 -0.18426876054E+02  0.35514809106E+02  0.18908678653E+03  0.19327354777E+03  0.00000000000E+00 0. -1.
          2    1    6    6  503    0  0.13034760213E+02 -0.59375043263E+02  0.22058490016E+02  0.64667439396E+02  0.00000000000E+00 0. -1.
         -2    1    6    6    0  503  0.19290746553E+03 -0.12116119695E+03  0.63185554151E+02  0.23640165007E+03  0.00000000000E+00 0.  1.
<mgrwt>
<rscale>  0 0.11629355E+04</rscale>
<asrwt>0</asrwt>
<pdfrwt beam="1">  1        1 0.38752507E+00 0.11629355E+04</pdfrwt>
<pdfrwt beam="2">  1       -2 0.20650222E-01 0.11629355E+04</pdfrwt>
<totfact> 0.23304926E+01</totfact>
</mgrwt>
</event>
<event>
12    5  0.5197392E-008  0.1600562E+04  0.7818608E-02  0.8820203E-01
         -2   -1    0    0    0  501 -0.00000000000E+00  0.00000000000E+00  0.91472061219E+03  0.91472061219E+03  0.00000000000E+00 0.  1.
          1   -1    0    0  501    0  0.00000000000E+00 -0.00000000000E+00 -0.70015902415E+03  0.70015902415E+03  0.00000000000E+00 0. -1.
        -24    2    1    2    0    0  0.31218739462E+03 -0.28673335288E+03  0.41510144301E+03  0.59852537137E+03  0.79034341703E+02 0.  0.
        254    2    1    2    0    0 -0.31218739462E+03  0.28673335288E+03 -0.20053985497E+03  0.10163542650E+04  0.90171102549E+03 0.  0.
         23    2    4    4    0    0  0.26789703389E+03  0.28715889767E+03 -0.23836550680E+02  0.40340779332E+03  0.89110118858E+02 0.  0.
         23    2    4    4    0    0 -0.58008442851E+03 -0.42554478439E+00 -0.17670330429E+03  0.61294647166E+03  0.89337528989E+02 0.  0.
          3    1    3    3  502    0  0.55058046017E+02 -0.48691849565E+02  0.11852320555E+03  0.13946338193E+03  0.00000000000E+00 0. -1.
         -4    1    3    3    0  502  0.25712934860E+03 -0.23804150332E+03  0.29657823747E+03  0.45906198944E+03  0.00000000000E+00 0.  1.
         13    1    5    5    0    0  0.13502422949E+03  0.14279407646E+03  0.32685884082E+02  0.19922363775E+03  0.00000000000E+00 0. -1.
        -13    1    5    5    0    0  0.13287280440E+03  0.14436482120E+03 -0.56522434762E+02  0.20418415556E+03  0.00000000000E+00 0.  1.
          2    1    6    6  503    0 -0.50372804587E+03  0.10028936043E+02 -0.18200820717E+03  0.53569535300E+03  0.00000000000E+00 0. -1.
         -2    1    6    6    0  503 -0.76356382636E+02 -0.10454480828E+02  0.53049028751E+01  0.77251118653E+02  0.00000000000E+00 0.  1.
<mgrwt>
<rscale>  0 0.16005623E+04</rscale>
<asrwt>0</asrwt>
<pdfrwt beam="1">  1        1 0.10771677E+00 0.16005623E+04</pdfrwt>
<pdfrwt beam="2">  1       -2 0.14072625E+00 0.16005623E+04</pdfrwt>
<totfact> 0.81042237E+00</totfact>
</mgrwt>
</event>
<event>
12    5  0.5197392E-008  0.1348296E+04  0.7818608E-02  0.8992119E-01
         -2   -1    0    0    0  501 -0.00000000000E+00  0.00000000000E+00  0.10125203622E+04  0.10125203622E+04  0.00000000000E+00 0.  1.
          1   -1    0    0  501    0  0.00000000000E+00 -0.00000000000E+00 -0.44885601553E+03  0.44885601553E+03  0.00000000000E+00 0. -1.
        -24    2    1    2    0    0 -0.86083943247E+02 -0.35544019213E+03  0.12245706080E+03  0.39390347268E+03  0.80100178395E+02 0.  0.
        254    2    1    2    0    0  0.86083943247E+02  0.35544019213E+03  0.44120728587E+03  0.10674729051E+04  0.90060333024E+03 0.  0.
         23    2    4    4    0    0  0.17728756461E+03 -0.25067307386E+03  0.25394823365E+02  0.32183468977E+03  0.93084907268E+02 0.  0.
         23    2    4    4    0    0 -0.91203621365E+02  0.60611326600E+03  0.41581246251E+03  0.74563821528E+03  0.85935745417E+02 0.  0.
          1    1    3    3  502    0 -0.60851722982E+02 -0.22624212611E+03  0.37590619366E+02  0.23727934272E+03  0.00000000000E+00 0. -1.
         -2    1    3    3    0  502 -0.25232220265E+02 -0.12919806602E+03  0.84866441432E+02  0.15662412995E+03  0.00000000000E+00 0.  1.
         13    1    5    5    0    0  0.11552979680E+03 -0.12908897499E+03  0.56017724948E+02  0.18206889608E+03  0.00000000000E+00 0. -1.
        -13    1    5    5    0    0  0.61757767809E+02 -0.12158409888E+03 -0.30622901584E+02  0.13976579369E+03  0.00000000000E+00 0.  1.
          4    1    6    6  503    0 -0.84904245141E+02  0.33947099962E+03  0.26748662610E+03  0.44045247822E+03  0.00000000000E+00 0. -1.
         -4    1    6    6    0  503 -0.62993762233E+01  0.26664226637E+03  0.14832583640E+03  0.30518573706E+03  0.00000000000E+00 0.  1.
<mgrwt>
<rscale>  0 0.13482965E+04</rscale>
<asrwt>0</asrwt>
<pdfrwt beam="1">  1        1 0.69054772E-01 0.13482965E+04</pdfrwt>
<pdfrwt beam="2">  1       -2 0.15577236E+00 0.13482965E+04</pdfrwt>
<totfact> 0.11898307E+01</totfact>
</mgrwt>
</event>
<event>
12    5  0.5197392E-008  0.1700560E+04  0.7818608E-02  0.8761045E-01
         -2   -1    0    0    0  501 -0.00000000000E+00  0.00000000000E+00  0.84147842085E+03  0.84147842085E+03  0.00000000000E+00 0.  1.
          1   -1    0    0  501    0  0.00000000000E+00 -0.00000000000E+00 -0.85917322795E+03  0.85917322795E+03  0.00000000000E+00 0. -1.
        -24    2    1    2    0    0  0.32972825633E+03  0.23516857041E+03 -0.46208878359E+03  0.61941936486E+03  0.78290012823E+02 0.  0.
        254    2    1    2    0    0 -0.32972825633E+03 -0.23516857041E+03  0.44439397650E+03  0.10812322839E+04  0.89863911887E+03 0.  0.
         23    2    4    4    0    0 -0.17914882097E+03  0.33262271556E+03  0.21381037567E+03  0.44364272954E+03  0.91497670833E+02 0.  0.
         23    2    4    4    0    0 -0.15057943536E+03 -0.56779128598E+03  0.23058360083E+03  0.63758955440E+03  0.91052359257E+02 0.  0.
          1    1    3    3  502    0  0.26356053917E+03  0.14648832328E+03 -0.34866106797E+03  0.46096369378E+03  0.00000000000E+00 0. -1.
         -2    1    3    3    0  502  0.66167717161E+02  0.88680247134E+02 -0.11342771562E+03  0.15845567108E+03  0.00000000000E+00 0.  1.
         13    1    5    5    0    0 -0.99034067456E+02  0.15068215725E+03  0.52985328342E+02  0.18793696829E+03  0.00000000000E+00 0. -1.
        -13    1    5    5    0    0 -0.80114753514E+02  0.18194055832E+03  0.16082504733E+03  0.25570576125E+03  0.00000000000E+00 0.  1.
          1    1    6    6  503    0  0.45422732117E+01 -0.30703671249E+02  0.31331279710E+02  0.44102117437E+02  0.00000000000E+00 0. -1.
         -1    1    6    6    0  503 -0.15512170858E+03 -0.53708761473E+03  0.19925232112E+03  0.59348743696E+03  0.00000000000E+00 0.  1.
<mgrwt>
<rscale>  0 0.17005596E+04</rscale>
<asrwt>0</asrwt>
<pdfrwt beam="1">  1        1 0.13218050E+00 0.17005596E+04</pdfrwt>
<pdfrwt beam="2">  1       -2 0.12945822E+00 0.17005596E+04</pdfrwt>
<totfact> 0.71987072E+00</totfact>
</mgrwt>
</event>
<event>
12    5  0.5197392E-008  0.1495530E+04  0.7818608E-02  0.8887431E-01
          1   -1    0    0  501    0  0.00000000000E+00  0.00000000000E+00  0.28627832193E+04  0.28627832193E+04  0.00000000000E+00 0. -1.
         -2   -1    0    0    0  501 -0.00000000000E+00 -0.00000000000E+00 -0.19531790819E+03  0.19531790819E+03  0.00000000000E+00 0.  1.
        -24    2    1    2    0    0 -0.14818487945E+03 -0.32243444257E+03  0.22332110792E+03  0.42659265211E+03  0.78652688076E+02 0.  0.
        254    2    1    2    0    0  0.14818487945E+03  0.32243444257E+03  0.24441442032E+04  0.26315084754E+04  0.90833542360E+03 0.  0.
         23    2    4    4    0    0 -0.34129857949E+03  0.31311409975E+03  0.13195446605E+04  0.14014030059E+04  0.90593124297E+02 0.  0.
         23    2    4    4    0    0  0.48948345894E+03  0.93203428242E+01  0.11245995427E+04  0.12301054694E+04  0.93564999716E+02 0.  0.
          3    1    3    3  502    0 -0.14909799185E+03 -0.30212756692E+03  0.22656424325E+03  0.40600817010E+03  0.00000000000E+00 0. -1.
         -4    1    3    3    0  502  0.91311239705E+00 -0.20306875652E+02 -0.32431353365E+01  0.20584482015E+02  0.00000000000E+00 0.  1.
         13    1    5    5    0    0 -0.12413479486E+03  0.14907877431E+03  0.44387555573E+03  0.48441659470E+03  0.00000000000E+00 0.  1.
        -13    1    5    5    0    0 -0.21716378463E+03  0.16403532544E+03  0.87566910477E+03  0.91698641124E+03  0.00000000000E+00 0. -1.
          1    1    6    6  503    0  0.49387866457E+03  0.96208205831E+01  0.11128200741E+04  0.12175291425E+04  0.00000000000E+00 0. -1.
         -1    1    6    6    0  503 -0.43952056235E+01 -0.30047775881E+00  0.11779468530E+02  0.12576326896E+02  0.00000000000E+00 0.  1.
<mgrwt>
<rscale>  0 0.14955304E+04</rscale>
<asrwt>0</asrwt>
<pdfrwt beam="1">  1        1 0.44042816E+00 0.14955304E+04</pdfrwt>
<pdfrwt beam="2">  1       -2 0.30048911E-01 0.14955304E+04</pdfrwt>
<totfact> 0.65617759E+00</totfact>
</mgrwt>
</event>
<event>
12    5  0.5590622E-008  0.1747918E+04  0.7818608E-02  0.8734497E-01
          1   -1    0    0  501    0  0.00000000000E+00  0.00000000000E+00  0.13978523741E+04  0.13978523741E+04  0.00000000000E+00 0. -1.
         -2   -1    0    0    0  501 -0.00000000000E+00 -0.00000000000E+00 -0.54641290055E+03  0.54641290055E+03  0.00000000000E+00 0.  1.
        -24    2    1    2    0    0  0.10144245367E+03 -0.78405277892E+02  0.10469888187E+04  0.10578350620E+04  0.79946688170E+02 0.  0.
        254    2    1    2    0    0 -0.10144245367E+03  0.78405277892E+02 -0.19554934511E+03  0.88643021267E+03  0.85503275759E+03 0.  0.
         23    2    4    4    0    0 -0.35389697865E+03  0.29317832895E+03  0.38414718556E+02  0.47059189747E+03  0.93725339674E+02 0.  0.
         23    2    4    4    0    0  0.25245452498E+03 -0.21477305106E+03 -0.23396406367E+03  0.41583831520E+03  0.91222643341E+02 0.  0.
          3    1    3    3  502    0  0.43695164397E+02 -0.22643827496E+02  0.69799611236E+03  0.69972893551E+03  0.00000000000E+00 0. -1.
         -4    1    3    3    0  502  0.57747289270E+02 -0.55761450395E+02  0.34899270634E+03  0.35810612652E+03  0.00000000000E+00 0.  1.
         13    1    5    5    0    0 -0.35363456629E+03  0.29891375338E+03  0.39594072040E+02  0.46473059828E+03  0.00000000000E+00 0. -1.
        -13    1    5    5    0    0 -0.26241235242E+00 -0.57354244223E+01 -0.11793534838E+01  0.58612991893E+01  0.00000000000E+00 0.  1.
          1    1    6    6  503    0  0.23620961148E+03 -0.19940479850E+03 -0.24146299164E+03  0.39225199879E+03  0.00000000000E+00 0. -1.
         -1    1    6    6    0  503  0.16244913501E+02 -0.15368252557E+02  0.74989279719E+01  0.23586316415E+02  0.00000000000E+00 0.  1.
<mgrwt>
<rscale>  0 0.17479183E+04</rscale>
<asrwt>0</asrwt>
<pdfrwt beam="1">  1        1 0.21505421E+00 0.17479183E+04</pdfrwt>
<pdfrwt beam="2">  1       -2 0.84063523E-01 0.17479183E+04</pdfrwt>
<totfact> 0.79224509E+00</totfact>
</mgrwt>
</event>
<event>
12    5  0.5197392E-008  0.2740665E+04  0.7818608E-02  0.8321930E-01
         -2   -1    0    0    0  501 -0.00000000000E+00  0.00000000000E+00  0.76855012659E+03  0.76855012659E+03  0.00000000000E+00 0.  1.
          1   -1    0    0  501    0  0.00000000000E+00 -0.00000000000E+00 -0.24433172538E+04  0.24433172538E+04  0.00000000000E+00 0. -1.
        -24    2    1    2    0    0 -0.19569683287E+03  0.87074281787E+03 -0.17174541497E+04  0.19383518088E+04  0.10520776032E+03 0.  0.
        254    2    1    2    0    0  0.19569683287E+03 -0.87074281787E+03  0.42687022521E+02  0.12735155716E+04  0.90748521973E+03 0.  0.
         23    2    4    4    0    0  0.89385485377E+02 -0.16309682501E+03 -0.38413114747E+03  0.43540180396E+03  0.86183833255E+02 0.  0.
         23    2    4    4    0    0  0.10631134749E+03 -0.70764599287E+03  0.42681816999E+03  0.83811376768E+03  0.90531671283E+02 0.  0.
          1    1    3    3  502    0 -0.12358068520E+03  0.44110279370E+03 -0.98114436595E+03  0.10828149090E+04  0.00000000000E+00 0. -1.
         -2    1    3    3    0  502 -0.72116147665E+02  0.42964002417E+03 -0.73630978378E+03  0.85553689973E+03  0.00000000000E+00 0.  1.
         13    1    5    5    0    0  0.23214202028E+02 -0.10604629322E+03 -0.14739042799E+03  0.18305369088E+03  0.00000000000E+00 0. -1.
        -13    1    5    5    0    0  0.66171283349E+02 -0.57050531786E+02 -0.23674071948E+03  0.25234811308E+03  0.00000000000E+00 0.  1.
          4    1    6    6  503    0  0.16638022891E+02 -0.42259554732E+02  0.52494521933E+02  0.69414469708E+02  0.00000000000E+00 0. -1.
         -4    1    6    6    0  503  0.89673324602E+02 -0.66538643814E+03  0.37432364805E+03  0.76869929797E+03  0.00000000000E+00 0.  1.
<mgrwt>
<rscale>  0 0.27406655E+04</rscale>
<asrwt>0</asrwt>
<pdfrwt beam="1">  1        1 0.37589496E+00 0.27406655E+04</pdfrwt>
<pdfrwt beam="2">  1       -2 0.11823848E+00 0.27406655E+04</pdfrwt>
<totfact> 0.62491824E-01</totfact>
</mgrwt>
</event>
<event>
12    5  0.5197392E-008  0.1325892E+04  0.7818608E-02  0.9009281E-01
         -2   -1    0    0    0  501 -0.00000000000E+00  0.00000000000E+00  0.50615012733E+03  0.50615012733E+03  0.00000000000E+00 0.  1.
          1   -1    0    0  501    0  0.00000000000E+00 -0.00000000000E+00 -0.86831432628E+03  0.86831432628E+03  0.00000000000E+00 0. -1.
        -24    2    1    2    0    0 -0.33387683456E+03 -0.91839994036E+02 -0.23582074197E+03  0.42629966626E+03  0.78814072015E+02 0.  0.
        254    2    1    2    0    0  0.33387683456E+03  0.91839994036E+02 -0.12634345698E+03  0.94816478735E+03  0.87358197651E+03 0.  0.
         23    2    4    4    0    0  0.36833337924E+03  0.42134369769E+03 -0.19056723719E+03  0.59865012589E+03  0.94160031279E+02 0.  0.
         23    2    4    4    0    0 -0.34456544679E+02 -0.32950370366E+03  0.64223780214E+02  0.34951466146E+03  0.90971756247E+02 0.  0.
          1    1    3    3  502    0 -0.27271015608E+03 -0.10270516433E+03 -0.17825704898E+03  0.34160614093E+03  0.00000000000E+00 0. -1.
         -2    1    3    3    0  502 -0.61166678480E+02  0.10865170295E+02 -0.57563692993E+02  0.84693525329E+02  0.00000000000E+00 0.  1.
         13    1    5    5    0    0  0.23603788441E+03  0.22212960609E+03 -0.14557653521E+03  0.35531390682E+03  0.00000000000E+00 0. -1.
        -13    1    5    5    0    0  0.13229549483E+03  0.19921409161E+03 -0.44990701986E+02  0.24333621907E+03  0.00000000000E+00 0.  1.
          2    1    6    6  503    0  0.14126910287E+02 -0.96787766773E+02  0.53617630650E+02  0.11154502099E+03  0.00000000000E+00 0. -1.
         -2    1    6    6    0  503 -0.48583454966E+02 -0.23271593688E+03  0.10606149564E+02  0.23796964047E+03  0.00000000000E+00 0.  1.
<mgrwt>
<rscale>  0 0.13258920E+04</rscale>
<asrwt>0</asrwt>
<pdfrwt beam="1">  1        1 0.13358682E+00 0.13258920E+04</pdfrwt>
<pdfrwt beam="2">  1       -2 0.77869252E-01 0.13258920E+04</pdfrwt>
<totfact> 0.24399550E+01</totfact>
</mgrwt>
</event>
<event>
12    5  0.5197392E-008  0.1268751E+04  0.7818608E-02  0.9054720E-01
          1   -1    0    0  501    0  0.00000000000E+00  0.00000000000E+00  0.14540096856E+04  0.14540096856E+04  0.00000000000E+00 0. -1.
         -2   -1    0    0    0  501 -0.00000000000E+00 -0.00000000000E+00 -0.27677419983E+03  0.27677419983E+03  0.00000000000E+00 0.  1.
        -24    2    1    2    0    0 -0.89416054084E+02  0.18141760025E+03 -0.15049240381E+02  0.21816196642E+03  0.80377780187E+02 0.  0.
        254    2    1    2    0    0  0.89416054084E+02 -0.18141760025E+03  0.11922847262E+04  0.15126219191E+04  0.90861137197E+03 0.  0.
         23    2    4    4    0    0  0.39838775910E+03  0.16161293967E+03  0.73394360494E+03  0.85542313071E+03  0.90796301954E+02 0.  0.
         23    2    4    4    0    0 -0.30897170502E+03 -0.34303053993E+03  0.45834112126E+03  0.65719878835E+03  0.93274852711E+02 0.  0.
          1    1    3    3  502    0 -0.12315366534E+02  0.22931291991E+02 -0.31832175854E+02  0.41119336386E+02  0.00000000000E+00 0. -1.
         -2    1    3    3    0  502 -0.77100687550E+02  0.15848630826E+03  0.16782935473E+02  0.17704263004E+03  0.00000000000E+00 0.  1.
         13    1    5    5    0    0  0.35398016443E+03  0.13418973356E+03  0.57763408230E+03  0.69063012853E+03  0.00000000000E+00 0.  1.
        -13    1    5    5    0    0  0.44407594667E+02  0.27423206114E+02  0.15630952264E+03  0.16479300218E+03  0.00000000000E+00 0. -1.
          3    1    6    6  503    0 -0.32087224765E+02 -0.23459741736E+02  0.10140657679E+02  0.41021730992E+02  0.00000000000E+00 0. -1.
         -3    1    6    6    0  503 -0.27688448025E+03 -0.31957079819E+03  0.44820046358E+03  0.61617705736E+03  0.00000000000E+00 0.  1.
<mgrwt>
<rscale>  0 0.12687511E+04</rscale>
<asrwt>0</asrwt>
<pdfrwt beam="1">  1        1 0.22369379E+00 0.12687511E+04</pdfrwt>
<pdfrwt beam="2">  1       -2 0.42580647E-01 0.12687511E+04</pdfrwt>
<totfact> 0.31809156E+01</totfact>
</mgrwt>
</event>
<event>
12    5  0.5197392E-008  0.1394500E+04  0.7818608E-02  0.8957809E-01
         -2   -1    0    0    0  501 -0.00000000000E+00  0.00000000000E+00  0.32692271146E+03  0.32692271146E+03  0.00000000000E+00 0.  1.
          1   -1    0    0  501    0  0.00000000000E+00 -0.00000000000E+00 -0.14870720032E+04  0.14870720032E+04  0.00000000000E+00 0. -1.
        -24    2    1    2    0    0 -0.15011175974E+03  0.93052456894E+02  0.12756741546E+03  0.23209267032E+03  0.80007887012E+02 0.  0.
        254    2    1    2    0    0  0.15011175974E+03 -0.93052456894E+02 -0.12877167072E+04  0.15819020444E+04  0.90166926295E+03 0.  0.
         23    2    4    4    0    0  0.17309082791E+03  0.37709922901E+03 -0.74314081722E+03  0.85617908024E+03  0.92844385903E+02 0.  0.
         23    2    4    4    0    0 -0.22979068171E+02 -0.47015168591E+03 -0.54457589000E+03  0.72572296412E+03  0.92413610180E+02 0.  0.
          1    1    3    3  502    0 -0.43498289315E+02  0.18850611196E+02 -0.35347259793E+01  0.47538836792E+02  0.00000000000E+00 0. -1.
         -2    1    3    3    0  502 -0.10661347043E+03  0.74201845698E+02  0.13110214144E+03  0.18455383353E+03  0.00000000000E+00 0.  1.
         13    1    5    5    0    0  0.10296791476E+03  0.23648049829E+03 -0.54779036152E+03  0.60547477050E+03  0.00000000000E+00 0.  1.
        -13    1    5    5    0    0  0.70122913149E+02  0.14061873072E+03 -0.19535045570E+03  0.25070430974E+03  0.00000000000E+00 0. -1.
          4    1    6    6  503    0 -0.57846259006E+02 -0.32760765497E+03 -0.38912752128E+03  0.51195038148E+03  0.00000000000E+00 0. -1.
         -4    1    6    6    0  503  0.34867190835E+02 -0.14254403094E+03 -0.15544836872E+03  0.21377258265E+03  0.00000000000E+00 0.  1.
<mgrwt>
<rscale>  0 0.13945001E+04</rscale>
<asrwt>0</asrwt>
<pdfrwt beam="1">  1        1 0.22878031E+00 0.13945001E+04</pdfrwt>
<pdfrwt beam="2">  1       -2 0.50295802E-01 0.13945001E+04</pdfrwt>
<totfact> 0.21371259E+01</totfact>
</mgrwt>
</event>
<event>
12    5  0.5197392E-008  0.1847403E+04  0.7818608E-02  0.8681490E-01
          1   -1    0    0  501    0  0.00000000000E+00  0.00000000000E+00  0.84291973968E+03  0.84291973968E+03  0.00000000000E+00 0. -1.
         -4   -1    0    0    0  501 -0.00000000000E+00 -0.00000000000E+00 -0.10122244912E+04  0.10122244912E+04  0.00000000000E+00 0.  1.
        -24    2    1    2    0    0 -0.70499128688E+02 -0.41106426124E+03 -0.62723245498E+03  0.75732983075E+03  0.78638196452E+02 0.  0.
        254    2    1    2    0    0  0.70499128688E+02  0.41106426124E+03  0.45792770342E+03  0.10978144002E+04  0.90639655871E+03 0.  0.
         23    2    4    4    0    0  0.26738270788E+03 -0.99689222057E+02 -0.95131298515E+02  0.31456216389E+03  0.92021397123E+02 0.  0.
         23    2    4    4    0    0 -0.19688357919E+03  0.51075348330E+03  0.55305900193E+03  0.78325223628E+03  0.89317084381E+02 0.  0.
          1    1    3    3  502    0 -0.28946624860E+02 -0.94924137527E+02 -0.98053395137E+02  0.13950973899E+03  0.00000000000E+00 0. -1.
         -4    1    3    3    0  502 -0.41552503828E+02 -0.31614012371E+03 -0.52917905985E+03  0.61782009175E+03  0.00000000000E+00 0.  1.
         13    1    5    5    0    0 -0.41308484787E+01  0.36554060040E+01 -0.10679503081E+02  0.12019887199E+02  0.00000000000E+00 0.  1.
        -13    1    5    5    0    0  0.27151355636E+03 -0.10334462806E+03 -0.84451795434E+02  0.30254227669E+03  0.00000000000E+00 0. -1.
          2    1    6    6  503    0 -0.13732597461E+03  0.42856971868E+03  0.41718884988E+03  0.61365867022E+03  0.00000000000E+00 0. -1.
         -2    1    6    6    0  503 -0.59557604576E+02  0.82183764616E+02  0.13587015205E+03  0.16959356606E+03  0.00000000000E+00 0.  1.
<mgrwt>
<rscale>  0 0.18474025E+04</rscale>
<asrwt>0</asrwt>
<pdfrwt beam="1">  1        1 0.12967996E+00 0.18474025E+04</pdfrwt>
<pdfrwt beam="2">  1       -4 0.15572684E+00 0.18474025E+04</pdfrwt>
<totfact> 0.24835842E+00</totfact>
</mgrwt>
</event>
<event>
12    5  0.5197392E-008  0.2589714E+04  0.7818608E-02  0.8371704E-01
          1   -1    0    0  501    0  0.00000000000E+00  0.00000000000E+00  0.16026493439E+04  0.16026493439E+04  0.00000000000E+00 0. -1.
         -2   -1    0    0    0  501 -0.00000000000E+00 -0.00000000000E+00 -0.10461766835E+04  0.10461766835E+04  0.00000000000E+00 0.  1.
        -24    2    1    2    0    0  0.91863378288E+03  0.19633001372E+02  0.92993510969E+03  0.13098239908E+04  0.81154770735E+02 0.  0.
        254    2    1    2    0    0 -0.91863378288E+03 -0.19633001372E+02 -0.37346244932E+03  0.13390020367E+04  0.89954364618E+03 0.  0.
         23    2    4    4    0    0 -0.46143001876E+03  0.35219868379E+03 -0.44668364819E+03  0.73814677941E+03  0.91503067271E+02 0.  0.
         23    2    4    4    0    0 -0.45720376412E+03 -0.37183168516E+03  0.73221198872E+02  0.60085525726E+03  0.91496514704E+02 0.  0.
          3    1    3    3  502    0  0.45317148680E+02  0.18904035247E+02  0.50044362652E+02  0.70110232822E+02  0.00000000000E+00 0. -1.
         -4    1    3    3    0  502  0.87331663420E+03  0.72896612503E+00  0.87989074704E+03  0.12397137580E+04  0.00000000000E+00 0.  1.
         13    1    5    5    0    0 -0.10657018532E+03  0.53347868007E+02 -0.56253896961E+02  0.13178657118E+03  0.00000000000E+00 0. -1.
        -13    1    5    5    0    0 -0.35485983344E+03  0.29885081578E+03 -0.39042975123E+03  0.60636020823E+03  0.00000000000E+00 0.  1.
          3    1    6    6  503    0 -0.42371436013E+02 -0.57838322932E+02 -0.14760116319E+02  0.73201579376E+02  0.00000000000E+00 0. -1.
         -3    1    6    6    0  503 -0.41483232811E+03 -0.31399336223E+03  0.87981315190E+02  0.52765367789E+03  0.00000000000E+00 0.  1.
<mgrwt>
<rscale>  0 0.25897138E+04</rscale>
<asrwt>0</asrwt>
<pdfrwt beam="1">  1        1 0.24656144E+00 0.25897138E+04</pdfrwt>
<pdfrwt beam="2">  1       -2 0.16095026E+00 0.25897138E+04</pdfrwt>
<totfact> 0.10664066E+00</totfact>
</mgrwt>
</event>
<event>
12    5  0.5197392E-008  0.2204653E+04  0.7818608E-02  0.8516494E-01
         -2   -1    0    0    0  501 -0.00000000000E+00  0.00000000000E+00  0.83301481786E+03  0.83301481786E+03  0.00000000000E+00 0.  1.
          1   -1    0    0  501    0  0.00000000000E+00 -0.00000000000E+00 -0.14587061010E+04  0.14587061010E+04  0.00000000000E+00 0. -1.
        -24    2    1    2    0    0 -0.77302595809E+03  0.39796196281E+03  0.41002916624E+02  0.87403464286E+03  0.79451003882E+02 0.  0.
        254    2    1    2    0    0  0.77302595809E+03 -0.39796196281E+03 -0.66669419976E+03  0.14176862760E+04  0.89967236561E+03 0.  0.
         23    2    4    4    0    0  0.49473830385E+03  0.14516264058E+03 -0.20908607322E+02  0.52444686787E+03  0.93643824342E+02 0.  0.
         23    2    4    4    0    0  0.27828765424E+03 -0.54312460339E+03 -0.64578559244E+03  0.89323940814E+03  0.91701993094E+02 0.  0.
          3    1    3    3  502    0 -0.13553096923E+03  0.76392111576E+02 -0.22553199157E+02  0.15720383304E+03  0.00000000000E+00 0. -1.
         -4    1    3    3    0  502 -0.63749498886E+03  0.32156985123E+03  0.63556115781E+02  0.71683080982E+03  0.00000000000E+00 0.  1.
         13    1    5    5    0    0  0.91463976212E+02 -0.62946761379E+01  0.11763141561E+02  0.92431885146E+02  0.00000000000E+00 0.  1.
        -13    1    5    5    0    0  0.40327432764E+03  0.15145731672E+03 -0.32671748883E+02  0.43201498272E+03  0.00000000000E+00 0. -1.
          1    1    6    6  503    0  0.15602927167E+03 -0.33712614506E+03 -0.33009297716E+03  0.49695124999E+03  0.00000000000E+00 0. -1.
         -1    1    6    6    0  503  0.12225838257E+03 -0.20599845833E+03 -0.31569261527E+03  0.39628815814E+03  0.00000000000E+00 0.  1.
<mgrwt>
<rscale>  0 0.22046531E+04</rscale>
<asrwt>0</asrwt>
<pdfrwt beam="1">  1        1 0.22441632E+00 0.22046531E+04</pdfrwt>
<pdfrwt beam="2">  1       -2 0.12815613E+00 0.22046531E+04</pdfrwt>
<totfact> 0.25177591E+00</totfact>
</mgrwt>
</event>
<event>
12    5  0.5197392E-008  0.1750606E+04  0.7818608E-02  0.8733017E-01
          1   -1    0    0  501    0  0.00000000000E+00  0.00000000000E+00  0.18455486041E+04  0.18455486041E+04  0.00000000000E+00 0. -1.
         -2   -1    0    0    0  501 -0.00000000000E+00 -0.00000000000E+00 -0.41513700263E+03  0.41513700263E+03  0.00000000000E+00 0.  1.
        -24    2    1    2    0    0  0.54609817850E+03 -0.25202434818E+02  0.94913604562E+03  0.10982438296E+04  0.80136713668E+02 0.  0.
        254    2    1    2    0    0 -0.54609817850E+03  0.25202434818E+02  0.48127555580E+03  0.11624417771E+04  0.90597259407E+03 0.  0.
         23    2    4    4    0    0  0.21340589784E+03 -0.14198318765E+03  0.15931960077E+03  0.31582628029E+03  0.93070947811E+02 0.  0.
         23    2    4    4    0    0 -0.75950407634E+03  0.16718562247E+03  0.32195595503E+03  0.84661549679E+03  0.91130061306E+02 0.  0.
          1    1    3    3  502    0  0.33265156731E+03  0.30127187400E+00  0.50342079152E+03  0.60339841675E+03  0.00000000000E+00 0. -1.
         -2    1    3    3    0  502  0.21344661119E+03 -0.25503706692E+02  0.44571525410E+03  0.49484541285E+03  0.00000000000E+00 0.  1.
         13    1    5    5    0    0  0.45332225747E+01 -0.38215945732E+02  0.13592017674E+02  0.40813619780E+02  0.00000000000E+00 0. -1.
        -13    1    5    5    0    0  0.20887267527E+03 -0.10376724192E+03  0.14572758309E+03  0.27501266051E+03  0.00000000000E+00 0.  1.
          2    1    6    6  503    0 -0.41775026186E+03  0.13475019902E+03  0.16195269113E+03  0.46786918213E+03  0.00000000000E+00 0. -1.
         -2    1    6    6    0  503 -0.34175381448E+03  0.32435423452E+02  0.16000326391E+03  0.37874631466E+03  0.00000000000E+00 0.  1.
<mgrwt>
<rscale>  0 0.17506062E+04</rscale>
<asrwt>0</asrwt>
<pdfrwt beam="1">  1        1 0.28393055E+00 0.17506062E+04</pdfrwt>
<pdfrwt beam="2">  1       -2 0.63867232E-01 0.17506062E+04</pdfrwt>
<totfact> 0.71554459E+00</totfact>
</mgrwt>
</event>
<event>
12    5  0.5197392E-008  0.1502258E+04  0.7818608E-02  0.8882953E-01
          1   -1    0    0  501    0  0.00000000000E+00  0.00000000000E+00  0.84148687421E+03  0.84148687421E+03  0.00000000000E+00 0. -1.
         -2   -1    0    0    0  501 -0.00000000000E+00 -0.00000000000E+00 -0.67047333764E+03  0.67047333764E+03  0.00000000000E+00 0.  1.
        -24    2    1    2    0    0  0.31190921864E+03 -0.16072858896E+03  0.42665673604E+03  0.55812289006E+03  0.79650172751E+02 0.  0.
        254    2    1    2    0    0 -0.31190921864E+03  0.16072858896E+03 -0.25564319947E+03  0.95383732179E+03  0.84931216347E+03 0.  0.
         23    2    4    4    0    0 -0.21713130814E+03  0.36368843721E+03  0.16906388814E+03  0.46503268640E+03  0.90870879913E+02 0.  0.
         23    2    4    4    0    0 -0.94777910506E+02 -0.20295984825E+03 -0.42470708760E+03  0.48880463539E+03  0.91533103284E+02 0.  0.
          1    1    3    3  502    0  0.24881616235E+03 -0.14224378516E+03  0.29692448871E+03  0.41268260087E+03  0.00000000000E+00 0. -1.
         -2    1    3    3    0  502  0.63093056295E+02 -0.18484803801E+02  0.12973224733E+03  0.14544028919E+03  0.00000000000E+00 0.  1.
         13    1    5    5    0    0 -0.13219591517E+03  0.14024267160E+03  0.94364861995E+02  0.21458912858E+03  0.00000000000E+00 0. -1.
        -13    1    5    5    0    0 -0.84935392964E+02  0.22344576561E+03  0.74699026141E+02  0.25044355782E+03  0.00000000000E+00 0.  1.
          4    1    6    6  503    0 -0.21995142576E+02 -0.11239830261E+03 -0.28467014992E+03  0.30684565987E+03  0.00000000000E+00 0. -1.
         -4    1    6    6    0  503 -0.72782767930E+02 -0.90561545636E+02 -0.14003693768E+03  0.18195897552E+03  0.00000000000E+00 0.  1.
<mgrwt>
<rscale>  0 0.15022577E+04</rscale>
<asrwt>0</asrwt>
<pdfrwt beam="1">  1        1 0.12945952E+00 0.15022577E+04</pdfrwt>
<pdfrwt beam="2">  1       -2 0.10314974E+00 0.15022577E+04</pdfrwt>
<totfact> 0.13237383E+01</totfact>
</mgrwt>
</event>
<event>
12    5  0.5197392E-008  0.2641094E+04  0.7818608E-02  0.8354375E-01
         -2   -1    0    0    0  501 -0.00000000000E+00  0.00000000000E+00  0.18447043605E+04  0.18447043605E+04  0.00000000000E+00 0.  1.
          1   -1    0    0  501    0  0.00000000000E+00 -0.00000000000E+00 -0.94532493547E+03  0.94532493547E+03  0.00000000000E+00 0. -1.
        -24    2    1    2    0    0 -0.45058471010E+03 -0.87217622788E+03 -0.27367979996E+03  0.10221770553E+04  0.78913534716E+02 0.  0.
        254    2    1    2    0    0  0.45058471010E+03  0.87217622788E+03  0.11730592250E+04  0.17678522407E+04  0.88629320555E+03 0.  0.
         23    2    4    4    0    0  0.32228351400E+03  0.10353746080E+04  0.10336897762E+04  0.15008927147E+04  0.91088667804E+02 0.  0.
         23    2    4    4    0    0  0.12830119610E+03 -0.16319838012E+03  0.13936944884E+03  0.26695952602E+03  0.93534149214E+02 0.  0.
          1    1    3    3  502    0 -0.21515519643E+03 -0.43190584878E+03 -0.17480181444E+03  0.51321544705E+03  0.00000000000E+00 0. -1.
         -2    1    3    3    0  502 -0.23542951367E+03 -0.44027037910E+03 -0.98877985517E+02  0.50896160822E+03  0.00000000000E+00 0.  1.
         13    1    5    5    0    0  0.30627236854E+03  0.96875084561E+03  0.99559495513E+03  0.14224943864E+04  0.00000000000E+00 0. -1.
        -13    1    5    5    0    0  0.16011145458E+02  0.66623762393E+02  0.38094821047E+02  0.78398328329E+02  0.00000000000E+00 0.  1.
          3    1    6    6  503    0  0.28101340986E+02 -0.10008858424E+03  0.36748700046E+02  0.11026276350E+03  0.00000000000E+00 0. -1.
         -3    1    6    6    0  503  0.10019985511E+03 -0.63109795884E+02  0.10262074880E+03  0.15669676252E+03  0.00000000000E+00 0.  1.
<mgrwt>
<rscale>  0 0.26410945E+04</rscale>
<asrwt>0</asrwt>
<pdfrwt beam="1">  1        1 0.14543461E+00 0.26410945E+04</pdfrwt>
<pdfrwt beam="2">  1       -2 0.28380067E+00 0.26410945E+04</pdfrwt>
<totfact> 0.51379420E-01</totfact>
</mgrwt>
</event>
<event>
12    5  0.5197392E-008  0.1562423E+04  0.7818608E-02  0.8843971E-01
          1   -1    0    0  501    0  0.00000000000E+00  0.00000000000E+00  0.10568579176E+04  0.10568579176E+04  0.00000000000E+00 0. -1.
         -2   -1    0    0    0  501 -0.00000000000E+00 -0.00000000000E+00 -0.57745833186E+03  0.57745833186E+03  0.00000000000E+00 0.  1.
        -24    2    1    2    0    0  0.83603113853E+02 -0.42066819219E+03  0.14321371033E+03  0.45917607176E+03  0.79882973706E+02 0.  0.
        254    2    1    2    0    0 -0.83603113853E+02  0.42066819219E+03  0.33618587545E+03  0.11751401777E+04  0.10411446998E+04 0.  0.
         23    2    4    4    0    0 -0.27729876478E+03  0.63328801417E+03  0.47382650246E+03  0.84319920876E+03  0.92331128961E+02 0.  0.
         23    2    4    4    0    0  0.19369565093E+03 -0.21261982198E+03 -0.13764062702E+03  0.33194096898E+03  0.92274973826E+02 0.  0.
          1    1    3    3  502    0  0.74759703739E+02 -0.42079433997E+03  0.14120667562E+03  0.45010689297E+03  0.00000000000E+00 0. -1.
         -2    1    3    3    0  502  0.88434101138E+01  0.12614778508E+00  0.20070347110E+01  0.90691787961E+01  0.00000000000E+00 0.  1.
         13    1    5    5    0    0 -0.75180022104E+02  0.24480374520E+03  0.21601325477E+03  0.33502632079E+03  0.00000000000E+00 0. -1.
        -13    1    5    5    0    0 -0.20211874268E+03  0.38848426896E+03  0.25781324770E+03  0.50817288796E+03  0.00000000000E+00 0.  1.
          2    1    6    6  503    0  0.16196655178E+03 -0.20869420953E+03 -0.14159581114E+03  0.29972622628E+03  0.00000000000E+00 0.  1.
         -2    1    6    6    0  503  0.31729099151E+02 -0.39256124503E+01  0.39551841215E+01  0.32214742704E+02  0.00000000000E+00 0. -1.
<mgrwt>
<rscale>  0 0.15624230E+04</rscale>
<asrwt>0</asrwt>
<pdfrwt beam="1">  1        1 0.16259353E+00 0.15624230E+04</pdfrwt>
<pdfrwt beam="2">  1       -2 0.88839744E-01 0.15624230E+04</pdfrwt>
<totfact> 0.12564562E+01</totfact>
</mgrwt>
</event>
<event>
12    5  0.5197392E-008  0.1512956E+04  0.7818608E-02  0.8875883E-01
          1   -1    0    0  501    0  0.00000000000E+00  0.00000000000E+00  0.26628673546E+04  0.26628673546E+04  0.00000000000E+00 0. -1.
         -2   -1    0    0    0  501 -0.00000000000E+00 -0.00000000000E+00 -0.21490334402E+03  0.21490334402E+03  0.00000000000E+00 0.  1.
        -24    2    1    2    0    0  0.68982430335E+01 -0.36802900507E+03  0.19732760693E+03  0.42536361821E+03  0.80641731845E+02 0.  0.
        254    2    1    2    0    0 -0.68982430335E+01  0.36802900507E+03  0.22506364037E+04  0.24524070804E+04  0.90191093369E+03 0.  0.
         23    2    4    4    0    0 -0.28424903848E+03  0.21304957005E+03  0.20111992343E+04  0.20444537195E+04  0.93171969536E+02 0.  0.
         23    2    4    4    0    0  0.27735079544E+03  0.15497943502E+03  0.23943716938E+03  0.40795336095E+03  0.90297827330E+02 0.  0.
          1    1    3    3  502    0  0.35079643978E+01 -0.94771138702E+02  0.93061516618E+02  0.13286956168E+03  0.00000000000E+00 0. -1.
         -2    1    3    3    0  502  0.33902786357E+01 -0.27325786636E+03  0.10426609031E+03  0.29249405653E+03  0.00000000000E+00 0.  1.
         13    1    5    5    0    0 -0.85909544383E+02  0.18566209641E+02  0.40702777218E+03  0.41640936743E+03  0.00000000000E+00 0.  1.
        -13    1    5    5    0    0 -0.19833949409E+03  0.19448336040E+03  0.16041714621E+04  0.16280443521E+04  0.00000000000E+00 0. -1.
          1    1    6    6  503    0  0.19642557372E+03  0.99565841700E+02  0.11176430951E+03  0.24695672439E+03  0.00000000000E+00 0. -1.
         -1    1    6    6    0  503  0.80925221726E+02  0.55413593320E+02  0.12767285987E+03  0.16099663656E+03  0.00000000000E+00 0.  1.
<mgrwt>
<rscale>  0 0.15129562E+04</rscale>
<asrwt>0</asrwt>
<pdfrwt beam="1">  1        1 0.40967188E+00 0.15129562E+04</pdfrwt>
<pdfrwt beam="2">  1       -2 0.33062055E-01 0.15129562E+04</pdfrwt>
<totfact> 0.75798940E+00</totfact>
</mgrwt>
</event>
<event>
12    5  0.5197392E-008  0.2372111E+04  0.7818608E-02  0.8450019E-01
          1   -1    0    0  501    0  0.00000000000E+00  0.00000000000E+00  0.10900529249E+04  0.10900529249E+04  0.00000000000E+00 0. -1.
         -2   -1    0    0    0  501 -0.00000000000E+00 -0.00000000000E+00 -0.12905135918E+04  0.12905135918E+04  0.00000000000E+00 0.  1.
        -24    2    1    2    0    0  0.32735535806E+03 -0.95976061197E+03 -0.11137992553E+03  0.10229961341E+04  0.76247228033E+02 0.  0.
        254    2    1    2    0    0 -0.32735535806E+03  0.95976061197E+03 -0.89080741377E+02  0.13575703827E+04  0.89819819788E+03 0.  0.
         23    2    4    4    0    0 -0.12230317130E+03  0.69383953584E+03 -0.46028579079E+03  0.84771790261E+03  0.10193755933E+03 0.  0.
         23    2    4    4    0    0 -0.20505218676E+03  0.26592107613E+03  0.37120504941E+03  0.50985248005E+03  0.96932681200E+02 0.  0.
          3    1    3    3  502    0  0.23177375174E+03 -0.77182902289E+03 -0.80138572108E+02  0.80985264296E+03  0.00000000000E+00 0. -1.
         -4    1    3    3    0  502  0.95581606322E+02 -0.18793158908E+03 -0.31241353425E+02  0.21314349112E+03  0.00000000000E+00 0.  1.
         13    1    5    5    0    0 -0.10894035683E+03  0.56307739126E+03 -0.32549686232E+03  0.65944852512E+03  0.00000000000E+00 0.  1.
        -13    1    5    5    0    0 -0.13362814470E+02  0.13076214458E+03 -0.13478892847E+03  0.18826937749E+03  0.00000000000E+00 0. -1.
          2    1    6    6  503    0 -0.17499536651E+02  0.44664650064E+02  0.14521112577E+02  0.50120130276E+02  0.00000000000E+00 0. -1.
         -2    1    6    6    0  503 -0.18755265011E+03  0.22125642606E+03  0.35668393684E+03  0.45973234978E+03  0.00000000000E+00 0.  1.
<mgrwt>
<rscale>  0 0.23721114E+04</rscale>
<asrwt>0</asrwt>
<pdfrwt beam="1">  1        1 0.16770045E+00 0.23721114E+04</pdfrwt>
<pdfrwt beam="2">  1       -2 0.19854055E+00 0.23721114E+04</pdfrwt>
<totfact> 0.13819246E+00</totfact>
</mgrwt>
</event>
<event>
12    5  0.5197392E-008  0.1532435E+04  0.7818608E-02  0.8863166E-01
         -2   -1    0    0    0  501 -0.00000000000E+00  0.00000000000E+00  0.14487578222E+03  0.14487578222E+03  0.00000000000E+00 0.  1.
          1   -1    0    0  501    0  0.00000000000E+00 -0.00000000000E+00 -0.40523651309E+04  0.40523651309E+04  0.00000000000E+00 0. -1.
        -24    2    1    2    0    0 -0.15458635156E+03  0.35452875288E+03 -0.38370450633E+03  0.55058962253E+03  0.79575169220E+02 0.  0.
        254    2    1    2    0    0  0.15458635156E+03 -0.35452875288E+03 -0.35237848424E+04  0.36466512906E+04  0.85523005281E+03 0.  0.
         23    2    4    4    0    0 -0.45015889965E+02 -0.60045579721E+03 -0.22253170317E+04  0.23071584666E+04  0.91491550380E+02 0.  0.
         23    2    4    4    0    0  0.19960224152E+03  0.24592704433E+03 -0.12984678107E+04  0.13394928240E+04  0.88888717995E+02 0.  0.
          3    1    3    3  502    0 -0.90211003313E+02  0.12308412458E+03 -0.12229302335E+03  0.19555896912E+03  0.00000000000E+00 0. -1.
         -4    1    3    3    0  502 -0.64375348243E+02  0.23144462830E+03 -0.26141148298E+03  0.35503065341E+03  0.00000000000E+00 0.  1.
         13    1    5    5    0    0 -0.20133330407E+02 -0.33404245213E+03 -0.10625886493E+04  0.11140396530E+04  0.00000000000E+00 0.  1.
        -13    1    5    5    0    0 -0.24882559558E+02 -0.26641334508E+03 -0.11627283823E+04  0.11931188136E+04  0.00000000000E+00 0. -1.
          1    1    6    6  503    0  0.47673477841E+02  0.85446816032E+02 -0.26071885132E+03  0.27847484320E+03  0.00000000000E+00 0. -1.
         -1    1    6    6    0  503  0.15192876368E+03  0.16048022830E+03 -0.10377489594E+04  0.10610179808E+04  0.00000000000E+00 0.  1.
<mgrwt>
<rscale>  0 0.15324354E+04</rscale>
<asrwt>0</asrwt>
<pdfrwt beam="1">  1        1 0.62344076E+00 0.15324354E+04</pdfrwt>
<pdfrwt beam="2">  1       -2 0.22288583E-01 0.15324354E+04</pdfrwt>
<totfact> 0.13138196E+00</totfact>
</mgrwt>
</event>
<event>
12    5  0.5197392E-008  0.2436778E+04  0.7818608E-02  0.8425861E-01
         -2   -1    0    0    0  501 -0.00000000000E+00  0.00000000000E+00  0.41771676321E+03  0.41771676321E+03  0.00000000000E+00 0.  1.
          1   -1    0    0  501    0  0.00000000000E+00 -0.00000000000E+00 -0.35537765517E+04  0.35537765517E+04  0.00000000000E+00 0. -1.
        -24    2    1    2    0    0 -0.17669895660E+03  0.83286447311E+03 -0.34619870162E+03  0.92291821010E+03  0.83897137604E+02 0.  0.
        254    2    1    2    0    0  0.17669895660E+03 -0.83286447311E+03 -0.27898610869E+04  0.30485751048E+04  0.88634052926E+03 0.  0.
         23    2    4    4    0    0 -0.34181487762E+03 -0.25589796910E+03 -0.12033653207E+04  0.12801520440E+04  0.91542228295E+02 0.  0.
         23    2    4    4    0    0  0.51851383422E+03 -0.57696650401E+03 -0.15864957662E+04  0.17684230608E+04  0.92759705028E+02 0.  0.
          3    1    3    3  502    0  0.65170105514E+01  0.13566862099E+02 -0.68781987811E+00  0.15066660875E+02  0.00000000000E+00 0. -1.
         -4    1    3    3    0  502 -0.18321596716E+03  0.81929761101E+03 -0.34551088174E+03  0.90785154922E+03  0.00000000000E+00 0.  1.
         13    1    5    5    0    0 -0.21896217371E+01 -0.88453919808E+01 -0.51500971875E+01  0.10467038917E+02  0.00000000000E+00 0.  1.
        -13    1    5    5    0    0 -0.33962525588E+03 -0.24705257712E+03 -0.11982152235E+04  0.12696850051E+04  0.00000000000E+00 0. -1.
          4    1    6    6  503    0  0.40736831917E+03 -0.41182872002E+03 -0.12446221403E+04  0.13728204960E+04  0.00000000000E+00 0. -1.
         -4    1    6    6    0  503  0.11114551505E+03 -0.16513778399E+03 -0.34187362585E+03  0.39560256479E+03  0.00000000000E+00 0.  1.
<mgrwt>
<rscale>  0 0.24367782E+04</rscale>
<asrwt>0</asrwt>
<pdfrwt beam="1">  1        1 0.54673485E+00 0.24367782E+04</pdfrwt>
<pdfrwt beam="2">  1       -2 0.64264117E-01 0.24367782E+04</pdfrwt>
<totfact> 0.39859115E-01</totfact>
</mgrwt>
</event>
<event>
12    5  0.5197392E-008  0.2385758E+04  0.7818608E-02  0.8444855E-01
         -2   -1    0    0    0  501 -0.00000000000E+00  0.00000000000E+00  0.88455410699E+03  0.88455410699E+03  0.00000000000E+00 0.  1.
          1   -1    0    0  501    0  0.00000000000E+00 -0.00000000000E+00 -0.16086751274E+04  0.16086751274E+04  0.00000000000E+00 0. -1.
        -24    2    1    2    0    0  0.50713107615E+03 -0.86601154670E+03 -0.50924215591E+03  0.11284427746E+04  0.83051759527E+02 0.  0.
        254    2    1    2    0    0 -0.50713107615E+03  0.86601154670E+03 -0.21487886446E+03  0.13647864598E+04  0.89961726693E+03 0.  0.
         23    2    4    4    0    0 -0.72155646411E+03  0.83965812849E+03 -0.21054738333E+03  0.11306200064E+04  0.91114733030E+02 0.  0.
         23    2    4    4    0    0  0.21442538796E+03  0.26353418206E+02 -0.43314811299E+01  0.23416645338E+03  0.90235339570E+02 0.  0.
          1    1    3    3  502    0  0.28194501479E+03 -0.45927695295E+03 -0.22859975137E+03  0.58539401876E+03  0.00000000000E+00 0. -1.
         -2    1    3    3    0  502  0.22518606137E+03 -0.40673459374E+03 -0.28064240454E+03  0.54304875583E+03  0.00000000000E+00 0.  1.
         13    1    5    5    0    0 -0.17371804106E+03  0.25149883598E+03 -0.32743923190E+02  0.30741142919E+03  0.00000000000E+00 0.  1.
        -13    1    5    5    0    0 -0.54783842305E+03  0.58815929251E+03 -0.17780346014E+03  0.82320857720E+03  0.00000000000E+00 0. -1.
          2    1    6    6  503    0  0.38464425947E+02  0.38907953153E+02 -0.17033002048E+02  0.57301518660E+02  0.00000000000E+00 0. -1.
         -2    1    6    6    0  503  0.17596096201E+03 -0.12554534947E+02  0.12701520918E+02  0.17686493472E+03  0.00000000000E+00 0.  1.
<mgrwt>
<rscale>  0 0.23857579E+04</rscale>
<asrwt>0</asrwt>
<pdfrwt beam="1">  1        1 0.24748848E+00 0.23857579E+04</pdfrwt>
<pdfrwt beam="2">  1       -2 0.13608525E+00 0.23857579E+04</pdfrwt>
<totfact> 0.16762734E+00</totfact>
</mgrwt>
</event>
<event>
12    5  0.5197392E-008  0.2237351E+04  0.7818608E-02  0.8503041E-01
          1   -1    0    0  501    0  0.00000000000E+00  0.00000000000E+00  0.27470855878E+04  0.27470855878E+04  0.00000000000E+00 0. -1.
         -2   -1    0    0    0  501 -0.00000000000E+00 -0.00000000000E+00 -0.45555007566E+03  0.45555007566E+03  0.00000000000E+00 0.  1.
        -24    2    1    2    0    0  0.93059908591E+03  0.15300021391E+02  0.85554537647E+03  0.12667734768E+04  0.80674661232E+02 0.  0.
        254    2    1    2    0    0 -0.93059908591E+03 -0.15300021391E+02  0.14359901356E+04  0.19358621866E+04  0.90512208384E+03 0.  0.
         23    2    4    4    0    0 -0.84081149999E+03 -0.17360098378E+03  0.54220853506E+03  0.10193724048E+04  0.89603148165E+02 0.  0.
         23    2    4    4    0    0 -0.89787585916E+02  0.15830096239E+03  0.89378160057E+03  0.91648978180E+03  0.89369823403E+02 0.  0.
          1    1    3    3  502    0  0.81881751997E+02 -0.58060962811E+01  0.48131597479E+02  0.95157673048E+02  0.00000000000E+00 0. -1.
         -2    1    3    3    0  502  0.84871733391E+03  0.21106117673E+02  0.80741377899E+03  0.11716158037E+04  0.00000000000E+00 0.  1.
         13    1    5    5    0    0 -0.47897572910E+03 -0.13239107958E+03  0.27760344711E+03  0.56921772712E+03  0.00000000000E+00 0. -1.
        -13    1    5    5    0    0 -0.36183577090E+03 -0.41209904199E+02  0.26460508796E+03  0.45015467772E+03  0.00000000000E+00 0.  1.
          2    1    6    6  503    0 -0.99632375393E+02  0.11335993375E+03  0.76479996254E+03  0.77954863062E+03  0.00000000000E+00 0. -1.
         -2    1    6    6    0  503  0.98447894767E+01  0.44941028632E+02  0.12898163804E+03  0.13694115118E+03  0.00000000000E+00 0.  1.
<mgrwt>
<rscale>  0 0.22373512E+04</rscale>
<asrwt>0</asrwt>
<pdfrwt beam="1">  1        1 0.42262854E+00 0.22373512E+04</pdfrwt>
<pdfrwt beam="2">  1       -2 0.70084629E-01 0.22373512E+04</pdfrwt>
<totfact> 0.13461981E+00</totfact>
</mgrwt>
</event>
<event>
12    5  0.5197392E-008  0.1371590E+04  0.7818608E-02  0.8974644E-01
         -2   -1    0    0    0  501 -0.00000000000E+00  0.00000000000E+00  0.17632212576E+04  0.17632212576E+04  0.00000000000E+00 0.  1.
          1   -1    0    0  501    0  0.00000000000E+00 -0.00000000000E+00 -0.26673619360E+03  0.26673619360E+03  0.00000000000E+00 0. -1.
        -24    2    1    2    0    0  0.29717194082E+03  0.17384909913E+03  0.83056908138E+03  0.90255626147E+03  0.78918530673E+02 0.  0.
        254    2    1    2    0    0 -0.29717194082E+03 -0.17384909913E+03  0.66591598263E+03  0.11274011898E+04  0.84205384333E+03 0.  0.
         23    2    4    4    0    0 -0.70965891504E+02 -0.32249554462E+03  0.75320843311E+03  0.82875564423E+03  0.10233982646E+03 0.  0.
         23    2    4    4    0    0 -0.22620604931E+03  0.14864644549E+03 -0.87292450472E+02  0.29864554553E+03  0.91127643736E+02 0.  0.
          1    1    3    3  502    0  0.72713261608E+02  0.13976426851E+02  0.12798121605E+03  0.14785719659E+03  0.00000000000E+00 0. -1.
         -2    1    3    3    0  502  0.22445867921E+03  0.15987267228E+03  0.70258786533E+03  0.75469906487E+03  0.00000000000E+00 0.  1.
         13    1    5    5    0    0  0.24907761433E+02 -0.38395304055E+02  0.10661152264E+03  0.11601988067E+03  0.00000000000E+00 0.  1.
        -13    1    5    5    0    0 -0.95873652938E+02 -0.28410024057E+03  0.64659691047E+03  0.71273576355E+03  0.00000000000E+00 0. -1.
          1    1    6    6  503    0 -0.19666912891E+03  0.10171088735E+03 -0.38408855813E+02  0.22472002821E+03  0.00000000000E+00 0. -1.
         -1    1    6    6    0  503 -0.29536920401E+02  0.46935558139E+02 -0.48883594659E+02  0.73925517323E+02  0.00000000000E+00 0.  1.
<mgrwt>
<rscale>  0 0.13715902E+04</rscale>
<asrwt>0</asrwt>
<pdfrwt beam="1">  1        1 0.41036339E-01 0.13715902E+04</pdfrwt>
<pdfrwt beam="2">  1       -2 0.27126480E+00 0.13715902E+04</pdfrwt>
<totfact> 0.41617825E+00</totfact>
</mgrwt>
</event>
<event>
12    5  0.5197392E-008  0.2309707E+04  0.7818608E-02  0.8474104E-01
          1   -1    0    0  501    0  0.00000000000E+00  0.00000000000E+00  0.30496161282E+04  0.30496161282E+04  0.00000000000E+00 0. -1.
         -2   -1    0    0    0  501 -0.00000000000E+00 -0.00000000000E+00 -0.43732942431E+03  0.43732942431E+03  0.00000000000E+00 0.  1.
        -24    2    1    2    0    0 -0.10208413759E+03  0.15054827331E+03  0.25760219962E+04  0.25837146190E+04  0.81277018488E+02 0.  0.
        254    2    1    2    0    0  0.10208413759E+03 -0.15054827331E+03  0.36264707703E+02  0.90323093354E+03  0.88398248655E+03 0.  0.
         23    2    4    4    0    0  0.15809453378E+03 -0.39024264071E+03 -0.26354162710E+03  0.50505812405E+03  0.91358191853E+02 0.  0.
         23    2    4    4    0    0 -0.56010396188E+02  0.23969436740E+03  0.29980633481E+03  0.39817280949E+03  0.89817557199E+02 0.  0.
          1    1    3    3  502    0 -0.10414635690E+03  0.14284918234E+03  0.25568176565E+04  0.25629219421E+04  0.00000000000E+00 0. -1.
         -2    1    3    3    0  502  0.20622193099E+01  0.76990909613E+01  0.19204339669E+02  0.20792676890E+02  0.00000000000E+00 0.  1.
         13    1    5    5    0    0  0.51916933366E+02 -0.11750167998E+03 -0.13195802103E+03  0.18416007190E+03  0.00000000000E+00 0. -1.
        -13    1    5    5    0    0  0.10617760041E+03 -0.27274096073E+03 -0.13158360607E+03  0.32089805215E+03  0.00000000000E+00 0.  1.
          4    1    6    6  503    0  0.64806799630E+01  0.41939027038E+02  0.13283476433E+02  0.44467200810E+02  0.00000000000E+00 0. -1.
         -4    1    6    6    0  503 -0.62491076151E+02  0.19775534036E+03  0.28652285837E+03  0.35370560868E+03  0.00000000000E+00 0.  1.
<mgrwt>
<rscale>  0 0.23097072E+04</rscale>
<asrwt>0</asrwt>
<pdfrwt beam="1">  1        1 0.46917170E+00 0.23097072E+04</pdfrwt>
<pdfrwt beam="2">  1       -2 0.67281452E-01 0.23097072E+04</pdfrwt>
<totfact> 0.88490410E-01</totfact>
</mgrwt>
</event>
<event>
12    5  0.5197392E-008  0.1537400E+04  0.7818608E-02  0.8859956E-01
         -2   -1    0    0    0  501 -0.00000000000E+00  0.00000000000E+00  0.46417151978E+03  0.46417151978E+03  0.00000000000E+00 0.  1.
          1   -1    0    0  501    0  0.00000000000E+00 -0.00000000000E+00 -0.12730202265E+04  0.12730202265E+04  0.00000000000E+00 0. -1.
        -24    2    1    2    0    0  0.33334287090E+03  0.27145271984E+03 -0.59078728736E+03  0.73606034235E+03  0.89169277158E+02 0.  0.
        254    2    1    2    0    0 -0.33334287090E+03 -0.27145271984E+03 -0.21806141934E+03  0.10011314039E+04  0.87744473137E+03 0.  0.
         23    2    4    4    0    0 -0.17586617512E+03 -0.58307361241E+03 -0.13864473423E+03  0.63124936325E+03  0.91376404167E+02 0.  0.
         23    2    4    4    0    0 -0.15747669578E+03  0.31162089257E+03 -0.79416685115E+02  0.36988204066E+03  0.92731999464E+02 0.  0.
          3    1    3    3  502    0  0.30645722213E+03  0.24963936949E+03 -0.49035750049E+03  0.62983039152E+03  0.00000000000E+00 0. -1.
         -4    1    3    3    0  502  0.26885648771E+02  0.21813350351E+02 -0.10042978687E+03  0.10622995083E+03  0.00000000000E+00 0.  1.
         13    1    5    5    0    0 -0.13341230953E+03 -0.31944407138E+03 -0.49322431227E+02  0.34967994123E+03  0.00000000000E+00 0. -1.
        -13    1    5    5    0    0 -0.42453865592E+02 -0.26362954103E+03 -0.89322303003E+02  0.28156942203E+03  0.00000000000E+00 0.  1.
          1    1    6    6  503    0 -0.15732851476E+02  0.10510241987E+03 -0.50736663630E+02  0.11776353559E+03  0.00000000000E+00 0. -1.
         -1    1    6    6    0  503 -0.14174384430E+03  0.20651847270E+03 -0.28680021485E+02  0.25211850507E+03  0.00000000000E+00 0.  1.
<mgrwt>
<rscale>  0 0.15374001E+04</rscale>
<asrwt>0</asrwt>
<pdfrwt beam="1">  1        1 0.19584926E+00 0.15374001E+04</pdfrwt>
<pdfrwt beam="2">  1       -2 0.71411004E-01 0.15374001E+04</pdfrwt>
<totfact> 0.14237248E+01</totfact>
</mgrwt>
</event>
<event>
12    5  0.5197392E-008  0.1181479E+04  0.7818608E-02  0.9129224E-01
          1   -1    0    0  501    0  0.00000000000E+00  0.00000000000E+00  0.45566701771E+03  0.45566701771E+03  0.00000000000E+00 0. -1.
         -2   -1    0    0    0  501 -0.00000000000E+00 -0.00000000000E+00 -0.76585109563E+03  0.76585109563E+03  0.00000000000E+00 0.  1.
        -24    2    1    2    0    0  0.83220742078E+02 -0.42415223447E+01  0.16052643854E+03  0.19847703613E+03  0.81735634690E+02 0.  0.
        254    2    1    2    0    0 -0.83220742078E+02  0.42415223447E+01 -0.47071051646E+03  0.10230410772E+04  0.90448934373E+03 0.  0.
         23    2    4    4    0    0 -0.21661472291E+03 -0.12656853196E+03 -0.67886468689E+03  0.72911979876E+03  0.88413157256E+02 0.  0.
         23    2    4    4    0    0  0.13339398083E+03  0.13081005430E+03  0.20815417043E+03  0.29392127845E+03  0.90312428976E+02 0.  0.
          3    1    3    3  502    0  0.81077065569E+02  0.51712165458E+01  0.16777160574E+03  0.18640693049E+03  0.00000000000E+00 0. -1.
         -4    1    3    3    0  502  0.21436765087E+01 -0.94127388905E+01 -0.72451672029E+01  0.12070105641E+02  0.00000000000E+00 0.  1.
         13    1    5    5    0    0 -0.16341416270E+03 -0.48835042982E+02 -0.47027859985E+03  0.50025094849E+03  0.00000000000E+00 0.  1.
        -13    1    5    5    0    0 -0.53200560206E+02 -0.77733488977E+02 -0.20858608705E+03  0.22886885027E+03  0.00000000000E+00 0. -1.
          2    1    6    6  503    0  0.13664217732E+03  0.92031431829E+02  0.18843097636E+03  0.25029403093E+03  0.00000000000E+00 0. -1.
         -2    1    6    6    0  503 -0.32481964879E+01  0.38778622475E+02  0.19723194064E+02  0.43627247513E+02  0.00000000000E+00 0.  1.
<mgrwt>
<rscale>  0 0.11814789E+04</rscale>
<asrwt>0</asrwt>
<pdfrwt beam="1">  1        1 0.70102618E-01 0.11814789E+04</pdfrwt>
<pdfrwt beam="2">  1       -2 0.11782325E+00 0.11814789E+04</pdfrwt>
<totfact> 0.24223315E+01</totfact>
</mgrwt>
</event>
<event>
12    5  0.5197392E-008  0.2770761E+04  0.7818608E-02  0.8312404E-01
         -2   -1    0    0    0  501 -0.00000000000E+00  0.00000000000E+00  0.27702685819E+04  0.27702685819E+04  0.00000000000E+00 0.  1.
          1   -1    0    0  501    0  0.00000000000E+00 -0.00000000000E+00 -0.69281347178E+03  0.69281347178E+03  0.00000000000E+00 0. -1.
        -24    2    1    2    0    0 -0.76545407548E+03  0.97281721540E+03  0.88065977937E+03  0.15212230557E+04  0.79149617929E+02 0.  0.
        254    2    1    2    0    0  0.76545407548E+03 -0.97281721540E+03  0.11967953308E+04  0.19418589979E+04  0.89788865008E+03 0.  0.
         23    2    4    4    0    0  0.59686847647E+02  0.14521802332E+03  0.50608158868E+02  0.18912022718E+03  0.92490434676E+02 0.  0.
         23    2    4    4    0    0  0.70576722783E+03 -0.11180352387E+04  0.11461871719E+04  0.17527387708E+04  0.10118295632E+03 0.  0.
          1    1    3    3  502    0 -0.22959038336E+03  0.28350353003E+03  0.21642566626E+03  0.42417692616E+03  0.00000000000E+00 0. -1.
         -2    1    3    3    0  502 -0.53586369213E+03  0.68931368537E+03  0.66423411311E+03  0.10970461296E+04  0.00000000000E+00 0.  1.
         13    1    5    5    0    0  0.58325375418E+02  0.36823920674E+02 -0.11686649564E+01  0.68987073639E+02  0.00000000000E+00 0. -1.
        -13    1    5    5    0    0  0.13614722292E+01  0.10839410264E+03  0.51776823824E+02  0.12013315354E+03  0.00000000000E+00 0.  1.
          2    1    6    6  503    0  0.12190915987E+03 -0.14038994157E+03  0.18948884559E+03  0.26547542553E+03  0.00000000000E+00 0. -1.
         -2    1    6    6    0  503  0.58385806797E+03 -0.97764529715E+03  0.95669832629E+03  0.14872633452E+04  0.00000000000E+00 0.  1.
<mgrwt>
<rscale>  0 0.27707612E+04</rscale>
<asrwt>0</asrwt>
<pdfrwt beam="1">  1        1 0.10658669E+00 0.27707612E+04</pdfrwt>
<pdfrwt beam="2">  1       -2 0.42619516E+00 0.27707612E+04</pdfrwt>
<totfact> 0.10500262E-01</totfact>
</mgrwt>
</event>
<event>
12    5  0.5197392E-008  0.1269037E+04  0.7818608E-02  0.9054486E-01
         -2   -1    0    0    0  501 -0.00000000000E+00  0.00000000000E+00  0.25655914345E+03  0.25655914345E+03  0.00000000000E+00 0.  1.
          1   -1    0    0  501    0  0.00000000000E+00 -0.00000000000E+00 -0.15692826154E+04  0.15692826154E+04  0.00000000000E+00 0. -1.
        -24    2    1    2    0    0 -0.86307215272E+02 -0.11309896375E+03  0.62404645427E+02  0.17416569208E+03  0.78733966742E+02 0.  0.
        254    2    1    2    0    0  0.86307215272E+02  0.11309896375E+03 -0.13751281173E+04  0.16516760667E+04  0.90377883316E+03 0.  0.
         23    2    4    4    0    0 -0.79691961820E+02  0.34662910905E+03 -0.12869245910E+04  0.13385692660E+04  0.95342692072E+02 0.  0.
         23    2    4    4    0    0  0.16599917709E+03 -0.23353014530E+03 -0.88203526340E+02  0.31310680072E+03  0.90354585061E+02 0.  0.
          3    1    3    3  502    0 -0.39144692023E+01 -0.56622622953E+02  0.71658945790E+00  0.56762293820E+02  0.00000000000E+00 0. -1.
         -4    1    3    3    0  502 -0.82392746069E+02 -0.56476340793E+02  0.61688055969E+02  0.11740339826E+03  0.00000000000E+00 0.  1.
         13    1    5    5    0    0 -0.44279694555E+02  0.90142317477E+02 -0.24132663666E+03  0.26139027203E+03  0.00000000000E+00 0. -1.
        -13    1    5    5    0    0 -0.35412267265E+02  0.25648679157E+03 -0.10455979543E+04  0.10771789940E+04  0.00000000000E+00 0.  1.
          2    1    6    6  503    0  0.80410602093E+02 -0.12028667626E+03  0.23975825370E+01  0.14470831979E+03  0.00000000000E+00 0.  1.
         -2    1    6    6    0  503  0.85588574998E+02 -0.11324346904E+03 -0.90601108877E+02  0.16839848093E+03  0.00000000000E+00 0. -1.
<mgrwt>
<rscale>  0 0.12690371E+04</rscale>
<asrwt>0</asrwt>
<pdfrwt beam="1">  1        1 0.24142810E+00 0.12690371E+04</pdfrwt>
<pdfrwt beam="2">  1       -2 0.39470637E-01 0.12690371E+04</pdfrwt>
<totfact> 0.30733904E+01</totfact>
</mgrwt>
</event>
<event>
12    5  0.5197392E-008  0.2586181E+04  0.7818608E-02  0.8372910E-01
         -4   -1    0    0    0  501 -0.00000000000E+00  0.00000000000E+00  0.13379829271E+04  0.13379829271E+04  0.00000000000E+00 0.  1.
          1   -1    0    0  501    0  0.00000000000E+00 -0.00000000000E+00 -0.12497044813E+04  0.12497044813E+04  0.00000000000E+00 0. -1.
        -24    2    1    2    0    0  0.64265383214E+03 -0.59422185552E+03 -0.68551527877E+03  0.11146071445E+04  0.79462742913E+02 0.  0.
        254    2    1    2    0    0 -0.64265383214E+03  0.59422185552E+03  0.77379372453E+03  0.14730802640E+04  0.89727653178E+03 0.  0.
         23    2    4    4    0    0 -0.81567191335E+03  0.30530419584E+03  0.68713709848E+03  0.11130932709E+04  0.91037988791E+02 0.  0.
         23    2    4    4    0    0  0.17301808122E+03  0.28891765968E+03  0.86656626058E+02  0.35998699308E+03  0.93126762242E+02 0.  0.
          1    1    3    3  502    0  0.53032711965E+03 -0.52853690415E+03 -0.58134932123E+03  0.94792676204E+03  0.00000000000E+00 0. -1.
         -2    1    3    3    0  502  0.11232671249E+03 -0.65684951366E+02 -0.10416595753E+03  0.16668038242E+03  0.00000000000E+00 0.  1.
         13    1    5    5    0    0 -0.80372597068E+03  0.29546841066E+03  0.68663906514E+03  0.10976111440E+04  0.00000000000E+00 0. -1.
        -13    1    5    5    0    0 -0.11945942674E+02  0.98357851868E+01  0.49803333737E+00  0.15482126915E+02  0.00000000000E+00 0.  1.
          4    1    6    6  503    0  0.13836079054E+03  0.23004192270E+03  0.10656932744E+03  0.28882523454E+03  0.00000000000E+00 0. -1.
         -4    1    6    6    0  503  0.34657290678E+02  0.58875736977E+02 -0.19912701381E+02  0.71161758537E+02  0.00000000000E+00 0.  1.
<mgrwt>
<rscale>  0 0.25861812E+04</rscale>
<asrwt>0</asrwt>
<pdfrwt beam="1">  1        1 0.19226223E+00 0.25861812E+04</pdfrwt>
<pdfrwt beam="2">  1       -4 0.20584353E+00 0.25861812E+04</pdfrwt>
<totfact> 0.50557426E-01</totfact>
</mgrwt>
</event>
<event>
12    5  0.5197392E-008  0.1615810E+04  0.7818608E-02  0.8810894E-01
          1   -1    0    0  501    0  0.00000000000E+00  0.00000000000E+00  0.82448380864E+03  0.82448380864E+03  0.00000000000E+00 0. -1.
         -2   -1    0    0    0  501 -0.00000000000E+00 -0.00000000000E+00 -0.79165952994E+03  0.79165952994E+03  0.00000000000E+00 0.  1.
        -24    2    1    2    0    0 -0.44100395338E+03  0.29745622912E+03 -0.14664062497E+03  0.55759897023E+03  0.80302201519E+02 0.  0.
        254    2    1    2    0    0  0.44100395338E+03 -0.29745622912E+03  0.17946490367E+03  0.10585443683E+04  0.89740951241E+03 0.  0.
         23    2    4    4    0    0 -0.19497567001E+03  0.14748462107E+03  0.39655465920E+02  0.26459397759E+03  0.93113863932E+02 0.  0.
         23    2    4    4    0    0  0.63597962339E+03 -0.44494085019E+03  0.13980943775E+03  0.79395039075E+03  0.91477333578E+02 0.  0.
          3    1    3    3  502    0 -0.13467507037E+02  0.53047510729E+01 -0.19697239936E+02  0.24443718842E+02  0.00000000000E+00 0. -1.
         -4    1    3    3    0  502 -0.42753644635E+03  0.29215147805E+03 -0.12694338504E+03  0.53315525139E+03  0.00000000000E+00 0.  1.
         13    1    5    5    0    0 -0.11393418172E+03  0.36796111975E+02 -0.63599055883E+01  0.11989745627E+03  0.00000000000E+00 0.  1.
        -13    1    5    5    0    0 -0.81041488285E+02  0.11068850909E+03  0.46015371508E+02  0.14469652132E+03  0.00000000000E+00 0. -1.
          1    1    6    6  503    0  0.56367303316E+03 -0.36685921578E+03  0.98143231718E+02  0.67966540772E+03  0.00000000000E+00 0. -1.
         -1    1    6    6    0  503  0.72306590233E+02 -0.78081634406E+02  0.41666206034E+02  0.11428498304E+03  0.00000000000E+00 0.  1.
<mgrwt>
<rscale>  0 0.16158100E+04</rscale>
<asrwt>0</asrwt>
<pdfrwt beam="1">  1        1 0.12684366E+00 0.16158100E+04</pdfrwt>
<pdfrwt beam="2">  1       -2 0.12179377E+00 0.16158100E+04</pdfrwt>
<totfact> 0.90444636E+00</totfact>
</mgrwt>
</event>
<event>
12    5  0.5197392E-008  0.2006440E+04  0.7818608E-02  0.8603616E-01
          1   -1    0    0  501    0  0.00000000000E+00  0.00000000000E+00  0.35160547258E+04  0.35160547258E+04  0.00000000000E+00 0. -1.
         -2   -1    0    0    0  501 -0.00000000000E+00 -0.00000000000E+00 -0.28624409363E+03  0.28624409363E+03  0.00000000000E+00 0.  1.
        -24    2    1    2    0    0  0.15728081677E+03 -0.35591339061E+03  0.26083242784E+04  0.26384199043E+04  0.80575760508E+02 0.  0.
        254    2    1    2    0    0 -0.15728081677E+03  0.35591339061E+03  0.62148635372E+03  0.11638789151E+04  0.90385687151E+03 0.  0.
         23    2    4    4    0    0 -0.38197751194E+03  0.28193129975E+03 -0.90628801135E+01  0.48302157163E+03  0.88519068364E+02 0.  0.
         23    2    4    4    0    0  0.22469669517E+03  0.73982090862E+02  0.63054923383E+03  0.68085734345E+03  0.10006213699E+03 0.  0.
          1    1    3    3  502    0  0.14562977244E+03 -0.24758354450E+03  0.19782954641E+04  0.19990394156E+04  0.00000000000E+00 0. -1.
         -2    1    3    3    0  502  0.11651044326E+02 -0.10832984611E+03  0.63002881435E+03  0.63938048868E+03  0.00000000000E+00 0.  1.
         13    1    5    5    0    0 -0.24708263967E+03  0.17841909999E+03 -0.48164758668E+02  0.30854991500E+03  0.00000000000E+00 0.  1.
        -13    1    5    5    0    0 -0.13489487227E+03  0.10351219975E+03  0.39101878555E+02  0.17447165663E+03  0.00000000000E+00 0. -1.
          3    1    6    6  503    0  0.23668180822E+02  0.19542275760E+02  0.22298667583E+02  0.37938290701E+02  0.00000000000E+00 0. -1.
         -3    1    6    6    0  503  0.20102851435E+03  0.54439815103E+02  0.60825056625E+03  0.64291905275E+03  0.00000000000E+00 0.  1.
<mgrwt>
<rscale>  0 0.20064395E+04</rscale>
<asrwt>0</asrwt>
<pdfrwt beam="1">  1        1 0.54093147E+00 0.20064395E+04</pdfrwt>
<pdfrwt beam="2">  1       -2 0.44037555E-01 0.20064395E+04</pdfrwt>
<totfact> 0.97108588E-01</totfact>
</mgrwt>
</event>
<event>
12    5  0.5197392E-008  0.1625017E+04  0.7818608E-02  0.8805325E-01
          1   -1    0    0  501    0  0.00000000000E+00  0.00000000000E+00  0.13803884067E+04  0.13803884067E+04  0.00000000000E+00 0. -1.
         -2   -1    0    0    0  501 -0.00000000000E+00 -0.00000000000E+00 -0.47824952978E+03  0.47824952978E+03  0.00000000000E+00 0.  1.
        -24    2    1    2    0    0  0.31599693821E+01 -0.57852574007E+03  0.19201770126E+03  0.61465462488E+03  0.78914466073E+02 0.  0.
        254    2    1    2    0    0 -0.31599693821E+01  0.57852574007E+03  0.71012117562E+03  0.12439833116E+04  0.84173652531E+03 0.  0.
         23    2    4    4    0    0  0.82270578494E+02  0.68472655355E+03  0.22510512600E+03  0.73223774671E+03  0.99402709915E+02 0.  0.
         23    2    4    4    0    0 -0.85430547876E+02 -0.10620081348E+03  0.48501604962E+03  0.51174556485E+03  0.89810709046E+02 0.  0.
          3    1    3    3  502    0  0.44846391446E+01 -0.10874110707E+03  0.69581292067E+02  0.12917544875E+03  0.00000000000E+00 0. -1.
         -4    1    3    3    0  502 -0.13246697625E+01 -0.46978463300E+03  0.12243640919E+03  0.48547917612E+03  0.00000000000E+00 0.  1.
         13    1    5    5    0    0  0.17009838451E+02  0.49864144883E+03  0.17549542272E+03  0.52889627763E+03  0.00000000000E+00 0. -1.
        -13    1    5    5    0    0  0.65260740043E+02  0.18608510472E+03  0.49609703284E+02  0.20334146908E+03  0.00000000000E+00 0.  1.
          2    1    6    6  503    0 -0.79784752724E+02 -0.34873064433E+02  0.32498052497E+03  0.33644327753E+03  0.00000000000E+00 0. -1.
         -2    1    6    6    0  503 -0.56457951521E+01 -0.71327749044E+02  0.16003552465E+03  0.17530228731E+03  0.00000000000E+00 0.  1.
<mgrwt>
<rscale>  0 0.16250171E+04</rscale>
<asrwt>0</asrwt>
<pdfrwt beam="1">  1        1 0.21236744E+00 0.16250171E+04</pdfrwt>
<pdfrwt beam="2">  1       -2 0.73576852E-01 0.16250171E+04</pdfrwt>
<totfact> 0.11100637E+01</totfact>
</mgrwt>
</event>
<event>
12    5  0.5197392E-008  0.1401603E+04  0.7818608E-02  0.8952659E-01
         -2   -1    0    0    0  501 -0.00000000000E+00  0.00000000000E+00  0.21190047112E+04  0.21190047112E+04  0.00000000000E+00 0.  1.
          1   -1    0    0  501    0  0.00000000000E+00 -0.00000000000E+00 -0.23177041403E+03  0.23177041403E+03  0.00000000000E+00 0. -1.
        -24    2    1    2    0    0  0.67280410051E+02 -0.21087246322E+03 -0.21162092000E+02  0.23676535602E+03  0.81339721873E+02 0.  0.
        254    2    1    2    0    0 -0.67280410051E+02  0.21087246322E+03  0.19083963892E+04  0.21140097692E+04  0.88208087883E+03 0.  0.
         23    2    4    4    0    0  0.15359677559E+03  0.47157041696E+03  0.14446633901E+04  0.15301401856E+04  0.91137528988E+02 0.  0.
         23    2    4    4    0    0 -0.22087718564E+03 -0.26069795374E+03  0.46373299908E+03  0.58386958364E+03  0.95421391975E+02 0.  0.
          1    1    3    3  502    0  0.77217550480E+02 -0.16797485539E+03 -0.39533819525E+02  0.18905296885E+03  0.00000000000E+00 0. -1.
         -2    1    3    3    0  502 -0.99371404292E+01 -0.42897607833E+02  0.18371727525E+02  0.47712387175E+02  0.00000000000E+00 0.  1.
         13    1    5    5    0    0  0.52406821591E+02  0.27402649670E+03  0.71650865121E+03  0.76890938549E+03  0.00000000000E+00 0.  1.
        -13    1    5    5    0    0  0.10118995400E+03  0.19754392026E+03  0.72815473888E+03  0.76123080007E+03  0.00000000000E+00 0. -1.
          1    1    6    6  503    0 -0.10072400581E+03 -0.56768556552E+02  0.12110512290E+03  0.16743489825E+03  0.00000000000E+00 0. -1.
         -1    1    6    6    0  503 -0.12015317983E+03 -0.20392939719E+03  0.34262787618E+03  0.41643468539E+03  0.00000000000E+00 0.  1.
<mgrwt>
<rscale>  0 0.14016028E+04</rscale>
<asrwt>0</asrwt>
<pdfrwt beam="1">  1        1 0.35656988E-01 0.14016028E+04</pdfrwt>
<pdfrwt beam="2">  1       -2 0.32600071E+00 0.14016028E+04</pdfrwt>
<totfact> 0.23109957E+00</totfact>
</mgrwt>
</event>
<event>
12    5  0.5197392E-008  0.3062508E+04  0.7818608E-02  0.8226103E-01
         -2   -1    0    0    0  501 -0.00000000000E+00  0.00000000000E+00  0.76269097126E+03  0.76269097126E+03  0.00000000000E+00 0.  1.
          1   -1    0    0  501    0  0.00000000000E+00 -0.00000000000E+00 -0.30742972421E+04  0.30742972421E+04  0.00000000000E+00 0. -1.
        -24    2    1    2    0    0  0.40795197232E+03  0.36024784905E+01 -0.27183522967E+04  0.27499985253E+04  0.81331976434E+02 0.  0.
        254    2    1    2    0    0 -0.40795197232E+03 -0.36024784905E+01  0.40674602583E+03  0.10869896881E+04  0.92177354214E+03 0.  0.
         23    2    4    4    0    0  0.15362836855E+03  0.19816426166E+03 -0.11361923257E+03  0.28995555486E+03  0.91072188731E+02 0.  0.
         23    2    4    4    0    0 -0.56158034087E+03 -0.20176674015E+03  0.52036525840E+03  0.79703413327E+03  0.91657573368E+02 0.  0.
          1    1    3    3  502    0  0.24690020473E+03  0.15252443865E+02 -0.18834133633E+04  0.18995889674E+04  0.00000000000E+00 0. -1.
         -2    1    3    3    0  502  0.16105176759E+03 -0.11649965374E+02 -0.83493893344E+03  0.85040955786E+03  0.00000000000E+00 0.  1.
         13    1    5    5    0    0  0.11692470197E+03  0.12347643389E+03 -0.11741526501E+03  0.20664984905E+03  0.00000000000E+00 0.  1.
        -13    1    5    5    0    0  0.36703666582E+02  0.74687827769E+02  0.37960324368E+01  0.83305705805E+02  0.00000000000E+00 0. -1.
          4    1    6    6  503    0 -0.20805046491E+02  0.87587423678E+01  0.28207827305E+02  0.36128202953E+02  0.00000000000E+00 0. -1.
         -4    1    6    6    0  503 -0.54077529438E+03 -0.21052548252E+03  0.49215743110E+03  0.76090593031E+03  0.00000000000E+00 0.  1.
<mgrwt>
<rscale>  0 0.30625080E+04</rscale>
<asrwt>0</asrwt>
<pdfrwt beam="1">  1        1 0.47296881E+00 0.30625080E+04</pdfrwt>
<pdfrwt beam="2">  1       -2 0.11733707E+00 0.30625080E+04</pdfrwt>
<totfact> 0.22033086E-01</totfact>
</mgrwt>
</event>
<event>
12    5  0.5197392E-008  0.1944492E+04  0.7818608E-02  0.8633021E-01
          1   -1    0    0  501    0  0.00000000000E+00  0.00000000000E+00  0.11373693183E+04  0.11373693183E+04  0.00000000000E+00 0. -1.
         -2   -1    0    0    0  501 -0.00000000000E+00 -0.00000000000E+00 -0.83109531350E+03  0.83109531350E+03  0.00000000000E+00 0.  1.
        -24    2    1    2    0    0  0.66853419814E+03  0.15115989989E+03  0.46255942609E+03  0.83073740883E+03  0.79850675275E+02 0.  0.
        254    2    1    2    0    0 -0.66853419814E+03 -0.15115989989E+03 -0.15628542130E+03  0.11377272230E+04  0.89454503047E+03 0.  0.
         23    2    4    4    0    0 -0.50173248365E+03 -0.47575666717E+03 -0.26588257873E+03  0.74635878325E+03  0.90983493883E+02 0.  0.
         23    2    4    4    0    0 -0.16680171448E+03  0.32459676728E+03  0.10959715743E+03  0.39136843971E+03  0.89285191402E+02 0.  0.
          3    1    3    3  502    0  0.36381485976E+03  0.45558882413E+02  0.22500428489E+03  0.43019041385E+03  0.00000000000E+00 0. -1.
         -2    1    3    3    0  502  0.30471933838E+03  0.10560101748E+03  0.23755514120E+03  0.40054699498E+03  0.00000000000E+00 0.  1.
         13    1    5    5    0    0 -0.83199258836E+02 -0.78112094265E+02 -0.90079855900E+01  0.11447602258E+03  0.00000000000E+00 0. -1.
        -13    1    5    5    0    0 -0.41853322482E+03 -0.39764457290E+03 -0.25687459314E+03  0.63188276067E+03  0.00000000000E+00 0.  1.
          3    1    6    6  503    0 -0.13748426807E+02 -0.27182683297E+01  0.74723463848E+01  0.15882197042E+02  0.00000000000E+00 0. -1.
         -3    1    6    6    0  503 -0.15305328768E+03  0.32731503561E+03  0.10212481104E+03  0.37548624267E+03  0.00000000000E+00 0.  1.
<mgrwt>
<rscale>  0 0.19444920E+04</rscale>
<asrwt>0</asrwt>
<pdfrwt beam="1">  1        1 0.17497990E+00 0.19444920E+04</pdfrwt>
<pdfrwt beam="2">  1       -2 0.12786082E+00 0.19444920E+04</pdfrwt>
<totfact> 0.44009260E+00</totfact>
</mgrwt>
</event>
<event>
12    5  0.5197392E-008  0.1665795E+04  0.7818608E-02  0.8781117E-01
         -2   -1    0    0    0  501 -0.00000000000E+00  0.00000000000E+00  0.51408233636E+03  0.51408233636E+03  0.00000000000E+00 0.  1.
          1   -1    0    0  501    0  0.00000000000E+00 -0.00000000000E+00 -0.13494308290E+04  0.13494308290E+04  0.00000000000E+00 0. -1.
        -24    2    1    2    0    0 -0.57969826530E+03 -0.12742428175E+02 -0.36588761156E+03  0.69030751629E+03  0.80238858963E+02 0.  0.
        254    2    1    2    0    0  0.57969826530E+03  0.12742428175E+02 -0.46946088105E+03  0.11732056490E+04  0.90543112816E+03 0.  0.
         23    2    4    4    0    0  0.57048028387E+03 -0.12263375742E+03 -0.68339761744E+03  0.90315306233E+03  0.90367902059E+02 0.  0.
         23    2    4    4    0    0  0.92179814225E+01  0.13537618560E+03  0.21393673639E+03  0.27005258672E+03  0.93529618876E+02 0.  0.
          3    1    3    3  502    0 -0.57498691971E+03 -0.19431206529E+02 -0.35280389190E+03  0.67487637073E+03  0.00000000000E+00 0. -1.
         -4    1    3    3    0  502 -0.47113455813E+01  0.66887783538E+01 -0.13083719663E+02  0.15431145560E+02  0.00000000000E+00 0.  1.
         13    1    5    5    0    0  0.52102823220E+03 -0.13116050210E+03 -0.59643552942E+03  0.80275079372E+03  0.00000000000E+00 0.  1.
        -13    1    5    5    0    0  0.49452051671E+02  0.85267446740E+01 -0.86962088015E+02  0.10040226861E+03  0.00000000000E+00 0. -1.
          1    1    6    6  503    0 -0.87507559002E+01 -0.83048512768E+01  0.42563648361E+00  0.12071762505E+02  0.00000000000E+00 0. -1.
         -1    1    6    6    0  503  0.17968737323E+02  0.14368103687E+03  0.21351109990E+03  0.25798082421E+03  0.00000000000E+00 0.  1.
<mgrwt>
<rscale>  0 0.16657954E+04</rscale>
<asrwt>0</asrwt>
<pdfrwt beam="1">  1        1 0.20760474E+00 0.16657954E+04</pdfrwt>
<pdfrwt beam="2">  1       -2 0.79089591E-01 0.16657954E+04</pdfrwt>
<totfact> 0.99051545E+00</totfact>
</mgrwt>
</event>
<event>
12    5  0.5197392E-008  0.1368803E+04  0.7818608E-02  0.8976716E-01
         -4   -1    0    0    0  501 -0.00000000000E+00  0.00000000000E+00  0.66639277494E+03  0.66639277494E+03  0.00000000000E+00 0.  1.
          3   -1    0    0  501    0  0.00000000000E+00 -0.00000000000E+00 -0.70289645615E+03  0.70289645615E+03  0.00000000000E+00 0. -1.
        -24    2    1    2    0    0 -0.18876582173E+03  0.25242140080E+03  0.88591908762E+02  0.33688368308E+03  0.79328371950E+02 0.  0.
        254    2    1    2    0    0  0.18876582173E+03 -0.25242140080E+03 -0.12509558997E+03  0.10324055480E+04  0.97512215127E+03 0.  0.
         23    2    4    4    0    0  0.29570272134E+03 -0.18739528850E+03  0.36780894651E+03  0.51590307319E+03  0.91189178242E+02 0.  0.
         23    2    4    4    0    0 -0.10693689962E+03 -0.65026112297E+02 -0.49290453648E+03  0.51650247482E+03  0.90310733789E+02 0.  0.
          3    1    3    3  502    0 -0.20661350955E+02  0.28634454763E+02 -0.15096972521E+02  0.38402369746E+02  0.00000000000E+00 0. -1.
         -4    1    3    3    0  502 -0.16810447077E+03  0.22378694603E+03  0.10368888128E+03  0.29848131334E+03  0.00000000000E+00 0.  1.
         13    1    5    5    0    0  0.13231186353E+02 -0.34631231089E+02  0.63262111438E+02  0.73324492515E+02  0.00000000000E+00 0. -1.
        -13    1    5    5    0    0  0.28247153499E+03 -0.15276405741E+03  0.30454683507E+03  0.44257858067E+03  0.00000000000E+00 0.  1.
          3    1    6    6  503    0  0.13993812747E+02  0.44397701046E+01 -0.55053602016E+02  0.56977517046E+02  0.00000000000E+00 0. -1.
         -3    1    6    6    0  503 -0.12093071236E+03 -0.69465882401E+02 -0.43785093446E+03  0.45952495778E+03  0.00000000000E+00 0.  1.
<mgrwt>
<rscale>  0 0.13688026E+04</rscale>
<asrwt>0</asrwt>
<pdfrwt beam="1">  1        3 0.10813792E+00 0.13688026E+04</pdfrwt>
<pdfrwt beam="2">  1       -4 0.10252197E+00 0.13688026E+04</pdfrwt>
<totfact> 0.12631913E+00</totfact>
</mgrwt>
</event>
<event>
12    5  0.5197392E-008  0.1764073E+04  0.7818608E-02  0.8725642E-01
          1   -1    0    0  501    0  0.00000000000E+00  0.00000000000E+00  0.28653775555E+04  0.28653775555E+04  0.00000000000E+00 0. -1.
         -2   -1    0    0    0  501 -0.00000000000E+00 -0.00000000000E+00 -0.27151345798E+03  0.27151345798E+03  0.00000000000E+00 0.  1.
        -24    2    1    2    0    0  0.58579927288E+03 -0.24878467299E+03  0.72252673497E+03  0.96609624077E+03  0.79009253054E+02 0.  0.
        254    2    1    2    0    0 -0.58579927288E+03  0.24878467299E+03  0.18713373625E+04  0.21707947727E+04  0.89743624794E+03 0.  0.
         23    2    4    4    0    0  0.79961165945E+02 -0.20484282112E+03  0.19541343716E+03  0.30901627747E+03  0.94605913632E+02 0.  0.
         23    2    4    4    0    0 -0.66576043882E+03  0.45362749411E+03  0.16759239254E+04  0.18617784952E+04  0.92104811545E+02 0.  0.
          1    1    3    3  502    0  0.64899152195E+02 -0.55914177169E+02  0.10492709646E+03  0.13545475531E+03  0.00000000000E+00 0. -1.
         -2    1    3    3    0  502  0.52090012068E+03 -0.19287049583E+03  0.61759963851E+03  0.83064148547E+03  0.00000000000E+00 0.  1.
         13    1    5    5    0    0 -0.17936278067E+02 -0.27194918098E+02  0.49064898422E+02  0.58895143249E+02  0.00000000000E+00 0. -1.
        -13    1    5    5    0    0  0.97897444012E+02 -0.17764790302E+03  0.14634853873E+03  0.25012113422E+03  0.00000000000E+00 0.  1.
          3    1    6    6  503    0 -0.21872173746E+03  0.10566443492E+03  0.45304227622E+03  0.51405396145E+03  0.00000000000E+00 0. -1.
         -3    1    6    6    0  503 -0.44703870137E+03  0.34796305919E+03  0.12228816492E+04  0.13477245338E+04  0.00000000000E+00 0.  1.
<mgrwt>
<rscale>  0 0.17640732E+04</rscale>
<asrwt>0</asrwt>
<pdfrwt beam="1">  1        1 0.44082730E+00 0.17640732E+04</pdfrwt>
<pdfrwt beam="2">  1       -2 0.41771303E-01 0.17640732E+04</pdfrwt>
<totfact> 0.33872524E+00</totfact>
</mgrwt>
</event>
<event>
12    5  0.5197392E-008  0.1912504E+04  0.7818608E-02  0.8648657E-01
          1   -1    0    0  501    0  0.00000000000E+00  0.00000000000E+00  0.24322161704E+04  0.24322161704E+04  0.00000000000E+00 0. -1.
         -4   -1    0    0    0  501 -0.00000000000E+00 -0.00000000000E+00 -0.37596064516E+03  0.37596064516E+03  0.00000000000E+00 0.  1.
        -24    2    1    2    0    0  0.62514295403E+01  0.26466497378E+03 -0.21729244262E+03  0.35188268406E+03  0.80739017858E+02 0.  0.
        254    2    1    2    0    0 -0.62514295403E+01 -0.26466497378E+03  0.22735479678E+04  0.24562941315E+04  0.89122043827E+03 0.  0.
         23    2    4    4    0    0 -0.27405349671E+02  0.29860716991E+03  0.46938665934E+03  0.56401539925E+03  0.88725641804E+02 0.  0.
         23    2    4    4    0    0  0.21153920131E+02 -0.56327214369E+03  0.18041613085E+04  0.18922787322E+04  0.89430292359E+02 0.  0.
          3    1    3    3  502    0  0.18559919943E+02  0.10588559681E+03 -0.42978184346E+02  0.11577285766E+03  0.00000000000E+00 0. -1.
         -4    1    3    3    0  502 -0.12308490402E+02  0.15877937696E+03 -0.17431425827E+03  0.23610982640E+03  0.00000000000E+00 0.  1.
         13    1    5    5    0    0 -0.17049061800E+02  0.18905871139E+02  0.83600575250E+02  0.87390838501E+02  0.00000000000E+00 0. -1.
        -13    1    5    5    0    0 -0.10356287872E+02  0.27970129877E+03  0.38578608409E+03  0.47662456075E+03  0.00000000000E+00 0.  1.
          4    1    6    6  503    0  0.70376009814E+01 -0.41102241256E+02  0.73515868622E+02  0.84519258179E+02  0.00000000000E+00 0. -1.
         -4    1    6    6    0  503  0.14116319150E+02 -0.52216990243E+03  0.17306454399E+04  0.18077594740E+04  0.00000000000E+00 0.  1.
<mgrwt>
<rscale>  0 0.19125037E+04</rscale>
<asrwt>0</asrwt>
<pdfrwt beam="1">  1        1 0.37418709E+00 0.19125037E+04</pdfrwt>
<pdfrwt beam="2">  1       -4 0.57840101E-01 0.19125037E+04</pdfrwt>
<totfact> 0.19831435E+00</totfact>
</mgrwt>
</event>
<event>
12    5  0.5197392E-008  0.2486814E+04  0.7818608E-02  0.8407698E-01
         -2   -1    0    0    0  501 -0.00000000000E+00  0.00000000000E+00  0.10584921581E+04  0.10584921581E+04  0.00000000000E+00 0.  1.
          1   -1    0    0  501    0  0.00000000000E+00 -0.00000000000E+00 -0.14606263276E+04  0.14606263276E+04  0.00000000000E+00 0. -1.
        -24    2    1    2    0    0  0.73818802808E+03  0.42983870212E+03  0.49734787164E+03  0.99165784015E+03  0.79671148321E+02 0.  0.
        254    2    1    2    0    0 -0.73818802808E+03 -0.42983870212E+03 -0.89948204114E+03  0.15274606456E+04  0.89128289946E+03 0.  0.
         23    2    4    4    0    0 -0.40939457720E+02  0.15771019806E+03  0.63615159694E+02  0.19790398646E+03  0.92577284166E+02 0.  0.
         23    2    4    4    0    0 -0.69724857035E+03 -0.58754890018E+03 -0.96309720084E+03  0.13295566591E+04  0.93783861255E+02 0.  0.
          1    1    3    3  502    0  0.58503446391E+03  0.32333896231E+03  0.35395455925E+03  0.75637109842E+03  0.00000000000E+00 0. -1.
         -2    1    3    3    0  502  0.15315356416E+03  0.10649973981E+03  0.14339331239E+03  0.23528674173E+03  0.00000000000E+00 0.  1.
         13    1    5    5    0    0 -0.29625599140E+02  0.16078304122E+03  0.76483970559E+02  0.18049559612E+03  0.00000000000E+00 0.  1.
        -13    1    5    5    0    0 -0.11313858580E+02 -0.30728431574E+01 -0.12868810865E+02  0.17408390337E+02  0.00000000000E+00 0. -1.
          1    1    6    6  503    0 -0.59311552806E+02 -0.38567743208E+02 -0.11291437919E+03  0.13324784479E+03  0.00000000000E+00 0. -1.
         -1    1    6    6    0  503 -0.63793701755E+03 -0.54898115697E+03 -0.85018282165E+03  0.11963088144E+04  0.00000000000E+00 0.  1.
<mgrwt>
<rscale>  0 0.24868144E+04</rscale>
<asrwt>0</asrwt>
<pdfrwt beam="1">  1        1 0.22471174E+00 0.24868144E+04</pdfrwt>
<pdfrwt beam="2">  1       -2 0.16284495E+00 0.24868144E+04</pdfrwt>
<totfact> 0.13060932E+00</totfact>
</mgrwt>
</event>
<event>
12    5  0.5197392E-008  0.2536270E+04  0.7818608E-02  0.8390177E-01
          1   -1    0    0  501    0  0.00000000000E+00  0.00000000000E+00  0.16472790590E+04  0.16472790590E+04  0.00000000000E+00 0. -1.
         -2   -1    0    0    0  501 -0.00000000000E+00 -0.00000000000E+00 -0.97625656794E+03  0.97625656794E+03  0.00000000000E+00 0.  1.
        -24    2    1    2    0    0  0.25563477840E+03 -0.27994070060E+03  0.13561660109E+04  0.14104546069E+04  0.80498528795E+02 0.  0.
        254    2    1    2    0    0 -0.25563477840E+03  0.27994070060E+03 -0.68514351986E+03  0.12130810201E+04  0.92651388691E+03 0.  0.
         23    2    4    4    0    0 -0.58397033043E+03  0.25342012778E+03 -0.54777319614E+03  0.84489709215E+03  0.92479802854E+02 0.  0.
         23    2    4    4    0    0  0.32833555203E+03  0.26520572819E+02 -0.13737032372E+03  0.36818392790E+03  0.90450115635E+02 0.  0.
          1    1    3    3  502    0  0.25353226642E+03 -0.26607586414E+03  0.13376881838E+04  0.13872579618E+04  0.00000000000E+00 0. -1.
         -2    1    3    3    0  502  0.21025119763E+01 -0.13864836462E+02  0.18477827124E+02  0.23196645058E+02  0.00000000000E+00 0.  1.
         13    1    5    5    0    0 -0.19682197988E+03  0.98705114681E+02 -0.13536993815E+03  0.25846974984E+03  0.00000000000E+00 0. -1.
        -13    1    5    5    0    0 -0.38714835055E+03  0.15471501310E+03 -0.41240325799E+03  0.58642734231E+03  0.00000000000E+00 0.  1.
          4    1    6    6  503    0  0.26098929257E+03  0.12270197098E+02 -0.66974443872E+02  0.26972494268E+03  0.00000000000E+00 0.  1.
         -4    1    6    6    0  503  0.67346259458E+02  0.14250375721E+02 -0.70395879845E+02  0.98458985219E+02  0.00000000000E+00 0. -1.
<mgrwt>
<rscale>  0 0.25362705E+04</rscale>
<asrwt>0</asrwt>
<pdfrwt beam="1">  1        1 0.25342755E+00 0.25362705E+04</pdfrwt>
<pdfrwt beam="2">  1       -2 0.15019332E+00 0.25362705E+04</pdfrwt>
<totfact> 0.12028758E+00</totfact>
</mgrwt>
</event>
<event>
12    5  0.5197392E-008  0.1711802E+04  0.7818608E-02  0.8754662E-01
          1   -1    0    0  501    0  0.00000000000E+00  0.00000000000E+00  0.10852036215E+04  0.10852036215E+04  0.00000000000E+00 0. -1.
         -2   -1    0    0    0  501 -0.00000000000E+00 -0.00000000000E+00 -0.67504954653E+03  0.67504954653E+03  0.00000000000E+00 0.  1.
        -24    2    1    2    0    0 -0.42715799757E+03  0.40510134757E+03 -0.70432067691E+02  0.59999895043E+03  0.92016344566E+02 0.  0.
        254    2    1    2    0    0  0.42715799757E+03 -0.40510134757E+03  0.48058614268E+03  0.11602542176E+04  0.87673014792E+03 0.  0.
         23    2    4    4    0    0  0.76643041943E+02 -0.29113140285E+03  0.66668544285E+03  0.73709844596E+03  0.90625546770E+02 0.  0.
         23    2    4    4    0    0  0.35051495562E+03 -0.11396994472E+03 -0.18609930018E+03  0.42315577165E+03  0.92617358726E+02 0.  0.
          3    1    3    3  502    0 -0.27699160144E+02  0.10537485953E+02 -0.21072704071E+02  0.36364006101E+02  0.00000000000E+00 0. -1.
         -4    1    3    3    0  502 -0.39945883742E+03  0.39456386162E+03 -0.49359363620E+02  0.56363494433E+03  0.00000000000E+00 0.  1.
         13    1    5    5    0    0  0.83540628126E+02 -0.19790756787E+03  0.39284930799E+03  0.44774660329E+03  0.00000000000E+00 0. -1.
        -13    1    5    5    0    0 -0.68975861833E+01 -0.93223834978E+02  0.27383613486E+03  0.28935184267E+03  0.00000000000E+00 0.  1.
          1    1    6    6  503    0  0.11332390706E+03 -0.13171849777E+02 -0.99186826085E+02  0.15117483920E+03  0.00000000000E+00 0. -1.
         -1    1    6    6    0  503  0.23719104857E+03 -0.10079809495E+03 -0.86912474092E+02  0.27198093245E+03  0.00000000000E+00 0.  1.
<mgrwt>
<rscale>  0 0.17118016E+04</rscale>
<asrwt>0</asrwt>
<pdfrwt beam="1">  1        1 0.16695440E+00 0.17118016E+04</pdfrwt>
<pdfrwt beam="2">  1       -2 0.10385378E+00 0.17118016E+04</pdfrwt>
<totfact> 0.81847856E+00</totfact>
</mgrwt>
</event>
<event>
12    5  0.5197392E-008  0.2106034E+04  0.7818608E-02  0.8558590E-01
          1   -1    0    0  501    0  0.00000000000E+00  0.00000000000E+00  0.10512738848E+04  0.10512738848E+04  0.00000000000E+00 0. -1.
         -2   -1    0    0    0  501 -0.00000000000E+00 -0.00000000000E+00 -0.10547633299E+04  0.10547633299E+04  0.00000000000E+00 0.  1.
        -24    2    1    2    0    0 -0.20739632068E+03 -0.83033611050E+03 -0.13110606257E+03  0.86983792710E+03  0.83414204756E+02 0.  0.
        254    2    1    2    0    0  0.20739632068E+03  0.83033611050E+03  0.12761661745E+03  0.12361992876E+04  0.88285411438E+03 0.  0.
         23    2    4    4    0    0 -0.61736987087E+02 -0.16157590803E+03  0.45354363541E+02  0.20104654143E+03  0.91893764191E+02 0.  0.
         23    2    4    4    0    0  0.26913330777E+03  0.99191201853E+03  0.82262253906E+02  0.10351527461E+04  0.91934430777E+02 0.  0.
          3    1    3    3  502    0 -0.20857171132E+03 -0.75971757731E+03 -0.13403691317E+03  0.79914882852E+03  0.00000000000E+00 0. -1.
         -4    1    3    3    0  502  0.11753906417E+01 -0.70618533192E+02  0.29308505982E+01  0.70689098584E+02  0.00000000000E+00 0.  1.
         13    1    5    5    0    0 -0.93144532326E+01  0.11627577107E+02  0.31673021002E+01  0.15231263605E+02  0.00000000000E+00 0. -1.
        -13    1    5    5    0    0 -0.52422533854E+02 -0.17320348513E+03  0.42187061441E+02  0.18581527782E+03  0.00000000000E+00 0.  1.
          1    1    6    6  503    0  0.25936722200E+02  0.24483380041E+03  0.17730707323E+02  0.24684140934E+03  0.00000000000E+00 0. -1.
         -1    1    6    6    0  503  0.24319658557E+03  0.74707821812E+03  0.64531546584E+02  0.78831133680E+03  0.00000000000E+00 0.  1.
<mgrwt>
<rscale>  0 0.21060343E+04</rscale>
<asrwt>0</asrwt>
<pdfrwt beam="1">  1        1 0.16173444E+00 0.21060343E+04</pdfrwt>
<pdfrwt beam="2">  1       -2 0.16227128E+00 0.21060343E+04</pdfrwt>
<totfact> 0.26972325E+00</totfact>
</mgrwt>
</event>
<event>
12    5  0.5197392E-008  0.1595243E+04  0.7818608E-02  0.8823476E-01
         -2   -1    0    0    0  501 -0.00000000000E+00  0.00000000000E+00  0.41342588303E+03  0.41342588303E+03  0.00000000000E+00 0.  1.
          1   -1    0    0  501    0  0.00000000000E+00 -0.00000000000E+00 -0.15388482659E+04  0.15388482659E+04  0.00000000000E+00 0. -1.
        -24    2    1    2    0    0 -0.14200419940E+03 -0.40010045451E+02  0.25414756767E+03  0.30440408733E+03  0.79403185389E+02 0.  0.
        254    2    1    2    0    0  0.14200419940E+03  0.40010045451E+02 -0.13795699505E+04  0.16478700616E+04  0.88909869817E+03 0.  0.
         23    2    4    4    0    0  0.32289550271E+03  0.37291416327E+03 -0.89208119087E+03  0.10237557475E+04  0.94554220282E+02 0.  0.
         23    2    4    4    0    0 -0.18089130331E+03 -0.33290411782E+03 -0.48748875966E+03  0.62411431410E+03  0.91250046575E+02 0.  0.
          3    1    3    3  502    0 -0.20895666555E+01 -0.18766095179E+02  0.80682293171E+01  0.20533605173E+02  0.00000000000E+00 0. -1.
         -4    1    3    3    0  502 -0.13991463275E+03 -0.21243950271E+02  0.24607933835E+03  0.28387048216E+03  0.00000000000E+00 0.  1.
         13    1    5    5    0    0  0.53030458112E+02  0.12499146543E+03 -0.24582730963E+03  0.28083119855E+03  0.00000000000E+00 0. -1.
        -13    1    5    5    0    0  0.26986504460E+03  0.24792269784E+03 -0.64625388124E+03  0.74292454894E+03  0.00000000000E+00 0.  1.
          3    1    6    6  503    0 -0.19205982912E+01 -0.26423281084E+02 -0.82132794879E+01  0.27736914771E+02  0.00000000000E+00 0. -1.
         -3    1    6    6    0  503 -0.17897070502E+03 -0.30648083673E+03 -0.47927548017E+03  0.59637739933E+03  0.00000000000E+00 0.  1.
<mgrwt>
<rscale>  0 0.15952426E+04</rscale>
<asrwt>0</asrwt>
<pdfrwt beam="1">  1        1 0.23674588E+00 0.15952426E+04</pdfrwt>
<pdfrwt beam="2">  1       -2 0.63603983E-01 0.15952426E+04</pdfrwt>
<totfact> 0.11846890E+01</totfact>
</mgrwt>
</event>
<event>
12    5  0.5197392E-008  0.1241054E+04  0.7818608E-02  0.9077662E-01
          1   -1    0    0  501    0  0.00000000000E+00  0.00000000000E+00  0.95725929819E+03  0.95725929819E+03  0.00000000000E+00 0. -1.
         -2   -1    0    0    0  501 -0.00000000000E+00 -0.00000000000E+00 -0.40224622478E+03  0.40224622478E+03  0.00000000000E+00 0.  1.
        -24    2    1    2    0    0 -0.14738207437E+03  0.12153621426E+02  0.42344624760E+03  0.45545059167E+03  0.79115930670E+02 0.  0.
        254    2    1    2    0    0  0.14738207437E+03 -0.12153621426E+02  0.13156682582E+03  0.90405493131E+03  0.88212034485E+03 0.  0.
         23    2    4    4    0    0 -0.26892650432E+03 -0.27158466206E+03  0.90830933950E+02  0.40404822616E+03  0.94472308651E+02 0.  0.
         23    2    4    4    0    0  0.41630857870E+03  0.25943104064E+03  0.40735891870E+02  0.50000670515E+03  0.87920388807E+02 0.  0.
          1    1    3    3  502    0 -0.10790852834E+03 -0.24509808303E+02  0.32360523994E+03  0.34200194811E+03  0.00000000000E+00 0. -1.
         -2    1    3    3    0  502 -0.39473546032E+02  0.36663429729E+02  0.99841007656E+02  0.11344864356E+03  0.00000000000E+00 0.  1.
         13    1    5    5    0    0 -0.55775133202E+02 -0.11866364685E+02  0.48190438157E+01  0.57226735691E+02  0.00000000000E+00 0. -1.
        -13    1    5    5    0    0 -0.21315137112E+03 -0.25971829738E+03  0.86011890135E+02  0.34682149046E+03  0.00000000000E+00 0.  1.
          4    1    6    6  503    0  0.40629428591E+03  0.26334835292E+03  0.48707714452E+02  0.48662084131E+03  0.00000000000E+00 0.  1.
         -4    1    6    6    0  503  0.10014292783E+02 -0.39173122836E+01 -0.79718225814E+01  0.13385863840E+02  0.00000000000E+00 0. -1.
<mgrwt>
<rscale>  0 0.12410543E+04</rscale>
<asrwt>0</asrwt>
<pdfrwt beam="1">  1        1 0.14727066E+00 0.12410543E+04</pdfrwt>
<pdfrwt beam="2">  1       -2 0.61884035E-01 0.12410543E+04</pdfrwt>
<totfact> 0.34314056E+01</totfact>
</mgrwt>
</event>
<event>
12    5  0.5197392E-008  0.1047286E+04  0.7818608E-02  0.9258151E-01
         -2   -1    0    0    0  501 -0.00000000000E+00  0.00000000000E+00  0.21273892199E+03  0.21273892199E+03  0.00000000000E+00 0.  1.
          1   -1    0    0  501    0  0.00000000000E+00 -0.00000000000E+00 -0.12889131838E+04  0.12889131838E+04  0.00000000000E+00 0. -1.
        -24    2    1    2    0    0 -0.57596617463E+02  0.10143716797E+03 -0.12264984634E+03  0.18696070278E+03  0.79400567942E+02 0.  0.
        254    2    1    2    0    0  0.57596617463E+02 -0.10143716797E+03 -0.95352441543E+03  0.13146914030E+04  0.89755100404E+03 0.  0.
         23    2    4    4    0    0  0.10042002330E+03 -0.15808720483E+03  0.11619415817E+03  0.23885088389E+03  0.92048448824E+02 0.  0.
         23    2    4    4    0    0 -0.42823405840E+02  0.56650036858E+02 -0.10697185736E+04  0.10758405191E+04  0.89955127969E+02 0.  0.
          1    1    3    3  502    0 -0.55991952963E+02  0.11451805195E+03 -0.11523613684E+03  0.17183960618E+03  0.00000000000E+00 0. -1.
         -2    1    3    3    0  502 -0.16046644994E+01 -0.13080883981E+02 -0.74137094967E+01  0.15121096600E+02  0.00000000000E+00 0.  1.
         13    1    5    5    0    0  0.11644576700E+03 -0.12680071115E+03  0.10630847858E+03  0.20233519126E+03  0.00000000000E+00 0.  1.
        -13    1    5    5    0    0 -0.16025743700E+02 -0.31286493672E+02  0.98856795860E+01  0.36515692630E+02  0.00000000000E+00 0. -1.
          2    1    6    6  503    0 -0.36002906000E+01  0.40619950746E+02 -0.89962080283E+03  0.90054457489E+03  0.00000000000E+00 0. -1.
         -2    1    6    6    0  503 -0.39223115240E+02  0.16030086112E+02 -0.17009777077E+03  0.17529594419E+03  0.00000000000E+00 0.  1.
<mgrwt>
<rscale>  0 0.10472860E+04</rscale>
<asrwt>0</asrwt>
<pdfrwt beam="1">  1        1 0.19829434E+00 0.10472860E+04</pdfrwt>
<pdfrwt beam="2">  1       -2 0.32729064E-01 0.10472860E+04</pdfrwt>
<totfact> 0.70297802E+01</totfact>
</mgrwt>
</event>
<event>
12    5  0.5197392E-008  0.1378523E+04  0.7818608E-02  0.8969513E-01
         -2   -1    0    0    0  501 -0.00000000000E+00  0.00000000000E+00  0.62375366320E+03  0.62375366320E+03  0.00000000000E+00 0.  1.
          1   -1    0    0  501    0  0.00000000000E+00 -0.00000000000E+00 -0.76164855341E+03  0.76164855341E+03  0.00000000000E+00 0. -1.
        -24    2    1    2    0    0  0.24391189979E+03 -0.29587677955E+03 -0.10696621449E+03  0.40937099152E+03  0.95429314803E+02 0.  0.
        254    2    1    2    0    0 -0.24391189979E+03  0.29587677955E+03 -0.30928675718E+02  0.97603122509E+03  0.89701966858E+03 0.  0.
         23    2    4    4    0    0  0.12144027409E+03 -0.12801898474E+03 -0.29078183244E+03  0.35211914471E+03  0.91089062816E+02 0.  0.
         23    2    4    4    0    0 -0.36535217388E+03  0.42389576429E+03  0.25985315673E+03  0.62391208038E+03  0.92589367854E+02 0.  0.
          3    1    3    3  502    0  0.16744251419E+03 -0.16792169909E+03 -0.10735355924E+03  0.26030651022E+03  0.00000000000E+00 0. -1.
         -4    1    3    3    0  502  0.76469385597E+02 -0.12795508046E+03  0.38734474935E+00  0.14906448130E+03  0.00000000000E+00 0.  1.
         13    1    5    5    0    0  0.95661112819E+02 -0.11732577726E+03 -0.28629242281E+03  0.32385141326E+03  0.00000000000E+00 0.  1.
        -13    1    5    5    0    0  0.25779161274E+02 -0.10693207479E+02 -0.44894096369E+01  0.28267731445E+02  0.00000000000E+00 0. -1.
          3    1    6    6  503    0 -0.18444864064E+03  0.21141304386E+03  0.18115369984E+03  0.33396622451E+03  0.00000000000E+00 0. -1.
         -3    1    6    6    0  503 -0.18090353324E+03  0.21248272043E+03  0.78699456882E+02  0.28994585587E+03  0.00000000000E+00 0.  1.
<mgrwt>
<rscale>  0 0.13785225E+04</rscale>
<asrwt>0</asrwt>
<pdfrwt beam="1">  1        1 0.11717670E+00 0.13785225E+04</pdfrwt>
<pdfrwt beam="2">  1       -2 0.95962102E-01 0.13785225E+04</pdfrwt>
<totfact> 0.18618863E+01</totfact>
</mgrwt>
</event>
<event>
12    5  0.5197392E-008  0.1143838E+04  0.7818608E-02  0.9163487E-01
          1   -1    0    0  501    0  0.00000000000E+00  0.00000000000E+00  0.30796567382E+04  0.30796567382E+04  0.00000000000E+00 0. -1.
         -2   -1    0    0    0  501 -0.00000000000E+00 -0.00000000000E+00 -0.10621041642E+03  0.10621041642E+03  0.00000000000E+00 0.  1.
        -24    2    1    2    0    0  0.11185449107E+03  0.15712108958E+03  0.69649631608E+03  0.72910823837E+03  0.96401457364E+02 0.  0.
        254    2    1    2    0    0 -0.11185449107E+03 -0.15712108958E+03  0.22769500057E+04  0.24567589163E+04  0.90219985601E+03 0.  0.
         23    2    4    4    0    0 -0.12040197174E+03 -0.36241753949E+03  0.21753906659E+04  0.22104652984E+04  0.89382202804E+02 0.  0.
         23    2    4    4    0    0  0.85474806729E+01  0.20529644991E+03  0.10155933980E+03  0.24629361791E+03  0.90147406798E+02 0.  0.
          1    1    3    3  502    0  0.37123903667E+02  0.12536414603E+03  0.49214011952E+03  0.50921140067E+03  0.00000000000E+00 0. -1.
         -2    1    3    3    0  502  0.74730587400E+02  0.31756943553E+02  0.20435619656E+03  0.21989683770E+03  0.00000000000E+00 0.  1.
         13    1    5    5    0    0  0.44669237908E+00  0.45320055776E+01  0.53285023335E+02  0.53479270007E+02  0.00000000000E+00 0.  1.
        -13    1    5    5    0    0 -0.12084866412E+03 -0.36694954507E+03  0.21221056426E+04  0.21569860283E+04  0.00000000000E+00 0. -1.
          2    1    6    6  503    0 -0.35409445276E+02  0.14786034937E+03  0.67624534059E+02  0.16640189103E+03  0.00000000000E+00 0. -1.
         -2    1    6    6    0  503  0.43956925949E+02  0.57436100541E+02  0.33934805745E+02  0.79891726888E+02  0.00000000000E+00 0.  1.
<mgrwt>
<rscale>  0 0.11438385E+04</rscale>
<asrwt>0</asrwt>
<pdfrwt beam="1">  1        1 0.47379327E+00 0.11438385E+04</pdfrwt>
<pdfrwt beam="2">  1       -2 0.16340066E-01 0.11438385E+04</pdfrwt>
<totfact> 0.14067541E+01</totfact>
</mgrwt>
</event>
<event>
12    5  0.5197392E-008  0.1692937E+04  0.7818608E-02  0.8765403E-01
         -2   -1    0    0    0  501 -0.00000000000E+00  0.00000000000E+00  0.13041632743E+04  0.13041632743E+04  0.00000000000E+00 0.  1.
          1   -1    0    0  501    0  0.00000000000E+00 -0.00000000000E+00 -0.54940139521E+03  0.54940139521E+03  0.00000000000E+00 0. -1.
        -24    2    1    2    0    0 -0.42894264437E+03  0.41940323040E+03  0.24057798470E+03  0.65148054632E+03  0.81598245546E+02 0.  0.
        254    2    1    2    0    0  0.42894264437E+03 -0.41940323040E+03  0.51418389439E+03  0.12020841232E+04  0.90594166487E+03 0.  0.
         23    2    4    4    0    0  0.32585469584E+03  0.23878488476E+03  0.18328645066E+03  0.45296660680E+03  0.91571392286E+02 0.  0.
         23    2    4    4    0    0  0.10308794853E+03 -0.65818811516E+03  0.33089744373E+03  0.74911751640E+03  0.88573218486E+02 0.  0.
          1    1    3    3  502    0 -0.34907166014E+02  0.90754861503E+01  0.20656044633E+02  0.41563768692E+02  0.00000000000E+00 0. -1.
         -2    1    3    3    0  502 -0.39403547836E+03  0.41032774425E+03  0.21992194007E+03  0.60991677762E+03  0.00000000000E+00 0.  1.
         13    1    5    5    0    0  0.28537948499E+03  0.18316359321E+03  0.12063019625E+03  0.35991943067E+03  0.00000000000E+00 0. -1.
        -13    1    5    5    0    0  0.40475210851E+02  0.55621291557E+02  0.62656254409E+02  0.93047176122E+02  0.00000000000E+00 0.  1.
          3    1    6    6  503    0  0.88056249614E+02 -0.56248354192E+03  0.31584936889E+03  0.65107792302E+03  0.00000000000E+00 0. -1.
         -3    1    6    6    0  503  0.15031698917E+02 -0.95704573242E+02  0.15048074844E+02  0.98039593371E+02  0.00000000000E+00 0.  1.
<mgrwt>
<rscale>  0 0.16929372E+04</rscale>
<asrwt>0</asrwt>
<pdfrwt beam="1">  1        1 0.84523291E-01 0.16929372E+04</pdfrwt>
<pdfrwt beam="2">  1       -2 0.20064050E+00 0.16929372E+04</pdfrwt>
<totfact> 0.42602281E+00</totfact>
</mgrwt>
</event>
<event>
12    5  0.5718873E-008  0.1875222E+04  0.7818608E-02  0.8667289E-01
         -2   -1    0    0    0  501 -0.00000000000E+00  0.00000000000E+00  0.50454745401E+03  0.50454745401E+03  0.00000000000E+00 0.  1.
          1   -1    0    0  501    0  0.00000000000E+00 -0.00000000000E+00 -0.17423824991E+04  0.17423824991E+04  0.00000000000E+00 0. -1.
        -24    2    1    2    0    0 -0.27373341549E+02  0.31485505731E+03 -0.12582751240E+04  0.12996381202E+04  0.76941202774E+02 0.  0.
        254    2    1    2    0    0  0.27373341549E+02 -0.31485505731E+03  0.20440078958E+02  0.94729183293E+03  0.89278273560E+03 0.  0.
         23    2    4    4    0    0  0.40138455226E+03 -0.10999405416E+03 -0.18584190172E+03  0.46491809406E+03  0.91669902379E+02 0.  0.
         23    2    4    4    0    0 -0.37401121071E+03 -0.20486100314E+03  0.20628198067E+03  0.48237373888E+03  0.90993142945E+02 0.  0.
          3    1    3    3  502    0 -0.13248257367E+01  0.26611862037E+03 -0.11084026892E+04  0.11399023628E+04  0.00000000000E+00 0. -1.
         -4    1    3    3    0  502 -0.26048515812E+02  0.48736436936E+02 -0.14987243488E+03  0.15973575742E+03  0.00000000000E+00 0.  1.
         13    1    5    5    0    0  0.35441124964E+03 -0.10886077492E+03 -0.19201768972E+03  0.41752699955E+03  0.00000000000E+00 0. -1.
        -13    1    5    5    0    0  0.46973302617E+02 -0.11332792451E+01  0.61757880069E+01  0.47391094502E+02  0.00000000000E+00 0.  1.
          4    1    6    6  503    0 -0.26103291123E+03 -0.17000194297E+03  0.18480823742E+03  0.36220564045E+03  0.00000000000E+00 0. -1.
         -4    1    6    6    0  503 -0.11297829948E+03 -0.34859060170E+02  0.21473743258E+02  0.12016809843E+03  0.00000000000E+00 0.  1.
<mgrwt>
<rscale>  0 0.18752223E+04</rscale>
<asrwt>0</asrwt>
<pdfrwt beam="1">  1        1 0.26805884E+00 0.18752223E+04</pdfrwt>
<pdfrwt beam="2">  1       -2 0.77622686E-01 0.18752223E+04</pdfrwt>
<totfact> 0.54285467E+00</totfact>
</mgrwt>
</event>
<event>
12    5  0.5197392E-008  0.1653666E+04  0.7818608E-02  0.8788241E-01
         -2   -1    0    0    0  501 -0.00000000000E+00  0.00000000000E+00  0.13260079747E+04  0.13260079747E+04  0.00000000000E+00 0.  1.
          1   -1    0    0  501    0  0.00000000000E+00 -0.00000000000E+00 -0.51557230142E+03  0.51557230142E+03  0.00000000000E+00 0. -1.
        -24    2    1    2    0    0 -0.52429347010E+03  0.15412955248E+03  0.70332491898E+01  0.55200528725E+03  0.77593871033E+02 0.  0.
        254    2    1    2    0    0  0.52429347010E+03 -0.15412955248E+03  0.80340242405E+03  0.12895749888E+04  0.84788480060E+03 0.  0.
         23    2    4    4    0    0 -0.77523410274E+02 -0.19006647504E+03 -0.61863748068E+02  0.23180741250E+03  0.88161267526E+02 0.  0.
         23    2    4    4    0    0  0.60181688038E+03  0.35936922558E+02  0.86526617212E+03  0.10577675763E+04  0.81924825285E+02 0.  0.
          1    1    3    3  502    0 -0.30329039984E+03  0.82402899647E+02  0.41851873577E+02  0.31705974804E+03  0.00000000000E+00 0. -1.
         -2    1    3    3    0  502 -0.22100307026E+03  0.71726652834E+02 -0.34818624387E+02  0.23494553921E+03  0.00000000000E+00 0.  1.
         13    1    5    5    0    0 -0.73482341696E+02 -0.18344703145E+03 -0.79136589473E+02  0.21287336067E+03  0.00000000000E+00 0. -1.
        -13    1    5    5    0    0 -0.40410685779E+01 -0.66194435915E+01  0.17272841405E+02  0.18934051836E+02  0.00000000000E+00 0.  1.
          3    1    6    6  503    0  0.47770482892E+03  0.57545025586E+02  0.71262569299E+03  0.85985388983E+03  0.00000000000E+00 0. -1.
         -3    1    6    6    0  503  0.12411205146E+03 -0.21608103029E+02  0.15264047913E+03  0.19791368650E+03  0.00000000000E+00 0.  1.
<mgrwt>
<rscale>  0 0.16536662E+04</rscale>
<asrwt>0</asrwt>
<pdfrwt beam="1">  1        1 0.79318816E-01 0.16536662E+04</pdfrwt>
<pdfrwt beam="2">  1       -2 0.20400123E+00 0.16536662E+04</pdfrwt>
<totfact> 0.44413560E+00</totfact>
</mgrwt>
</event>
<event>
12    5  0.5197392E-008  0.1454548E+04  0.7818608E-02  0.8915253E-01
         -2   -1    0    0    0  501 -0.00000000000E+00  0.00000000000E+00  0.42117107745E+03  0.42117107745E+03  0.00000000000E+00 0.  1.
          1   -1    0    0  501    0  0.00000000000E+00 -0.00000000000E+00 -0.12558499037E+04  0.12558499037E+04  0.00000000000E+00 0. -1.
        -24    2    1    2    0    0 -0.15079220679E+03 -0.33830746881E+01  0.22325388096E+03  0.28093507694E+03  0.79576926702E+02 0.  0.
        254    2    1    2    0    0  0.15079220679E+03  0.33830746881E+01 -0.10579327073E+04  0.13960859043E+04  0.89837881995E+03 0.  0.
         23    2    4    4    0    0 -0.22582136472E+03  0.10185419629E+03 -0.94267669777E+03  0.97965112593E+03  0.98526168858E+02 0.  0.
         23    2    4    4    0    0  0.37661357152E+03 -0.98471121601E+02 -0.11525600950E+03  0.41643477833E+03  0.92734205321E+02 0.  0.
          1    1    3    3  502    0 -0.35642372837E+02  0.13223594687E+02  0.11826630185E+03  0.12422624663E+03  0.00000000000E+00 0. -1.
         -2    1    3    3    0  502 -0.11514983396E+03 -0.16606669375E+02  0.10498757911E+03  0.15670883031E+03  0.00000000000E+00 0.  1.
         13    1    5    5    0    0 -0.40513093173E+02  0.62739477221E+02 -0.20971391294E+03  0.22261508934E+03  0.00000000000E+00 0. -1.
        -13    1    5    5    0    0 -0.18530827155E+03  0.39114719068E+02 -0.73296278482E+03  0.75703603658E+03  0.00000000000E+00 0.  1.
          2    1    6    6  503    0  0.10104064452E+03 -0.59883417795E+02 -0.63092111748E+02  0.13332610448E+03  0.00000000000E+00 0. -1.
         -2    1    6    6    0  503  0.27557292699E+03 -0.38587703806E+02 -0.52163897748E+02  0.28310867384E+03  0.00000000000E+00 0.  1.
<mgrwt>
<rscale>  0 0.14545483E+04</rscale>
<asrwt>0</asrwt>
<pdfrwt beam="1">  1        1 0.19320768E+00 0.14545483E+04</pdfrwt>
<pdfrwt beam="2">  1       -2 0.64795550E-01 0.14545483E+04</pdfrwt>
<totfact> 0.18215495E+01</totfact>
</mgrwt>
</event>
<event>
12    5  0.5197392E-008  0.1040314E+04  0.7818608E-02  0.9265402E-01
         -2   -1    0    0    0  501 -0.00000000000E+00  0.00000000000E+00  0.11849975993E+03  0.11849975993E+03  0.00000000000E+00 0.  1.
          1   -1    0    0  501    0  0.00000000000E+00 -0.00000000000E+00 -0.22832401269E+04  0.22832401269E+04  0.00000000000E+00 0. -1.
        -24    2    1    2    0    0  0.90423360050E+01 -0.31881447779E+02 -0.47432189779E+03  0.48262652405E+03  0.82758132148E+02 0.  0.
        254    2    1    2    0    0 -0.90423360050E+01  0.31881447779E+02 -0.16904184692E+04  0.19191133628E+04  0.90795556483E+03 0.  0.
         23    2    4    4    0    0  0.28099349236E+03 -0.29662337795E+03 -0.11092325245E+04  0.11855842437E+04  0.90941929457E+02 0.  0.
         23    2    4    4    0    0 -0.29003582837E+03  0.32850482573E+03 -0.58118594468E+03  0.73352911903E+03  0.90838669672E+02 0.  0.
          3    1    3    3  502    0  0.30607818908E+01 -0.60096076842E+02 -0.33262806625E+03  0.33802712509E+03  0.00000000000E+00 0. -1.
         -4    1    3    3    0  502  0.59815541142E+01  0.28214629062E+02 -0.14169383154E+03  0.14459939896E+03  0.00000000000E+00 0.  1.
         13    1    5    5    0    0 -0.23453012292E-01  0.53990815758E+01 -0.83467321760E+01  0.99407529858E+01  0.00000000000E+00 0. -1.
        -13    1    5    5    0    0  0.28101694537E+03 -0.30202245952E+03 -0.11008857923E+04  0.11756434907E+04  0.00000000000E+00 0.  1.
          2    1    6    6  503    0 -0.35494564314E+02  0.73585033521E+02 -0.15723343379E+03  0.17719191279E+03  0.00000000000E+00 0. -1.
         -2    1    6    6    0  503 -0.25454126405E+03  0.25491979220E+03 -0.42395251089E+03  0.55633720624E+03  0.00000000000E+00 0.  1.
<mgrwt>
<rscale>  0 0.10403142E+04</rscale>
<asrwt>0</asrwt>
<pdfrwt beam="1">  1        1 0.35126772E+00 0.10403142E+04</pdfrwt>
<pdfrwt beam="2">  1       -2 0.18230732E-01 0.10403142E+04</pdfrwt>
<totfact> 0.42489526E+01</totfact>
</mgrwt>
</event>
<event>
12    5  0.5197392E-008  0.1569587E+04  0.7818608E-02  0.8839453E-01
          1   -1    0    0  501    0  0.00000000000E+00  0.00000000000E+00  0.21552835503E+04  0.21552835503E+04  0.00000000000E+00 0. -1.
         -2   -1    0    0    0  501 -0.00000000000E+00 -0.00000000000E+00 -0.28576312124E+03  0.28576312124E+03  0.00000000000E+00 0.  1.
        -24    2    1    2    0    0  0.42456586082E+03  0.36599795726E+02  0.10961920344E+04  0.11788268673E+04  0.80000571219E+02 0.  0.
        254    2    1    2    0    0 -0.42456586082E+03 -0.36599795726E+02  0.77332839462E+03  0.12622198043E+04  0.90197910905E+03 0.  0.
         23    2    4    4    0    0 -0.34450553535E+03 -0.10009969390E+03  0.96092886675E+03  0.10294255181E+04  0.87341844078E+02 0.  0.
         23    2    4    4    0    0 -0.80060325467E+02  0.63499898177E+02 -0.18760047213E+03  0.23279428619E+03  0.92505944430E+02 0.  0.
          1    1    3    3  502    0  0.24151454222E+03  0.60058951660E+02  0.64551504989E+03  0.69182803601E+03  0.00000000000E+00 0. -1.
         -2    1    3    3    0  502  0.18305131860E+03 -0.23459155934E+02  0.45067698454E+03  0.48699883124E+03  0.00000000000E+00 0.  1.
         13    1    5    5    0    0 -0.67161659068E+01 -0.94962756453E+01  0.74045834777E+01  0.13788183060E+02  0.00000000000E+00 0. -1.
        -13    1    5    5    0    0 -0.33778936944E+03 -0.90603418259E+02  0.95352428327E+03  0.10156373350E+04  0.00000000000E+00 0.  1.
          1    1    6    6  503    0 -0.94053147031E+01 -0.19654457277E+02 -0.91631582489E+01  0.23637282090E+02  0.00000000000E+00 0. -1.
         -1    1    6    6    0  503 -0.70655010764E+02  0.83154355454E+02 -0.17843731388E+03  0.20915700410E+03  0.00000000000E+00 0.  1.
<mgrwt>
<rscale>  0 0.15695866E+04</rscale>
<asrwt>0</asrwt>
<pdfrwt beam="1">  1        1 0.33158207E+00 0.15695866E+04</pdfrwt>
<pdfrwt beam="2">  1       -2 0.43963559E-01 0.15695866E+04</pdfrwt>
<totfact> 0.96923106E+00</totfact>
</mgrwt>
</event>
<event>
12    5  0.5197392E-008  0.1263555E+04  0.7818608E-02  0.9058976E-01
         -2   -1    0    0    0  501 -0.00000000000E+00  0.00000000000E+00  0.10492867226E+04  0.10492867226E+04  0.00000000000E+00 0.  1.
          1   -1    0    0  501    0  0.00000000000E+00 -0.00000000000E+00 -0.38039439030E+03  0.38039439030E+03  0.00000000000E+00 0. -1.
        -24    2    1    2    0    0 -0.20497495015E+03  0.22721334750E+03  0.11527561125E+03  0.33673862526E+03  0.80397759446E+02 0.  0.
        254    2    1    2    0    0  0.20497495015E+03 -0.22721334750E+03  0.55361672107E+03  0.10929424877E+04  0.89128624582E+03 0.  0.
         23    2    4    4    0    0  0.26858136825E+02 -0.55170363113E+03  0.32014234323E+03  0.64585374849E+03  0.97661089459E+02 0.  0.
         23    2    4    4    0    0  0.17811681333E+03  0.32449028363E+03  0.23347437784E+03  0.44708873917E+03  0.91424899359E+02 0.  0.
          3    1    3    3  502    0 -0.11770088563E+03  0.13555819028E+03  0.24948763027E+02  0.18125110264E+03  0.00000000000E+00 0. -1.
         -4    1    3    3    0  502 -0.87274064519E+02  0.91655157216E+02  0.90326848221E+02  0.15548752262E+03  0.00000000000E+00 0.  1.
         13    1    5    5    0    0 -0.18395117440E+02 -0.41659149029E+03  0.21805738763E+03  0.47056973386E+03  0.00000000000E+00 0. -1.
        -13    1    5    5    0    0  0.45253254266E+02 -0.13511214084E+03  0.10208495560E+03  0.17528401462E+03  0.00000000000E+00 0.  1.
          3    1    6    6  503    0  0.18913998378E+03  0.30758568321E+03  0.22013449692E+03  0.42289724841E+03  0.00000000000E+00 0. -1.
         -3    1    6    6    0  503 -0.11023170449E+02  0.16904600416E+02  0.13339880925E+02  0.24191490758E+02  0.00000000000E+00 0.  1.
<mgrwt>
<rscale>  0 0.12635550E+04</rscale>
<asrwt>0</asrwt>
<pdfrwt beam="1">  1        1 0.58522214E-01 0.12635550E+04</pdfrwt>
<pdfrwt beam="2">  1       -2 0.16142873E+00 0.12635550E+04</pdfrwt>
<totfact> 0.13557473E+01</totfact>
</mgrwt>
</event>
<event>
12    5  0.5197392E-008  0.1685083E+04  0.7818608E-02  0.8769918E-01
          1   -1    0    0  501    0  0.00000000000E+00  0.00000000000E+00  0.72958414290E+03  0.72958414290E+03  0.00000000000E+00 0. -1.
         -2   -1    0    0    0  501 -0.00000000000E+00 -0.00000000000E+00 -0.97298753055E+03  0.97298753055E+03  0.00000000000E+00 0.  1.
        -24    2    1    2    0    0  0.26040233700E+02 -0.37811619138E+03 -0.56750871789E+03  0.68667667825E+03  0.76215271523E+02 0.  0.
        254    2    1    2    0    0 -0.26040233700E+02  0.37811619138E+03  0.32410533024E+03  0.10158949952E+04  0.88506973072E+03 0.  0.
         23    2    4    4    0    0 -0.76685949160E+02 -0.21598262424E+03  0.33052001918E+03  0.41260836365E+03  0.92048627935E+02 0.  0.
         23    2    4    4    0    0  0.50645715461E+02  0.59409881562E+03 -0.64146889404E+01  0.60328663155E+03  0.91625435144E+02 0.  0.
          1    1    3    3  502    0 -0.35998792203E+00 -0.39439753729E+02 -0.25355025916E+02  0.46888176598E+02  0.00000000000E+00 0. -1.
         -2    1    3    3    0  502  0.26400221622E+02 -0.33867643765E+03 -0.54215369197E+03  0.63978850165E+03  0.00000000000E+00 0.  1.
         13    1    5    5    0    0 -0.45342027636E+02 -0.10600406112E+03  0.24176619536E+03  0.26785005817E+03  0.00000000000E+00 0. -1.
        -13    1    5    5    0    0 -0.31343921524E+02 -0.10997856312E+03  0.88753823815E+02  0.14475830547E+03  0.00000000000E+00 0.  1.
          3    1    6    6  503    0  0.56290337648E+02  0.45956872718E+03  0.29464567547E+02  0.46393984293E+03  0.00000000000E+00 0. -1.
         -3    1    6    6    0  503 -0.56446221876E+01  0.13453008843E+03 -0.35879256487E+02  0.13934678862E+03  0.00000000000E+00 0.  1.
<mgrwt>
<rscale>  0 0.16850831E+04</rscale>
<asrwt>0</asrwt>
<pdfrwt beam="1">  1        1 0.11224372E+00 0.16850831E+04</pdfrwt>
<pdfrwt beam="2">  1       -2 0.14969039E+00 0.16850831E+04</pdfrwt>
<totfact> 0.64238026E+00</totfact>
</mgrwt>
</event>
<event>
12    5  0.5197392E-008  0.1324016E+04  0.7818608E-02  0.9010734E-01
          1   -1    0    0  501    0  0.00000000000E+00  0.00000000000E+00  0.34118648214E+04  0.34118648214E+04  0.00000000000E+00 0. -1.
         -2   -1    0    0    0  501 -0.00000000000E+00 -0.00000000000E+00 -0.12845009016E+03  0.12845009016E+03  0.00000000000E+00 0.  1.
        -24    2    1    2    0    0  0.22676015646E+03 -0.31851887441E+02  0.16050719005E+04  0.16232568809E+04  0.79198386325E+02 0.  0.
        254    2    1    2    0    0 -0.22676015646E+03  0.31851887441E+02  0.16783428307E+04  0.19170580306E+04  0.89768709697E+03 0.  0.
         23    2    4    4    0    0 -0.23478796282E+03  0.81623530260E+02  0.31758270166E+02  0.26716756020E+03  0.92639782593E+02 0.  0.
         23    2    4    4    0    0  0.80278063667E+01 -0.49771642819E+02  0.16465845606E+04  0.16498904704E+04  0.91412183241E+02 0.  0.
          3    1    3    3  502    0  0.21160322495E+03 -0.47458286561E+02  0.15225115788E+04  0.15378783182E+04  0.00000000000E+00 0. -1.
         -4    1    3    3    0  502  0.15156931508E+02  0.15606399120E+02  0.82560321635E+02  0.85378562735E+02  0.00000000000E+00 0.  1.
         13    1    5    5    0    0 -0.17916403291E+03  0.77358820614E+02  0.60628812111E+02  0.20435261357E+03  0.00000000000E+00 0. -1.
        -13    1    5    5    0    0 -0.55623929911E+02  0.42647096453E+01 -0.28870541945E+02  0.62814946623E+02  0.00000000000E+00 0.  1.
          3    1    6    6  503    0  0.43118793069E+02 -0.32133153937E+02  0.12955716208E+04  0.12966871614E+04  0.00000000000E+00 0. -1.
         -3    1    6    6    0  503 -0.35090986702E+02 -0.17638488882E+02  0.35101293976E+03  0.35320330904E+03  0.00000000000E+00 0.  1.
<mgrwt>
<rscale>  0 0.13240156E+04</rscale>
<asrwt>0</asrwt>
<pdfrwt beam="1">  1        1 0.52490221E+00 0.13240156E+04</pdfrwt>
<pdfrwt beam="2">  1       -2 0.19761555E-01 0.13240156E+04</pdfrwt>
<totfact> 0.55928665E+00</totfact>
</mgrwt>
</event>
<event>
12    5  0.5197392E-008  0.1490143E+04  0.7818608E-02  0.8891034E-01
          1   -1    0    0  501    0  0.00000000000E+00  0.00000000000E+00  0.17207468490E+04  0.17207468490E+04  0.00000000000E+00 0. -1.
         -2   -1    0    0    0  501 -0.00000000000E+00 -0.00000000000E+00 -0.32261097919E+03  0.32261097919E+03  0.00000000000E+00 0.  1.
        -24    2    1    2    0    0 -0.12606167141E+03  0.37772380384E+03  0.14207554899E+03  0.43057123903E+03  0.81481981293E+02 0.  0.
        254    2    1    2    0    0  0.12606167141E+03 -0.37772380384E+03  0.12560603209E+04  0.16127865892E+04  0.92996034093E+03 0.  0.
         23    2    4    4    0    0 -0.32808646066E+03  0.26929424282E+02  0.21567908287E+03  0.40405031965E+03  0.91505597991E+02 0.  0.
         23    2    4    4    0    0  0.45414813207E+03 -0.40465322812E+03  0.10403812380E+04  0.12087362696E+04  0.93034875575E+02 0.  0.
          1    1    3    3  502    0  0.37066618828E+01  0.94153784268E+02  0.40864033400E+02  0.10270610332E+03  0.00000000000E+00 0. -1.
         -2    1    3    3    0  502 -0.12976833329E+03  0.28357001957E+03  0.10121151559E+03  0.32786513571E+03  0.00000000000E+00 0.  1.
         13    1    5    5    0    0 -0.45691481287E+02 -0.12494512772E+02  0.68194000117E+02  0.83031596176E+02  0.00000000000E+00 0. -1.
        -13    1    5    5    0    0 -0.28239497937E+03  0.39423937054E+02  0.14748508275E+03  0.32101872348E+03  0.00000000000E+00 0.  1.
          4    1    6    6  503    0  0.23860900417E+03 -0.15619777941E+03  0.52154388785E+03  0.59442411637E+03  0.00000000000E+00 0. -1.
         -4    1    6    6    0  503  0.21553912790E+03 -0.24845544871E+03  0.51883735015E+03  0.61431215319E+03  0.00000000000E+00 0.  1.
<mgrwt>
<rscale>  0 0.14901434E+04</rscale>
<asrwt>0</asrwt>
<pdfrwt beam="1">  1        1 0.26473028E+00 0.14901434E+04</pdfrwt>
<pdfrwt beam="2">  1       -2 0.49632459E-01 0.14901434E+04</pdfrwt>
<totfact> 0.15060606E+01</totfact>
</mgrwt>
</event>
<event>
12    5  0.5197392E-008  0.1887236E+04  0.7818608E-02  0.8661236E-01
          1   -1    0    0  501    0  0.00000000000E+00  0.00000000000E+00  0.86501315302E+03  0.86501315302E+03  0.00000000000E+00 0. -1.
         -2   -1    0    0    0  501 -0.00000000000E+00 -0.00000000000E+00 -0.10293660749E+04  0.10293660749E+04  0.00000000000E+00 0.  1.
        -24    2    1    2    0    0 -0.51009671595E+03  0.26134713593E+03  0.39402195199E+03  0.70060056690E+03  0.84183553075E+02 0.  0.
        254    2    1    2    0    0  0.51009671595E+03 -0.26134713593E+03 -0.55837487385E+03  0.11937786610E+04  0.88590293297E+03 0.  0.
         23    2    4    4    0    0  0.38268764123E+02 -0.50262178720E+03 -0.32748788359E+03  0.60761026730E+03  0.88593248892E+02 0.  0.
         23    2    4    4    0    0  0.47182795183E+03  0.24127465127E+03 -0.23088699026E+03  0.58616839370E+03  0.97208590338E+02 0.  0.
          1    1    3    3  502    0 -0.34252717558E+03  0.21043445463E+03  0.30169832614E+03  0.50262252805E+03  0.00000000000E+00 0. -1.
         -2    1    3    3    0  502 -0.16756954037E+03  0.50912681299E+02  0.92323625846E+02  0.19797803885E+03  0.00000000000E+00 0.  1.
         13    1    5    5    0    0  0.21915640930E+02 -0.63719217766E+02 -0.16275822620E+02  0.69320533985E+02  0.00000000000E+00 0.  1.
        -13    1    5    5    0    0  0.16353123192E+02 -0.43890256944E+03 -0.31121206097E+03  0.53828973331E+03  0.00000000000E+00 0. -1.
          1    1    6    6  503    0  0.18362041920E+03  0.43345128170E+02 -0.92859213975E+02  0.21028098370E+03  0.00000000000E+00 0. -1.
         -1    1    6    6    0  503  0.28820753263E+03  0.19792952310E+03 -0.13802777628E+03  0.37588741001E+03  0.00000000000E+00 0.  1.
<mgrwt>
<rscale>  0 0.18872363E+04</rscale>
<asrwt>0</asrwt>
<pdfrwt beam="1">  1        1 0.13307895E+00 0.18872363E+04</pdfrwt>
<pdfrwt beam="2">  1       -2 0.15836401E+00 0.18872363E+04</pdfrwt>
<totfact> 0.41345800E+00</totfact>
</mgrwt>
</event>
<event>
12    5  0.5197392E-008  0.2011517E+04  0.7818608E-02  0.8601255E-01
         -2   -1    0    0    0  501 -0.00000000000E+00  0.00000000000E+00  0.14316595852E+04  0.14316595852E+04  0.00000000000E+00 0.  1.
          1   -1    0    0  501    0  0.00000000000E+00 -0.00000000000E+00 -0.70655804004E+03  0.70655804004E+03  0.00000000000E+00 0. -1.
        -24    2    1    2    0    0 -0.56901672563E+03  0.87203792667E+02  0.86983654730E+03  0.10461400662E+04  0.80055502722E+02 0.  0.
        254    2    1    2    0    0  0.56901672563E+03 -0.87203792667E+02 -0.14473500214E+03  0.10920775591E+04  0.91667913617E+03 0.  0.
         23    2    4    4    0    0 -0.43053013449E+02 -0.88720552300E+02  0.30071211121E+03  0.32937171667E+03  0.91285571400E+02 0.  0.
         23    2    4    4    0    0  0.61206973907E+03  0.15167596330E+01 -0.44544711335E+03  0.76270584240E+03  0.93088158136E+02 0.  0.
          3    1    3    3  502    0 -0.67918994629E+02  0.19054659711E+01  0.63745668263E+02  0.93167219848E+02  0.00000000000E+00 0. -1.
         -4    1    3    3    0  502 -0.50109773100E+03  0.85298326696E+02  0.80609087903E+03  0.95297284631E+03  0.00000000000E+00 0.  1.
         13    1    5    5    0    0  0.29201789644E+01 -0.31079863259E+02  0.15632337498E+02  0.34912108516E+02  0.00000000000E+00 0. -1.
        -13    1    5    5    0    0 -0.45973192413E+02 -0.57640689041E+02  0.28507977371E+03  0.29445960815E+03  0.00000000000E+00 0.  1.
          2    1    6    6  503    0  0.58465516011E+02  0.14408472706E+02 -0.76257110115E+02  0.97164641157E+02  0.00000000000E+00 0. -1.
         -2    1    6    6    0  503  0.55360422306E+03 -0.12891713073E+02 -0.36919000324E+03  0.66554120124E+03  0.00000000000E+00 0.  1.
<mgrwt>
<rscale>  0 0.20115174E+04</rscale>
<asrwt>0</asrwt>
<pdfrwt beam="1">  1        1 0.10870124E+00 0.20115174E+04</pdfrwt>
<pdfrwt beam="2">  1       -2 0.22025532E+00 0.20115174E+04</pdfrwt>
<totfact> 0.21459352E+00</totfact>
</mgrwt>
</event>
<event>
12    5  0.5197392E-008  0.1798856E+04  0.7818608E-02  0.8706908E-01
          1   -1    0    0  501    0  0.00000000000E+00  0.00000000000E+00  0.12773112165E+04  0.12773112165E+04  0.00000000000E+00 0. -1.
         -2   -1    0    0    0  501 -0.00000000000E+00 -0.00000000000E+00 -0.63333879345E+03  0.63333879345E+03  0.00000000000E+00 0.  1.
        -24    2    1    2    0    0 -0.60541756833E+03  0.20274600326E+03  0.43722805176E+03  0.77781157877E+03  0.78651820972E+02 0.  0.
        254    2    1    2    0    0  0.60541756833E+03 -0.20274600326E+03  0.20674437131E+03  0.11328384312E+04  0.91265727534E+03 0.  0.
         23    2    4    4    0    0 -0.16934087728E+03 -0.19040696060E+03 -0.10726432588E+03  0.29181182606E+03  0.93366818817E+02 0.  0.
         23    2    4    4    0    0  0.77475844562E+03 -0.12339042662E+02  0.31400869719E+03  0.84102660513E+03  0.91221640000E+02 0.  0.
          3    1    3    3  502    0 -0.40411037382E+03  0.17375181879E+03  0.30219059800E+03  0.53367972257E+03  0.00000000000E+00 0. -1.
         -4    1    3    3    0  502 -0.20130719452E+03  0.28994184477E+02  0.13503745376E+03  0.24413185621E+03  0.00000000000E+00 0.  1.
         13    1    5    5    0    0 -0.17317256047E+03 -0.14514882626E+03 -0.88665266366E+02  0.24273122363E+03  0.00000000000E+00 0. -1.
        -13    1    5    5    0    0  0.38316831871E+01 -0.45258134337E+02 -0.18599059516E+02  0.49080602427E+02  0.00000000000E+00 0.  1.
          2    1    6    6  503    0  0.33694814786E+02  0.14383145768E+02  0.28502639793E+02  0.46417840329E+02  0.00000000000E+00 0.  1.
         -2    1    6    6    0  503  0.74106363083E+03 -0.26722188430E+02  0.28550605739E+03  0.79460876480E+03  0.00000000000E+00 0. -1.
<mgrwt>
<rscale>  0 0.17988560E+04</rscale>
<asrwt>0</asrwt>
<pdfrwt beam="1">  1        1 0.19650942E+00 0.17988560E+04</pdfrwt>
<pdfrwt beam="2">  1       -2 0.97436737E-01 0.17988560E+04</pdfrwt>
<totfact> 0.68281846E+00</totfact>
</mgrwt>
</event>
<event>
12    5  0.5197392E-008  0.1783403E+04  0.7818608E-02  0.8715176E-01
          1   -1    0    0  501    0  0.00000000000E+00  0.00000000000E+00  0.32506070781E+04  0.32506070781E+04  0.00000000000E+00 0. -1.
         -2   -1    0    0    0  501 -0.00000000000E+00 -0.00000000000E+00 -0.24461019590E+03  0.24461019590E+03  0.00000000000E+00 0.  1.
        -24    2    1    2    0    0  0.57253102840E+03 -0.33874594105E+02  0.17802958231E+04  0.18720989363E+04  0.79761787562E+02 0.  0.
        254    2    1    2    0    0 -0.57253102840E+03  0.33874594105E+02  0.12257010590E+04  0.16231183377E+04  0.89623143519E+03 0.  0.
         23    2    4    4    0    0 -0.12090987822E+03  0.41419242628E+03  0.34542177629E+03  0.55924000360E+03  0.85197496723E+02 0.  0.
         23    2    4    4    0    0 -0.45162115018E+03 -0.38031783217E+03  0.88027928273E+03  0.10638783341E+04  0.91335520901E+02 0.  0.
          3    1    3    3  502    0  0.38756653111E+03 -0.55904764817E+01  0.10888521927E+04  0.11557846542E+04  0.00000000000E+00 0. -1.
         -2    1    3    3    0  502  0.18496449729E+03 -0.28284117624E+02  0.69144363046E+03  0.71631428205E+03  0.00000000000E+00 0.  1.
         13    1    5    5    0    0 -0.10603357831E+03  0.37721029804E+03  0.34044241386E+03  0.51906817070E+03  0.00000000000E+00 0. -1.
        -13    1    5    5    0    0 -0.14876299913E+02  0.36982128238E+02  0.49793624295E+01  0.40171832897E+02  0.00000000000E+00 0.  1.
          1    1    6    6  503    0 -0.42807352625E+03 -0.35151253569E+03  0.77794251342E+03  0.95498825166E+03  0.00000000000E+00 0. -1.
         -1    1    6    6    0  503 -0.23547623931E+02 -0.28805296480E+02  0.10233676931E+03  0.10889008242E+03  0.00000000000E+00 0.  1.
<mgrwt>
<rscale>  0 0.17834031E+04</rscale>
<asrwt>0</asrwt>
<pdfrwt beam="1">  1        1 0.50009337E+00 0.17834031E+04</pdfrwt>
<pdfrwt beam="2">  1       -2 0.37632340E-01 0.17834031E+04</pdfrwt>
<totfact> 0.21631750E+00</totfact>
</mgrwt>
</event>
<event>
12    5  0.5197392E-008  0.3156831E+04  0.7818608E-02  0.8200312E-01
          1   -1    0    0  501    0  0.00000000000E+00  0.00000000000E+00  0.23377443381E+04  0.23377443381E+04  0.00000000000E+00 0. -1.
         -2   -1    0    0    0  501 -0.00000000000E+00 -0.00000000000E+00 -0.10657265484E+04  0.10657265484E+04  0.00000000000E+00 0.  1.
        -24    2    1    2    0    0 -0.12283219261E+04 -0.36551254186E+03  0.13225306468E+04  0.18433714801E+04  0.80974870660E+02 0.  0.
        254    2    1    2    0    0  0.12283219261E+04  0.36551254186E+03 -0.50512857084E+02  0.15600994064E+04  0.88824795911E+03 0.  0.
         23    2    4    4    0    0  0.11188617875E+04  0.48979406386E+03 -0.28806298439E+03  0.12581818049E+04  0.91056282749E+02 0.  0.
         23    2    4    4    0    0  0.10946013857E+03 -0.12428152200E+03  0.23755012730E+03  0.30191760154E+03  0.85421054151E+02 0.  0.
          1    1    3    3  502    0 -0.48745462418E+03 -0.12800455654E+03  0.57209571590E+03  0.76242421609E+03  0.00000000000E+00 0. -1.
         -2    1    3    3    0  502 -0.74086730192E+03 -0.23750798532E+03  0.75043493090E+03  0.10809472641E+04  0.00000000000E+00 0.  1.
         13    1    5    5    0    0  0.21403094625E+02  0.23054537309E+02 -0.71270510857E+00  0.31466046759E+02  0.00000000000E+00 0.  1.
        -13    1    5    5    0    0  0.10974586929E+04  0.46673952655E+03 -0.28735027928E+03  0.12267157581E+04  0.00000000000E+00 0. -1.
          3    1    6    6  503    0  0.80151025439E+02 -0.11383957527E+03  0.23162081017E+03  0.27024402950E+03  0.00000000000E+00 0. -1.
         -3    1    6    6    0  503  0.29309113132E+02 -0.10441946728E+02  0.59293171307E+01  0.31673572039E+02  0.00000000000E+00 0.  1.
<mgrwt>
<rscale>  0 0.31568315E+04</rscale>
<asrwt>0</asrwt>
<pdfrwt beam="1">  1        1 0.35965297E+00 0.31568315E+04</pdfrwt>
<pdfrwt beam="2">  1       -2 0.16395793E+00 0.31568315E+04</pdfrwt>
<totfact> 0.30510115E-01</totfact>
</mgrwt>
</event>
<event>
12    5  0.5197392E-008  0.1251163E+04  0.7818608E-02  0.9069216E-01
          1   -1    0    0  501    0  0.00000000000E+00  0.00000000000E+00  0.16033617393E+04  0.16033617393E+04  0.00000000000E+00 0. -1.
         -2   -1    0    0    0  501 -0.00000000000E+00 -0.00000000000E+00 -0.24408235686E+03  0.24408235686E+03  0.00000000000E+00 0.  1.
        -24    2    1    2    0    0  0.14303104982E+03  0.15838801935E+03  0.63311038033E+03  0.67283072814E+03  0.79547402036E+02 0.  0.
        254    2    1    2    0    0 -0.14303104982E+03 -0.15838801935E+03  0.72616900212E+03  0.11746133680E+04  0.89824857297E+03 0.  0.
         23    2    4    4    0    0  0.17410210778E+03  0.79181291022E+02  0.73790958729E+03  0.76813974177E+03  0.94587964787E+02 0.  0.
         23    2    4    4    0    0 -0.31713315760E+03 -0.23756931037E+03 -0.11740585167E+02  0.40647362627E+03  0.89835130287E+02 0.  0.
          3    1    3    3  502    0  0.19039685980E+02  0.25468338940E+02  0.20903790827E+03  0.21144264713E+03  0.00000000000E+00 0. -1.
         -4    1    3    3    0  502  0.12399136384E+03  0.13291968041E+03  0.42407247206E+03  0.46138808102E+03  0.00000000000E+00 0.  1.
         13    1    5    5    0    0  0.12507890643E+03  0.14209097512E+02  0.53284697592E+03  0.54751486832E+03  0.00000000000E+00 0.  1.
        -13    1    5    5    0    0  0.49023201351E+02  0.64972193510E+02  0.20506261138E+03  0.22062487345E+03  0.00000000000E+00 0. -1.
          4    1    6    6  503    0 -0.26336352573E+02 -0.32808409818E+02  0.24980743248E+02  0.48928854011E+02  0.00000000000E+00 0. -1.
         -4    1    6    6    0  503 -0.29079680503E+03 -0.20476090055E+03 -0.36721328415E+02  0.35754477226E+03  0.00000000000E+00 0.  1.
<mgrwt>
<rscale>  0 0.12511632E+04</rscale>
<asrwt>0</asrwt>
<pdfrwt beam="1">  1        1 0.24667103E+00 0.12511632E+04</pdfrwt>
<pdfrwt beam="2">  1       -2 0.37551133E-01 0.12511632E+04</pdfrwt>
<totfact> 0.32132445E+01</totfact>
</mgrwt>
</event>
<event>
12    5  0.5197392E-008  0.1367804E+04  0.7818608E-02  0.8977459E-01
         -2   -1    0    0    0  501 -0.00000000000E+00  0.00000000000E+00  0.23346228306E+03  0.23346228306E+03  0.00000000000E+00 0.  1.
          1   -1    0    0  501    0  0.00000000000E+00 -0.00000000000E+00 -0.20034148886E+04  0.20034148886E+04  0.00000000000E+00 0. -1.
        -24    2    1    2    0    0 -0.34508469563E+03 -0.47224187724E+02 -0.76082553746E+03  0.84140547284E+03  0.88284201433E+02 0.  0.
        254    2    1    2    0    0  0.34508469563E+03  0.47224187724E+02 -0.10091270681E+04  0.13954716989E+04  0.89871589039E+03 0.  0.
         23    2    4    4    0    0  0.39922916267E+02  0.44294843125E+03 -0.43048356034E+03  0.62579286187E+03  0.92214197699E+02 0.  0.
         23    2    4    4    0    0  0.30516177936E+03 -0.39572424353E+03 -0.57864350777E+03  0.76967883698E+03  0.88633032817E+02 0.  0.
          1    1    3    3  502    0 -0.16181769748E+03 -0.71961420899E+01 -0.45112939289E+03  0.47932711253E+03  0.00000000000E+00 0. -1.
         -2    1    3    3    0  502 -0.18326699814E+03 -0.40028045634E+02 -0.30969614457E+03  0.36207836031E+03  0.00000000000E+00 0.  1.
         13    1    5    5    0    0  0.31521170606E+02  0.38796138973E+03 -0.41292223050E+03  0.56746135776E+03  0.00000000000E+00 0. -1.
        -13    1    5    5    0    0  0.84017456607E+01  0.54987041528E+02 -0.17561329841E+02  0.58331504111E+02  0.00000000000E+00 0.  1.
          2    1    6    6  503    0  0.30673137414E+03 -0.38669236769E+03 -0.57858662938E+03  0.76051141399E+03  0.00000000000E+00 0. -1.
         -2    1    6    6    0  503 -0.15695947850E+01 -0.90318758418E+01 -0.56878386780E-01  0.91674229837E+01  0.00000000000E+00 0.  1.
<mgrwt>
<rscale>  0 0.13678038E+04</rscale>
<asrwt>0</asrwt>
<pdfrwt beam="1">  1        1 0.30821768E+00 0.13678038E+04</pdfrwt>
<pdfrwt beam="2">  1       -2 0.35917274E-01 0.13678038E+04</pdfrwt>
<totfact> 0.18560827E+01</totfact>
</mgrwt>
</event>
<event>
12    5  0.5197392E-008  0.2867666E+04  0.7818608E-02  0.8282563E-01
          1   -1    0    0  501    0  0.00000000000E+00  0.00000000000E+00  0.12137660258E+04  0.12137660258E+04  0.00000000000E+00 0. -1.
         -2   -1    0    0    0  501 -0.00000000000E+00 -0.00000000000E+00 -0.16938000404E+04  0.16938000404E+04  0.00000000000E+00 0.  1.
        -24    2    1    2    0    0 -0.11540043392E+04  0.27727938221E+03 -0.85218380953E+03  0.14633851723E+04  0.81664231087E+02 0.  0.
        254    2    1    2    0    0  0.11540043392E+04 -0.27727938221E+03  0.37214979493E+03  0.14441808938E+04  0.73386178075E+03 0.  0.
         23    2    4    4    0    0 -0.83457927037E+02  0.49386582227E-01  0.31339937771E+02  0.12790114277E+03  0.91713044857E+02 0.  0.
         23    2    4    4    0    0  0.12374622663E+04 -0.27732876879E+03  0.34080985716E+03  0.13162797510E+04  0.90647215476E+02 0.  0.
          1    1    3    3  502    0 -0.32183109551E+03  0.50468189575E+02 -0.26530113443E+03  0.42012734275E+03  0.00000000000E+00 0. -1.
         -2    1    3    3    0  502 -0.83217324373E+03  0.22681119264E+03 -0.58688267510E+03  0.10432578296E+04  0.00000000000E+00 0.  1.
         13    1    5    5    0    0 -0.74776488921E+02  0.32629822676E+02  0.43001127537E+02  0.92224322132E+02  0.00000000000E+00 0. -1.
        -13    1    5    5    0    0 -0.86814381155E+01 -0.32580436093E+02 -0.11661189766E+02  0.35676820634E+02  0.00000000000E+00 0.  1.
          2    1    6    6  503    0  0.63420719397E+03 -0.17667813124E+03  0.14534632835E+03  0.67421026550E+03  0.00000000000E+00 0. -1.
         -2    1    6    6    0  503  0.60325507231E+03 -0.10065063755E+03  0.19546352880E+03  0.64206948549E+03  0.00000000000E+00 0.  1.
<mgrwt>
<rscale>  0 0.28676659E+04</rscale>
<asrwt>0</asrwt>
<pdfrwt beam="1">  1        1 0.18673323E+00 0.28676659E+04</pdfrwt>
<pdfrwt beam="2">  1       -2 0.26058462E+00 0.28676659E+04</pdfrwt>
<totfact> 0.43646484E-01</totfact>
</mgrwt>
</event>
<event>
12    5  0.5197392E-008  0.1199250E+04  0.7818608E-02  0.9113514E-01
          1   -1    0    0  501    0  0.00000000000E+00  0.00000000000E+00  0.71480434776E+03  0.71480434776E+03  0.00000000000E+00 0. -1.
         -4   -1    0    0    0  501 -0.00000000000E+00 -0.00000000000E+00 -0.50300462386E+03  0.50300462386E+03  0.00000000000E+00 0.  1.
        -24    2    1    2    0    0 -0.24547125452E+02 -0.10635589416E+03 -0.18310116556E+03  0.22848002896E+03  0.82237152272E+02 0.  0.
        254    2    1    2    0    0  0.24547125452E+02  0.10635589416E+03  0.39490088946E+03  0.98932894266E+03  0.90050591708E+03 0.  0.
         23    2    4    4    0    0 -0.11834216787E+03  0.44432640585E+03  0.39027996810E+03  0.61038471199E+03  0.93916023655E+02 0.  0.
         23    2    4    4    0    0  0.14288929332E+03 -0.33797051169E+03  0.46209213505E+01  0.37894423067E+03  0.94530207491E+02 0.  0.
          1    1    3    3  502    0  0.73337768791E+01  0.14064060036E+01  0.52657967149E+01  0.91373341956E+01  0.00000000000E+00 0. -1.
         -2    1    3    3    0  502 -0.31880902331E+02 -0.10776230016E+03 -0.18836696228E+03  0.21934269477E+03  0.00000000000E+00 0.  1.
         13    1    5    5    0    0 -0.11920870918E+03  0.36974967786E+03  0.36079145977E+03  0.53018489045E+03  0.00000000000E+00 0.  1.
        -13    1    5    5    0    0  0.86654131017E+00  0.74576727986E+02  0.29488508338E+02  0.80199821539E+02  0.00000000000E+00 0. -1.
          2    1    6    6  503    0  0.11284618158E+03 -0.22514980654E+03 -0.37915427582E+02  0.25468465940E+03  0.00000000000E+00 0.  1.
         -2    1    6    6    0  503  0.30043111737E+02 -0.11282070515E+03  0.42536348932E+02  0.12425957128E+03  0.00000000000E+00 0. -1.
<mgrwt>
<rscale>  0 0.11992496E+04</rscale>
<asrwt>0</asrwt>
<pdfrwt beam="1">  1        1 0.10996990E+00 0.11992496E+04</pdfrwt>
<pdfrwt beam="2">  1       -4 0.77385326E-01 0.11992496E+04</pdfrwt>
<totfact> 0.18905003E+01</totfact>
</mgrwt>
</event>
<event>
12    5  0.5197392E-008  0.1844992E+04  0.7818608E-02  0.8682733E-01
          1   -1    0    0  501    0  0.00000000000E+00  0.00000000000E+00  0.65050524198E+03  0.65050524198E+03  0.00000000000E+00 0. -1.
         -2   -1    0    0    0  501 -0.00000000000E+00 -0.00000000000E+00 -0.13082115979E+04  0.13082115979E+04  0.00000000000E+00 0.  1.
        -24    2    1    2    0    0 -0.10515996955E+03  0.29809858424E+03 -0.91508868325E+03  0.97154012526E+03  0.81126639619E+02 0.  0.
        254    2    1    2    0    0  0.10515996955E+03 -0.29809858424E+03  0.25738232737E+03  0.98717671457E+03  0.89908332107E+03 0.  0.
         23    2    4    4    0    0 -0.22526653859E+03 -0.44321487754E+03  0.33606069220E+03  0.60690059488E+03  0.90593057903E+02 0.  0.
         23    2    4    4    0    0  0.33042650814E+03  0.14511629330E+03 -0.78678364830E+02  0.38027611969E+03  0.90439074832E+02 0.  0.
          3    1    3    3  502    0 -0.47353164834E+01  0.11273063236E+03 -0.26186972318E+03  0.28514271973E+03  0.00000000000E+00 0. -1.
         -4    1    3    3    0  502 -0.10042465307E+03  0.18536795188E+03 -0.65321896007E+03  0.68639740553E+03  0.00000000000E+00 0.  1.
         13    1    5    5    0    0 -0.14056581902E+02 -0.63703815196E+01  0.28507354389E+02  0.32416639396E+02  0.00000000000E+00 0. -1.
        -13    1    5    5    0    0 -0.21120995669E+03 -0.43684449602E+03  0.30755333781E+03  0.57448395548E+03  0.00000000000E+00 0.  1.
          2    1    6    6  503    0  0.10290563333E+03  0.48462439982E+02  0.17384957819E+02  0.11506699882E+03  0.00000000000E+00 0. -1.
         -2    1    6    6    0  503  0.22752087481E+03  0.96653853313E+02 -0.96063322649E+02  0.26520912087E+03  0.00000000000E+00 0.  1.
<mgrwt>
<rscale>  0 0.18449916E+04</rscale>
<asrwt>0</asrwt>
<pdfrwt beam="1">  1        1 0.10007773E+00 0.18449916E+04</pdfrwt>
<pdfrwt beam="2">  1       -2 0.20126332E+00 0.18449916E+04</pdfrwt>
<totfact> 0.32649371E+00</totfact>
</mgrwt>
</event>
<event>
12    5  0.5197392E-008  0.1292924E+04  0.7818608E-02  0.9035196E-01
         -2   -1    0    0    0  501 -0.00000000000E+00  0.00000000000E+00  0.84956983989E+03  0.84956983989E+03  0.00000000000E+00 0.  1.
          1   -1    0    0  501    0  0.00000000000E+00 -0.00000000000E+00 -0.49191108838E+03  0.49191108838E+03  0.00000000000E+00 0. -1.
        -24    2    1    2    0    0 -0.16601572329E+03  0.54075884421E+02 -0.19523983357E+03  0.27366050893E+03  0.79284676210E+02 0.  0.
        254    2    1    2    0    0  0.16601572329E+03 -0.54075884421E+02  0.55289858507E+03  0.10678204193E+04  0.89669291338E+03 0.  0.
         23    2    4    4    0    0  0.38743757897E+03 -0.73011098819E+02  0.68245329971E+03  0.79356416508E+03  0.92536909749E+02 0.  0.
         23    2    4    4    0    0 -0.22142185568E+03  0.18935214399E+02 -0.12955471464E+03  0.27425625425E+03  0.95109875379E+02 0.  0.
          3    1    3    3  502    0 -0.14022488583E+03  0.20980238760E+02 -0.11289261310E+03  0.18123998211E+03  0.00000000000E+00 0. -1.
         -4    1    3    3    0  502 -0.25790837464E+02  0.33095645660E+02 -0.82347220466E+02  0.92420526818E+02  0.00000000000E+00 0.  1.
         13    1    5    5    0    0  0.22506683220E+03  0.30671248156E+01  0.35877698902E+03  0.42353915293E+03  0.00000000000E+00 0.  1.
        -13    1    5    5    0    0  0.16237074677E+03 -0.76078223635E+02  0.32367631069E+03  0.37002501215E+03  0.00000000000E+00 0. -1.
          3    1    6    6  503    0 -0.12995028949E+03  0.57803288745E+02 -0.72106737187E+02  0.15946058910E+03  0.00000000000E+00 0. -1.
         -3    1    6    6    0  503 -0.91471566187E+02 -0.38868074346E+02 -0.57447977453E+02  0.11479566515E+03  0.00000000000E+00 0.  1.
<mgrwt>
<rscale>  0 0.12929235E+04</rscale>
<asrwt>0</asrwt>
<pdfrwt beam="1">  1        1 0.75678629E-01 0.12929235E+04</pdfrwt>
<pdfrwt beam="2">  1       -2 0.13070305E+00 0.12929235E+04</pdfrwt>
<totfact> 0.16684561E+01</totfact>
</mgrwt>
</event>
<event>
12    5  0.5197392E-008  0.2057777E+04  0.7818608E-02  0.8580074E-01
         -2   -1    0    0    0  501 -0.00000000000E+00  0.00000000000E+00  0.10431003745E+04  0.10431003745E+04  0.00000000000E+00 0.  1.
          1   -1    0    0  501    0  0.00000000000E+00 -0.00000000000E+00 -0.10148701655E+04  0.10148701655E+04  0.00000000000E+00 0. -1.
        -24    2    1    2    0    0 -0.44248330292E+03  0.55056703229E+03  0.45036086442E+03  0.84119571393E+03  0.76614558192E+02 0.  0.
        254    2    1    2    0    0  0.44248330292E+03 -0.55056703229E+03 -0.42213065549E+03  0.12167748261E+04  0.89634321366E+03 0.  0.
         23    2    4    4    0    0  0.44763943354E+03 -0.57453796797E+03  0.49812879380E+02  0.73553973226E+03  0.89791066894E+02 0.  0.
         23    2    4    4    0    0 -0.51561306209E+01  0.23970935677E+02 -0.47194353487E+03  0.48123509382E+03  0.90858813419E+02 0.  0.
          3    1    3    3  502    0 -0.24534139535E+02  0.49486091824E+02  0.56607515790E+02  0.79089873755E+02  0.00000000000E+00 0. -1.
         -4    1    3    3    0  502 -0.41794916338E+03  0.50108094047E+03  0.39375334863E+03  0.76210584017E+03  0.00000000000E+00 0.  1.
         13    1    5    5    0    0  0.31199643733E+03 -0.39869137759E+03 -0.69952802577E+01  0.50630576278E+03  0.00000000000E+00 0. -1.
        -13    1    5    5    0    0  0.13564299621E+03 -0.17584659037E+03  0.56808159637E+02  0.22923396949E+03  0.00000000000E+00 0.  1.
          2    1    6    6  503    0  0.12396341420E+02  0.11191048199E+02 -0.45019199350E+03  0.45050165355E+03  0.00000000000E+00 0. -1.
         -2    1    6    6    0  503 -0.17552472041E+02  0.12779887478E+02 -0.21751541370E+02  0.30733440267E+02  0.00000000000E+00 0.  1.
<mgrwt>
<rscale>  0 0.20577769E+04</rscale>
<asrwt>0</asrwt>
<pdfrwt beam="1">  1        1 0.15613387E+00 0.20577769E+04</pdfrwt>
<pdfrwt beam="2">  1       -2 0.16047698E+00 0.20577769E+04</pdfrwt>
<totfact> 0.29784394E+00</totfact>
</mgrwt>
</event>
<event>
12    5  0.5197392E-008  0.1497774E+04  0.7818608E-02  0.8885935E-01
         -2   -1    0    0    0  501 -0.00000000000E+00  0.00000000000E+00  0.72736041381E+03  0.72736041381E+03  0.00000000000E+00 0.  1.
          1   -1    0    0  501    0  0.00000000000E+00 -0.00000000000E+00 -0.77105033684E+03  0.77105033684E+03  0.00000000000E+00 0. -1.
        -24    2    1    2    0    0  0.49857303389E+02 -0.25805781540E+03  0.37699978400E+03  0.46616846359E+03  0.78132019793E+02 0.  0.
        254    2    1    2    0    0 -0.49857303389E+02  0.25805781540E+03 -0.42068970704E+03  0.10322422871E+04  0.90524290818E+03 0.  0.
         23    2    4    4    0    0  0.33893361316E+03  0.11591190912E+03 -0.47851260235E+03  0.60437398881E+03  0.89342279674E+02 0.  0.
         23    2    4    4    0    0 -0.38879091655E+03  0.14214590628E+03  0.57822895314E+02  0.42786829825E+03  0.91454677092E+02 0.  0.
          1    1    3    3  502    0 -0.13315398967E+02 -0.12281643157E+03  0.14753892435E+03  0.19242897368E+03  0.00000000000E+00 0. -1.
         -2    1    3    3    0  502  0.63172702355E+02 -0.13524138383E+03  0.22946085965E+03  0.27373948991E+03  0.00000000000E+00 0.  1.
         13    1    5    5    0    0  0.21062767954E+03  0.62511744977E+02 -0.35990453929E+03  0.42166694802E+03  0.00000000000E+00 0. -1.
        -13    1    5    5    0    0  0.12830593362E+03  0.53400164141E+02 -0.11860806306E+03  0.18270704079E+03  0.00000000000E+00 0.  1.
          3    1    6    6  503    0 -0.12140816414E+02 -0.36804837324E+01  0.17991686017E+02  0.22014680317E+02  0.00000000000E+00 0. -1.
         -3    1    6    6    0  503 -0.37665010014E+03  0.14582639001E+03  0.39831209296E+02  0.40585361794E+03  0.00000000000E+00 0.  1.
<mgrwt>
<rscale>  0 0.14977737E+04</rscale>
<asrwt>0</asrwt>
<pdfrwt beam="1">  1        1 0.11862313E+00 0.14977737E+04</pdfrwt>
<pdfrwt beam="2">  1       -2 0.11190160E+00 0.14977737E+04</pdfrwt>
<totfact> 0.12523350E+01</totfact>
</mgrwt>
</event>
<event>
12    5  0.5197392E-008  0.4274565E+04  0.7818608E-02  0.7951338E-01
         -2   -1    0    0    0  501 -0.00000000000E+00  0.00000000000E+00  0.25255336023E+04  0.25255336023E+04  0.00000000000E+00 0.  1.
          1   -1    0    0  501    0  0.00000000000E+00 -0.00000000000E+00 -0.18087175104E+04  0.18087175104E+04  0.00000000000E+00 0. -1.
        -24    2    1    2    0    0 -0.25764885025E+03  0.16451201777E+04 -0.85480024265E+03  0.18734631402E+04  0.79858335117E+02 0.  0.
        254    2    1    2    0    0  0.25764885025E+03 -0.16451201777E+04  0.15716163346E+04  0.24607879726E+04  0.90149665207E+03 0.  0.
         23    2    4    4    0    0 -0.19307408213E+03 -0.11392883651E+04  0.70442682491E+03  0.13565094053E+04  0.92978681130E+02 0.  0.
         23    2    4    4    0    0  0.45072293238E+03 -0.50583181263E+03  0.86718950969E+03  0.11042785672E+04  0.91632548300E+02 0.  0.
          1    1    3    3  502    0 -0.22143682469E+03  0.14876691711E+04 -0.79457260813E+03  0.17010406990E+04  0.00000000000E+00 0. -1.
         -4    1    3    3    0  502 -0.36212025558E+02  0.15745100658E+03 -0.60227634527E+02  0.17242244120E+03  0.00000000000E+00 0.  1.
         13    1    5    5    0    0 -0.68304269002E+02 -0.59333838365E+03  0.32385691300E+03  0.67941092924E+03  0.00000000000E+00 0.  1.
        -13    1    5    5    0    0 -0.12476981313E+03 -0.54594998141E+03  0.38056991190E+03  0.67709847609E+03  0.00000000000E+00 0. -1.
          4    1    6    6  503    0  0.22669332592E+03 -0.22897656120E+03  0.34356939446E+03  0.47102023142E+03  0.00000000000E+00 0. -1.
         -4    1    6    6    0  503  0.22402960646E+03 -0.27685525143E+03  0.52362011523E+03  0.63325833583E+03  0.00000000000E+00 0.  1.
<mgrwt>
<rscale>  0 0.42745652E+04</rscale>
<asrwt>0</asrwt>
<pdfrwt beam="1">  1        1 0.27826423E+00 0.42745652E+04</pdfrwt>
<pdfrwt beam="2">  1       -2 0.38854363E+00 0.42745652E+04</pdfrwt>
<totfact> 0.23808226E-02</totfact>
</mgrwt>
</event>
<event>
12    5  0.5197392E-008  0.1157080E+04  0.7818608E-02  0.9151277E-01
          1   -1    0    0  501    0  0.00000000000E+00  0.00000000000E+00  0.95089270320E+03  0.95089270320E+03  0.00000000000E+00 0. -1.
         -2   -1    0    0    0  501 -0.00000000000E+00 -0.00000000000E+00 -0.35199394161E+03  0.35199394161E+03  0.00000000000E+00 0.  1.
        -24    2    1    2    0    0 -0.11007451952E+03  0.38056506789E+01 -0.87900930903E+02  0.16177439295E+03  0.79457521588E+02 0.  0.
        254    2    1    2    0    0  0.11007451952E+03 -0.38056506789E+01  0.68679969249E+03  0.11411122519E+04  0.90460625185E+03 0.  0.
         23    2    4    4    0    0 -0.33539377815E+03  0.19481267146E+03  0.19996333254E+03  0.44597211971E+03  0.92004531448E+02 0.  0.
         23    2    4    4    0    0  0.44546829767E+03 -0.19861832214E+03  0.48683635995E+03  0.69514013214E+03  0.91208112723E+02 0.  0.
          3    1    3    3  502    0 -0.72280424242E+00 -0.14237682802E+02  0.69845407827E+01  0.15875070630E+02  0.00000000000E+00 0. -1.
         -4    1    3    3    0  502 -0.10935171528E+03  0.18043333481E+02 -0.94885471686E+02  0.14589932232E+03  0.00000000000E+00 0.  1.
         13    1    5    5    0    0 -0.15152521845E+03  0.66544096741E+02  0.39121417290E+02  0.17005438521E+03  0.00000000000E+00 0. -1.
        -13    1    5    5    0    0 -0.18386855970E+03  0.12826857472E+03  0.16084191525E+03  0.27591773450E+03  0.00000000000E+00 0.  1.
          4    1    6    6  503    0  0.14753927585E+03 -0.10094253320E+03  0.13597960522E+03  0.22460562318E+03  0.00000000000E+00 0.  1.
         -4    1    6    6    0  503  0.29792902182E+03 -0.97675788945E+02  0.35085675473E+03  0.47053450897E+03  0.00000000000E+00 0. -1.
<mgrwt>
<rscale>  0 0.11570799E+04</rscale>
<asrwt>0</asrwt>
<pdfrwt beam="1">  1        1 0.14629118E+00 0.11570799E+04</pdfrwt>
<pdfrwt beam="2">  1       -2 0.54152914E-01 0.11570799E+04</pdfrwt>
<totfact> 0.46233325E+01</totfact>
</mgrwt>
</event>
<event>
12    5  0.5197392E-008  0.2659286E+04  0.7818608E-02  0.8348337E-01
          1   -1    0    0  501    0  0.00000000000E+00  0.00000000000E+00  0.10342331566E+04  0.10342331566E+04  0.00000000000E+00 0. -1.
         -2   -1    0    0    0  501 -0.00000000000E+00 -0.00000000000E+00 -0.17094315515E+04  0.17094315515E+04  0.00000000000E+00 0.  1.
        -24    2    1    2    0    0  0.57279433011E+03  0.96592892225E+03 -0.64844708633E+03  0.12992244247E+04  0.79927807398E+02 0.  0.
        254    2    1    2    0    0 -0.57279433011E+03 -0.96592892225E+03 -0.26751308580E+02  0.14444402834E+04  0.90806391422E+03 0.  0.
         23    2    4    4    0    0 -0.64399599228E+03 -0.35335838248E+03  0.22319248930E+03  0.77273179992E+03  0.87787030860E+02 0.  0.
         23    2    4    4    0    0  0.71201662166E+02 -0.61257053978E+03 -0.24994379788E+03  0.67170848347E+03  0.91695374823E+02 0.  0.
          3    1    3    3  502    0  0.50877313041E+03  0.82087668351E+03 -0.53282800065E+03  0.11029933391E+04  0.00000000000E+00 0. -1.
         -4    1    3    3    0  502  0.64021199701E+02  0.14505223875E+03 -0.11561908569E+03  0.19623108559E+03  0.00000000000E+00 0.  1.
         13    1    5    5    0    0 -0.39487511499E+03 -0.21582088535E+03  0.91696294015E+02  0.45925289474E+03  0.00000000000E+00 0. -1.
        -13    1    5    5    0    0 -0.24912087729E+03 -0.13753749712E+03  0.13149619528E+03  0.31347890518E+03  0.00000000000E+00 0.  1.
          4    1    6    6  503    0  0.28677806215E+02 -0.37586542648E+03 -0.10662299212E+03  0.39174698191E+03  0.00000000000E+00 0. -1.
         -4    1    6    6    0  503  0.42523855951E+02 -0.23670511330E+03 -0.14332080576E+03  0.27996150155E+03  0.00000000000E+00 0.  1.
<mgrwt>
<rscale>  0 0.26592862E+04</rscale>
<asrwt>0</asrwt>
<pdfrwt beam="1">  1        1 0.15911280E+00 0.26592862E+04</pdfrwt>
<pdfrwt beam="2">  1       -2 0.26298947E+00 0.26592862E+04</pdfrwt>
<totfact> 0.58516549E-01</totfact>
</mgrwt>
</event>
<event>
12    5  0.5197392E-008  0.2944392E+04  0.7818608E-02  0.8259791E-01
          1   -1    0    0  501    0  0.00000000000E+00  0.00000000000E+00  0.83445737759E+03  0.83445737759E+03  0.00000000000E+00 0. -1.
         -2   -1    0    0    0  501 -0.00000000000E+00 -0.00000000000E+00 -0.25973307141E+04  0.25973307141E+04  0.00000000000E+00 0.  1.
        -24    2    1    2    0    0 -0.12025557076E+04 -0.54364211375E+03 -0.92371085066E+03  0.16128594767E+04  0.79918571871E+02 0.  0.
        254    2    1    2    0    0  0.12025557076E+04  0.54364211375E+03 -0.83916248582E+03  0.18189286150E+04  0.92877373508E+03 0.  0.
         23    2    4    4    0    0  0.19098920209E+03  0.45862896324E+03 -0.10363796798E+02  0.50513443239E+03  0.90752329284E+02 0.  0.
         23    2    4    4    0    0  0.10115665055E+04  0.85013150518E+02 -0.82879868902E+03  0.13137941826E+04  0.93026105882E+02 0.  0.
          1    1    3    3  502    0 -0.94228539522E+03 -0.44595948541E+03 -0.76155240969E+03  0.12910242838E+04  0.00000000000E+00 0. -1.
         -2    1    3    3    0  502 -0.26027031241E+03 -0.97682628345E+02 -0.16215844097E+03  0.32183519289E+03  0.00000000000E+00 0.  1.
         13    1    5    5    0    0  0.19051173715E+03  0.41234419238E+03  0.10531481804E+02  0.45434938879E+03  0.00000000000E+00 0.  1.
        -13    1    5    5    0    0  0.47746493405E+00  0.46284770856E+02 -0.20895278602E+02  0.50785043604E+02  0.00000000000E+00 0. -1.
          3    1    6    6  503    0  0.64500156486E+03  0.52577125552E+02 -0.46978648969E+03  0.79968163584E+03  0.00000000000E+00 0. -1.
         -3    1    6    6    0  503  0.36656494068E+03  0.32436024966E+02 -0.35901219933E+03  0.51411254675E+03  0.00000000000E+00 0.  1.
<mgrwt>
<rscale>  0 0.29443925E+04</rscale>
<asrwt>0</asrwt>
<pdfrwt beam="1">  1        1 0.12837806E+00 0.29443925E+04</pdfrwt>
<pdfrwt beam="2">  1       -2 0.39958933E+00 0.29443925E+04</pdfrwt>
<totfact> 0.11558693E-01</totfact>
</mgrwt>
</event>
<event>
12    5  0.5197392E-008  0.3103467E+04  0.7818608E-02  0.8214787E-01
         -2   -1    0    0    0  501 -0.00000000000E+00  0.00000000000E+00  0.60344227611E+03  0.60344227611E+03  0.00000000000E+00 0.  1.
          1   -1    0    0  501    0  0.00000000000E+00 -0.00000000000E+00 -0.39902353358E+04  0.39902353358E+04  0.00000000000E+00 0. -1.
        -24    2    1    2    0    0 -0.49101064064E+03 -0.13294871959E+04 -0.14272423665E+04  0.20130643695E+04  0.82339113670E+02 0.  0.
        254    2    1    2    0    0  0.49101064064E+03  0.13294871959E+04 -0.19595506932E+04  0.25806132425E+04  0.90060986831E+03 0.  0.
         23    2    4    4    0    0 -0.65684097628E+02  0.10309155050E+04 -0.11163871992E+04  0.15237654600E+04  0.91867400918E+02 0.  0.
         23    2    4    4    0    0  0.55669473827E+03  0.29857169081E+03 -0.84316349396E+03  0.10568477824E+04  0.83357492404E+02 0.  0.
          1    1    3    3  502    0 -0.80982596520E+02 -0.27811149794E+03 -0.25523720993E+03  0.38607022620E+03  0.00000000000E+00 0. -1.
         -2    1    3    3    0  502 -0.41002804412E+03 -0.10513756979E+04 -0.11720051566E+04  0.16269941433E+04  0.00000000000E+00 0.  1.
         13    1    5    5    0    0 -0.80171677479E+02  0.59326495777E+03 -0.66885386579E+03  0.89763929380E+03  0.00000000000E+00 0.  1.
        -13    1    5    5    0    0  0.14487579850E+02  0.43765054727E+03 -0.44753333343E+03  0.62612616622E+03  0.00000000000E+00 0. -1.
          1    1    6    6  503    0  0.13816884141E+02 -0.67390214519E+00 -0.57944081264E+01  0.14997853080E+02  0.00000000000E+00 0. -1.
         -1    1    6    6    0  503  0.54287785413E+03  0.29924559295E+03 -0.83736908584E+03  0.10418499294E+04  0.00000000000E+00 0.  1.
<mgrwt>
<rscale>  0 0.31034669E+04</rscale>
<asrwt>0</asrwt>
<pdfrwt beam="1">  1        1 0.61388235E+00 0.31034669E+04</pdfrwt>
<pdfrwt beam="2">  1       -2 0.92837275E-01 0.31034669E+04</pdfrwt>
<totfact> 0.71398576E-02</totfact>
</mgrwt>
</event>
<event>
12    5  0.5197392E-008  0.1991283E+04  0.7818608E-02  0.8610707E-01
         -2   -1    0    0    0  501 -0.00000000000E+00  0.00000000000E+00  0.10956868896E+04  0.10956868896E+04  0.00000000000E+00 0.  1.
          1   -1    0    0  501    0  0.00000000000E+00 -0.00000000000E+00 -0.90473147193E+03  0.90473147193E+03  0.00000000000E+00 0. -1.
        -24    2    1    2    0    0  0.65825913934E+02 -0.63828329306E+03  0.53431362877E+03  0.83878751192E+03  0.79591602111E+02 0.  0.
        254    2    1    2    0    0 -0.65825913934E+02  0.63828329306E+03 -0.34335821107E+03  0.11616308496E+04  0.90540198618E+03 0.  0.
         23    2    4    4    0    0 -0.18049576520E+03 -0.75970297522E+02 -0.37622585831E+03  0.43188139137E+03  0.81396759083E+02 0.  0.
         23    2    4    4    0    0  0.11466985127E+03  0.71425359058E+03  0.32867647247E+02  0.72974945827E+03  0.90258645871E+02 0.  0.
          3    1    3    3  502    0 -0.60008735034E+01 -0.10852433180E+03  0.60281256944E+02  0.12428745317E+03  0.00000000000E+00 0. -1.
         -4    1    3    3    0  502  0.71826787438E+02 -0.52975896126E+03  0.47403237182E+03  0.71450005876E+03  0.00000000000E+00 0.  1.
         13    1    5    5    0    0 -0.34008742944E+01 -0.36271674626E+01  0.39088510282E+01  0.63246664836E+01  0.00000000000E+00 0.  1.
        -13    1    5    5    0    0 -0.17709489091E+03 -0.72343130059E+02 -0.38013470934E+03  0.42555672489E+03  0.00000000000E+00 0. -1.
          3    1    6    6  503    0  0.65211346111E+02  0.60919452776E+03  0.34117101161E+02  0.61362404525E+03  0.00000000000E+00 0. -1.
         -3    1    6    6    0  503  0.49458505159E+02  0.10505906282E+03 -0.12494539141E+01  0.11612541302E+03  0.00000000000E+00 0.  1.
<mgrwt>
<rscale>  0 0.19912834E+04</rscale>
<asrwt>0</asrwt>
<pdfrwt beam="1">  1        1 0.13918946E+00 0.19912834E+04</pdfrwt>
<pdfrwt beam="2">  1       -2 0.16856721E+00 0.19912834E+04</pdfrwt>
<totfact> 0.32010416E+00</totfact>
</mgrwt>
</event>
<event>
12    5  0.5197392E-008  0.1553036E+04  0.7818608E-02  0.8849931E-01
          1   -1    0    0  501    0  0.00000000000E+00  0.00000000000E+00  0.83174518777E+03  0.83174518777E+03  0.00000000000E+00 0. -1.
         -2   -1    0    0    0  501 -0.00000000000E+00 -0.00000000000E+00 -0.72495742484E+03  0.72495742484E+03  0.00000000000E+00 0.  1.
        -24    2    1    2    0    0  0.11297090794E+03 -0.13799878043E+03 -0.44765768586E+03  0.49326217023E+03  0.10537587688E+03 0.  0.
        254    2    1    2    0    0 -0.11297090794E+03  0.13799878043E+03  0.55444544879E+03  0.10634404424E+04  0.88976948103E+03 0.  0.
         23    2    4    4    0    0 -0.88410276451E+02  0.47243800674E+03  0.51981019047E+03  0.71390643794E+03  0.91900602903E+02 0.  0.
         23    2    4    4    0    0 -0.24560631488E+02 -0.33443922631E+03  0.34635258313E+02  0.34953400444E+03  0.92312504207E+02 0.  0.
          1    1    3    3  502    0  0.81779186437E+02 -0.23480529803E+02 -0.14436090682E+03  0.16756861888E+03  0.00000000000E+00 0. -1.
         -2    1    3    3    0  502  0.31191721501E+02 -0.11451825063E+03 -0.30329677904E+03  0.32569355135E+03  0.00000000000E+00 0.  1.
         13    1    5    5    0    0 -0.87694983827E+02  0.45128433899E+03  0.45950386065E+03  0.64999366363E+03  0.00000000000E+00 0.  1.
        -13    1    5    5    0    0 -0.71529262370E+00  0.21153667748E+02  0.60306329827E+02  0.63912774310E+02  0.00000000000E+00 0. -1.
          4    1    6    6  503    0  0.84715026019E+01 -0.83227839059E+02 -0.28559233679E+02  0.88398356201E+02  0.00000000000E+00 0. -1.
         -4    1    6    6    0  503 -0.33032134089E+02 -0.25121138725E+03  0.63194491992E+02  0.26113564824E+03  0.00000000000E+00 0.  1.
<mgrwt>
<rscale>  0 0.15530355E+04</rscale>
<asrwt>0</asrwt>
<pdfrwt beam="1">  1        1 0.12796080E+00 0.15530355E+04</pdfrwt>
<pdfrwt beam="2">  1       -2 0.11153191E+00 0.15530355E+04</pdfrwt>
<totfact> 0.11127904E+01</totfact>
</mgrwt>
</event>
<event>
12    5  0.5197392E-008  0.2226438E+04  0.7818608E-02  0.8507504E-01
         -2   -1    0    0    0  501 -0.00000000000E+00  0.00000000000E+00  0.35489643047E+03  0.35489643047E+03  0.00000000000E+00 0.  1.
          1   -1    0    0  501    0  0.00000000000E+00 -0.00000000000E+00 -0.34918816755E+04  0.34918816755E+04  0.00000000000E+00 0. -1.
        -24    2    1    2    0    0  0.70258523962E+03 -0.85444575000E+02 -0.23278680658E+04  0.24344691296E+04  0.82118308318E+02 0.  0.
        254    2    1    2    0    0 -0.70258523962E+03  0.85444575000E+02 -0.80911717921E+03  0.14123089764E+04  0.91597993474E+03 0.  0.
         23    2    4    4    0    0 -0.54335105875E+03 -0.37167246245E+03 -0.44689969168E+03  0.80095989536E+03  0.91905533902E+02 0.  0.
         23    2    4    4    0    0 -0.15923418088E+03  0.45711703745E+03 -0.36221748752E+03  0.61134908106E+03  0.90745139567E+02 0.  0.
          1    1    3    3  502    0  0.55823462974E+03 -0.10097097288E+03 -0.18438878505E+04  0.19291820661E+04  0.00000000000E+00 0. -1.
         -2    1    3    3    0  502  0.14435060988E+03  0.15526397881E+02 -0.48398021536E+03  0.50528706343E+03  0.00000000000E+00 0.  1.
         13    1    5    5    0    0 -0.42159446256E+03 -0.33049593817E+03 -0.37209825801E+03  0.65224732244E+03  0.00000000000E+00 0.  1.
        -13    1    5    5    0    0 -0.12175659618E+03 -0.41176524283E+02 -0.74801433673E+02  0.14871257292E+03  0.00000000000E+00 0. -1.
          2    1    6    6  503    0 -0.26960525283E+02  0.18175023808E+02 -0.12856170056E+02  0.34964017539E+02  0.00000000000E+00 0. -1.
         -2    1    6    6    0  503 -0.13227365559E+03  0.43894201364E+03 -0.34936131747E+03  0.57638506352E+03  0.00000000000E+00 0.  1.
<mgrwt>
<rscale>  0 0.22264378E+04</rscale>
<asrwt>0</asrwt>
<pdfrwt beam="1">  1        1 0.53721257E+00 0.22264378E+04</pdfrwt>
<pdfrwt beam="2">  1       -2 0.54599450E-01 0.22264378E+04</pdfrwt>
<totfact> 0.64158197E-01</totfact>
</mgrwt>
</event>
<event>
12    5  0.5197392E-008  0.2183044E+04  0.7818608E-02  0.8525519E-01
         -2   -1    0    0    0  501 -0.00000000000E+00  0.00000000000E+00  0.75745364366E+03  0.75745364366E+03  0.00000000000E+00 0.  1.
          1   -1    0    0  501    0  0.00000000000E+00 -0.00000000000E+00 -0.15729277091E+04  0.15729277091E+04  0.00000000000E+00 0. -1.
        -24    2    1    2    0    0 -0.57187575226E+03 -0.35999080532E+03 -0.99410513752E+03  0.12046136156E+04  0.78826915476E+02 0.  0.
        254    2    1    2    0    0  0.57187575226E+03  0.35999080532E+03  0.17863107212E+03  0.11257677371E+04  0.88250137789E+03 0.  0.
         23    2    4    4    0    0 -0.37802145280E+01 -0.15271384383E+03 -0.19536402080E+03  0.26383822025E+03  0.90042754976E+02 0.  0.
         23    2    4    4    0    0  0.57565596679E+03  0.51270464915E+03  0.37399509292E+03  0.86192951683E+03  0.93831301183E+02 0.  0.
          1    1    3    3  502    0 -0.46476604044E+03 -0.27101952911E+03 -0.74074475417E+03  0.91551179584E+03  0.00000000000E+00 0. -1.
         -2    1    3    3    0  502 -0.10710971183E+03 -0.88971276212E+02 -0.25336038335E+03  0.28910181980E+03  0.00000000000E+00 0.  1.
         13    1    5    5    0    0 -0.12586101595E+02 -0.27366393555E+01 -0.60801812691E+02  0.62151102765E+02  0.00000000000E+00 0.  1.
        -13    1    5    5    0    0  0.88058870670E+01 -0.14997720448E+03 -0.13456220811E+03  0.20168711749E+03  0.00000000000E+00 0. -1.
          1    1    6    6  503    0  0.42699974338E+03  0.32520569020E+03  0.24365003472E+03  0.58945132217E+03  0.00000000000E+00 0. -1.
         -1    1    6    6    0  503  0.14865622341E+03  0.18749895895E+03  0.13034505820E+03  0.27247819465E+03  0.00000000000E+00 0.  1.
<mgrwt>
<rscale>  0 0.21830436E+04</rscale>
<asrwt>0</asrwt>
<pdfrwt beam="1">  1        1 0.24198888E+00 0.21830436E+04</pdfrwt>
<pdfrwt beam="2">  1       -2 0.11653133E+00 0.21830436E+04</pdfrwt>
<totfact> 0.26656580E+00</totfact>
</mgrwt>
</event>
<event>
12    5  0.5197392E-008  0.1867279E+04  0.7818608E-02  0.8671317E-01
          1   -1    0    0  501    0  0.00000000000E+00  0.00000000000E+00  0.20439031240E+04  0.20439031240E+04  0.00000000000E+00 0. -1.
         -2   -1    0    0    0  501 -0.00000000000E+00 -0.00000000000E+00 -0.42647952964E+03  0.42647952964E+03  0.00000000000E+00 0.  1.
        -24    2    1    2    0    0  0.51031486263E+03  0.24954123476E+03  0.45189886495E+02  0.57512361957E+03  0.77672164141E+02 0.  0.
        254    2    1    2    0    0 -0.51031486263E+03 -0.24954123476E+03  0.15722337079E+04  0.18952590341E+04  0.89297026108E+03 0.  0.
         23    2    4    4    0    0 -0.30469543949E+03 -0.57349521229E+03  0.10884320672E+04  0.12707409143E+04  0.91444174876E+02 0.  0.
         23    2    4    4    0    0 -0.20561942314E+03  0.32395397752E+03  0.48380164072E+03  0.62451811976E+03  0.93452274565E+02 0.  0.
          1    1    3    3  502    0  0.10699470457E+03  0.22423261795E+02  0.23053208646E+02  0.11172340804E+03  0.00000000000E+00 0. -1.
         -2    1    3    3    0  502  0.40332015807E+03  0.22711797297E+03  0.22136677848E+02  0.46340021154E+03  0.00000000000E+00 0.  1.
         13    1    5    5    0    0 -0.26506519529E+03 -0.53656961975E+03  0.95883320430E+03  0.11302776775E+04  0.00000000000E+00 0. -1.
        -13    1    5    5    0    0 -0.39630244206E+02 -0.36925592538E+02  0.12959886288E+03  0.14046323683E+03  0.00000000000E+00 0.  1.
          1    1    6    6  503    0 -0.31465371485E+02  0.79107736097E+02  0.16963250074E+03  0.18979802112E+03  0.00000000000E+00 0. -1.
         -1    1    6    6    0  503 -0.17415405165E+03  0.24484624143E+03  0.31416913998E+03  0.43472009864E+03  0.00000000000E+00 0.  1.
<mgrwt>
<rscale>  0 0.18672791E+04</rscale>
<asrwt>0</asrwt>
<pdfrwt beam="1">  1        1 0.31444663E+00 0.18672791E+04</pdfrwt>
<pdfrwt beam="2">  1       -2 0.65612236E-01 0.18672791E+04</pdfrwt>
<totfact> 0.49048197E+00</totfact>
</mgrwt>
</event>
<event>
12    5  0.5197392E-008  0.1347486E+04  0.7818608E-02  0.8992733E-01
         -2   -1    0    0    0  501 -0.00000000000E+00  0.00000000000E+00  0.67697921923E+03  0.67697921923E+03  0.00000000000E+00 0.  1.
          1   -1    0    0  501    0  0.00000000000E+00 -0.00000000000E+00 -0.67052266293E+03  0.67052266293E+03  0.00000000000E+00 0. -1.
        -24    2    1    2    0    0 -0.17426419396E+03  0.31436567144E+03 -0.70355117534E+02  0.37521020678E+03  0.81480500925E+02 0.  0.
        254    2    1    2    0    0  0.17426419396E+03 -0.31436567144E+03  0.76811673841E+02  0.97229167538E+03  0.90014292426E+03 0.  0.
         23    2    4    4    0    0  0.44524085132E+03 -0.30467011280E+01  0.24689720406E+03  0.51701565951E+03  0.89990359105E+02 0.  0.
         23    2    4    4    0    0 -0.27097665737E+03 -0.31131897032E+03 -0.17008553022E+03  0.45527601587E+03  0.89438878123E+02 0.  0.
          1    1    3    3  502    0 -0.12539297906E+03  0.26660104470E+03 -0.82166031803E+02  0.30586070851E+03  0.00000000000E+00 0. -1.
         -2    1    3    3    0  502 -0.48871214897E+02  0.47764626747E+02  0.11810914269E+02  0.69349498265E+02  0.00000000000E+00 0.  1.
         13    1    5    5    0    0  0.43262221250E+03 -0.22802244989E+01  0.25482024190E+03  0.50209614005E+03  0.00000000000E+00 0.  1.
        -13    1    5    5    0    0  0.12618638823E+02 -0.76647662916E+00 -0.79230378439E+01  0.14919519457E+02  0.00000000000E+00 0. -1.
          2    1    6    6  503    0 -0.23145512599E+03 -0.20693175925E+03 -0.13158254057E+03  0.33720348948E+03  0.00000000000E+00 0.  1.
         -2    1    6    6    0  503 -0.39521531377E+02 -0.10438721107E+03 -0.38502989651E+02  0.11807252639E+03  0.00000000000E+00 0. -1.
<mgrwt>
<rscale>  0 0.13474864E+04</rscale>
<asrwt>0</asrwt>
<pdfrwt beam="1">  1        1 0.10315733E+00 0.13474864E+04</pdfrwt>
<pdfrwt beam="2">  1       -2 0.10415065E+00 0.13474864E+04</pdfrwt>
<totfact> 0.18680048E+01</totfact>
</mgrwt>
</event>
<event>
12    5  0.5197392E-008  0.1670025E+04  0.7818608E-02  0.8778647E-01
          1   -1    0    0  501    0  0.00000000000E+00  0.00000000000E+00  0.23225313663E+04  0.23225313663E+04  0.00000000000E+00 0. -1.
         -2   -1    0    0    0  501 -0.00000000000E+00 -0.00000000000E+00 -0.30020957246E+03  0.30020957246E+03  0.00000000000E+00 0.  1.
        -24    2    1    2    0    0 -0.19174839211E+03  0.43739722370E+03  0.17111467602E+03  0.51347002026E+03  0.79293456112E+02 0.  0.
        254    2    1    2    0    0  0.19174839211E+03 -0.43739722370E+03  0.18512071179E+04  0.21092709185E+04  0.89105119797E+03 0.  0.
         23    2    4    4    0    0  0.14157341351E+03 -0.59508292833E+03  0.18160007472E+04  0.19183618227E+04  0.89925781673E+02 0.  0.
         23    2    4    4    0    0  0.50174978599E+02  0.15768570463E+03  0.35206370699E+02  0.19090909581E+03  0.88456115706E+02 0.  0.
          3    1    3    3  502    0 -0.50012452324E+01  0.30580052586E+02  0.32412712049E+02  0.44841230719E+02  0.00000000000E+00 0. -1.
         -4    1    3    3    0  502 -0.18674714688E+03  0.40681717111E+03  0.13870196397E+03  0.46862878955E+03  0.00000000000E+00 0.  1.
         13    1    5    5    0    0 -0.38266643277E+01 -0.98306165368E+02  0.35488465032E+03  0.36826873414E+03  0.00000000000E+00 0. -1.
        -13    1    5    5    0    0  0.14540007784E+03 -0.49677676296E+03  0.14611160968E+04  0.15500930886E+04  0.00000000000E+00 0.  1.
          2    1    6    6  503    0  0.67520821506E+02  0.13223744977E+03  0.62083022657E+01  0.14860803301E+03  0.00000000000E+00 0.  1.
         -2    1    6    6    0  503 -0.17345842907E+02  0.25448254856E+02  0.28998068433E+02  0.42301062802E+02  0.00000000000E+00 0. -1.
<mgrwt>
<rscale>  0 0.16700253E+04</rscale>
<asrwt>0</asrwt>
<pdfrwt beam="1">  1        1 0.35731251E+00 0.16700253E+04</pdfrwt>
<pdfrwt beam="2">  1       -2 0.46186089E-01 0.16700253E+04</pdfrwt>
<totfact> 0.66949030E+00</totfact>
</mgrwt>
</event>
<event>
12    5  0.5197392E-008  0.1919400E+04  0.7818608E-02  0.8645260E-01
          1   -1    0    0  501    0  0.00000000000E+00  0.00000000000E+00  0.13628703528E+04  0.13628703528E+04  0.00000000000E+00 0. -1.
         -2   -1    0    0    0  501 -0.00000000000E+00 -0.00000000000E+00 -0.67579735428E+03  0.67579735428E+03  0.00000000000E+00 0.  1.
        -24    2    1    2    0    0 -0.46480455736E+03  0.37275715437E+03  0.74855447650E+03  0.96017198124E+03  0.81272729787E+02 0.  0.
        254    2    1    2    0    0  0.46480455736E+03 -0.37275715437E+03 -0.61481477928E+02  0.10784957259E+04  0.89687339460E+03 0.  0.
         23    2    4    4    0    0  0.69208858355E+03 -0.93314271066E+02 -0.14425605000E+02  0.70410957052E+03  0.88701908372E+02 0.  0.
         23    2    4    4    0    0 -0.22728402619E+03 -0.27944288331E+03 -0.47055872928E+02  0.37438615537E+03  0.90578057821E+02 0.  0.
          1    1    3    3  502    0 -0.33751433262E+03  0.22355758610E+03  0.48831269752E+03  0.63430529683E+03  0.00000000000E+00 0. -1.
         -2    1    3    3    0  502 -0.12729022474E+03  0.14919956827E+03  0.26024177898E+03  0.32586668442E+03  0.00000000000E+00 0.  1.
         13    1    5    5    0    0  0.64650753958E+03 -0.99760628379E+02 -0.31734468517E+02  0.65492843746E+03  0.00000000000E+00 0. -1.
        -13    1    5    5    0    0  0.45581043976E+02  0.64463573131E+01  0.17308863518E+02  0.49181133057E+02  0.00000000000E+00 0.  1.
          1    1    6    6  503    0 -0.13256473986E+03 -0.20540764846E+03 -0.64677274564E+02  0.25288112255E+03  0.00000000000E+00 0. -1.
         -1    1    6    6    0  503 -0.94719286337E+02 -0.74035234851E+02  0.17621401637E+02  0.12150503281E+03  0.00000000000E+00 0.  1.
<mgrwt>
<rscale>  0 0.19194001E+04</rscale>
<asrwt>0</asrwt>
<pdfrwt beam="1">  1        1 0.20967236E+00 0.19194001E+04</pdfrwt>
<pdfrwt beam="2">  1       -2 0.10396882E+00 0.19194001E+04</pdfrwt>
<totfact> 0.50345110E+00</totfact>
</mgrwt>
</event>
<event>
12    5  0.5197392E-008  0.1446563E+04  0.7818608E-02  0.8920786E-01
         -2   -1    0    0    0  501 -0.00000000000E+00  0.00000000000E+00  0.29949696068E+03  0.29949696068E+03  0.00000000000E+00 0.  1.
          1   -1    0    0  501    0  0.00000000000E+00 -0.00000000000E+00 -0.17467170008E+04  0.17467170008E+04  0.00000000000E+00 0. -1.
        -24    2    1    2    0    0  0.96314169319E+02 -0.26057379218E+03 -0.93023795471E+03  0.97411719676E+03  0.79915832375E+02 0.  0.
        254    2    1    2    0    0 -0.96314169319E+02  0.26057379218E+03 -0.51698208537E+03  0.10720967647E+04  0.89718775953E+03 0.  0.
         23    2    4    4    0    0  0.20287437504E+03  0.48766257152E+03 -0.40673890663E+03  0.67272823117E+03  0.90299164673E+02 0.  0.
         23    2    4    4    0    0 -0.29918854436E+03 -0.22708877933E+03 -0.11024317874E+03  0.39936853350E+03  0.79111113768E+02 0.  0.
          1    1    3    3  502    0  0.79951445005E+02 -0.18454978950E+03 -0.54074041836E+03  0.57693245567E+03  0.00000000000E+00 0. -1.
         -2    1    3    3    0  502  0.16362724314E+02 -0.76024002680E+02 -0.38949753635E+03  0.39718474109E+03  0.00000000000E+00 0.  1.
         13    1    5    5    0    0  0.92565406211E+02  0.13054734554E+03 -0.95645541093E+02  0.18643774668E+03  0.00000000000E+00 0. -1.
        -13    1    5    5    0    0  0.11030896883E+03  0.35711522597E+03 -0.31109336554E+03  0.48629048449E+03  0.00000000000E+00 0.  1.
          4    1    6    6  503    0 -0.89860018353E+02 -0.44484201136E+02  0.64876899838E+00  0.10027007505E+03  0.00000000000E+00 0. -1.
         -4    1    6    6    0  503 -0.20932852600E+03 -0.18260457820E+03 -0.11089194774E+03  0.29909845846E+03  0.00000000000E+00 0.  1.
<mgrwt>
<rscale>  0 0.14465634E+04</rscale>
<asrwt>0</asrwt>
<pdfrwt beam="1">  1        1 0.26872570E+00 0.14465634E+04</pdfrwt>
<pdfrwt beam="2">  1       -2 0.46076454E-01 0.14465634E+04</pdfrwt>
<totfact> 0.16869460E+01</totfact>
</mgrwt>
</event>
<event>
12    5  0.5197392E-008  0.1300210E+04  0.7818608E-02  0.9029399E-01
         -2   -1    0    0    0  501 -0.00000000000E+00  0.00000000000E+00  0.16451242849E+03  0.16451242849E+03  0.00000000000E+00 0.  1.
          1   -1    0    0  501    0  0.00000000000E+00 -0.00000000000E+00 -0.25690237442E+04  0.25690237442E+04  0.00000000000E+00 0. -1.
        -24    2    1    2    0    0  0.96006707580E+02  0.32036365659E+03 -0.68631186021E+03  0.76649428761E+03  0.68112870344E+02 0.  0.
        254    2    1    2    0    0 -0.96006707580E+02 -0.32036365659E+03 -0.17181994555E+04  0.19670418850E+04  0.89732616611E+03 0.  0.
         23    2    4    4    0    0 -0.18343622961E+03  0.27103712611E+03 -0.78546730686E+03  0.85540219210E+03  0.87430235281E+02 0.  0.
         23    2    4    4    0    0  0.87429522030E+02 -0.59140078270E+03 -0.93273214860E+03  0.11116396929E+04  0.91404260171E+02 0.  0.
          1    1    3    3  502    0  0.60993102817E+02  0.27289604098E+03 -0.52659268370E+03  0.59623171863E+03  0.00000000000E+00 0. -1.
         -2    1    3    3    0  502  0.35013604763E+02  0.47467615616E+02 -0.15971917651E+03  0.17026256898E+03  0.00000000000E+00 0.  1.
         13    1    5    5    0    0 -0.77214717032E+02  0.19010432039E+03 -0.48094391945E+03  0.52288509140E+03  0.00000000000E+00 0. -1.
        -13    1    5    5    0    0 -0.10622151258E+03  0.80932805724E+02 -0.30452338742E+03  0.33251710070E+03  0.00000000000E+00 0.  1.
          4    1    6    6  503    0  0.53156302651E+02 -0.52154184137E+03 -0.77356611160E+03  0.93447098073E+03  0.00000000000E+00 0. -1.
         -4    1    6    6    0  503  0.34273219379E+02 -0.69858941333E+02 -0.15916603700E+03  0.17716871221E+03  0.00000000000E+00 0.  1.
<mgrwt>
<rscale>  0 0.13002097E+04</rscale>
<asrwt>0</asrwt>
<pdfrwt beam="1">  1        1 0.39523439E+00 0.13002097E+04</pdfrwt>
<pdfrwt beam="2">  1       -2 0.25309607E-01 0.13002097E+04</pdfrwt>
<totfact> 0.14755173E+01</totfact>
</mgrwt>
</event>
<event>
12    5  0.5197392E-008  0.1385258E+04  0.7818608E-02  0.8964559E-01
         -2   -1    0    0    0  501 -0.00000000000E+00  0.00000000000E+00  0.86034072842E+03  0.86034072842E+03  0.00000000000E+00 0.  1.
          1   -1    0    0  501    0  0.00000000000E+00 -0.00000000000E+00 -0.55761019836E+03  0.55761019836E+03  0.00000000000E+00 0. -1.
        -24    2    1    2    0    0  0.15054044239E+03 -0.13975934664E+03 -0.26040937042E+03  0.34211571070E+03  0.83875023332E+02 0.  0.
        254    2    1    2    0    0 -0.15054044239E+03  0.13975934664E+03  0.56313990049E+03  0.10758352161E+04  0.89336429572E+03 0.  0.
         23    2    4    4    0    0  0.32900591481E+03 -0.11177203932E+03  0.16299040135E+03  0.39620369907E+03  0.98354560008E+02 0.  0.
         23    2    4    4    0    0 -0.47954635720E+03  0.25153138596E+03  0.40014949914E+03  0.67963151701E+03  0.92447987685E+02 0.  0.
          3    1    3    3  502    0  0.13599245390E+03 -0.14767586648E+03 -0.21682978891E+03  0.29549495159E+03  0.00000000000E+00 0. -1.
         -2    1    3    3    0  502  0.14547988495E+02  0.79165198410E+01 -0.43579581505E+02  0.46620759108E+02  0.00000000000E+00 0.  1.
         13    1    5    5    0    0  0.26678101018E+03 -0.10815528332E+03  0.93086782311E+02  0.30254722233E+03  0.00000000000E+00 0. -1.
        -13    1    5    5    0    0  0.62224904629E+02 -0.36167560000E+01  0.69903619040E+02  0.93656476737E+02  0.00000000000E+00 0.  1.
          3    1    6    6  503    0 -0.89324772495E+01 -0.25986237683E+01  0.24056340825E+02  0.25792431626E+02  0.00000000000E+00 0. -1.
         -3    1    6    6    0  503 -0.47061387995E+03  0.25413000972E+03  0.37609315831E+03  0.65383908538E+03  0.00000000000E+00 0.  1.
<mgrwt>
<rscale>  0 0.13852578E+04</rscale>
<asrwt>0</asrwt>
<pdfrwt beam="1">  1        1 0.85786184E-01 0.13852578E+04</pdfrwt>
<pdfrwt beam="2">  1       -2 0.13236011E+00 0.13852578E+04</pdfrwt>
<totfact> 0.13472772E+01</totfact>
</mgrwt>
</event>
<event>
12    5  0.5197392E-008  0.1626095E+04  0.7818608E-02  0.8804675E-01
          1   -1    0    0  501    0  0.00000000000E+00  0.00000000000E+00  0.11338066848E+04  0.11338066848E+04  0.00000000000E+00 0. -1.
         -2   -1    0    0    0  501 -0.00000000000E+00 -0.00000000000E+00 -0.58303286793E+03  0.58303286793E+03  0.00000000000E+00 0.  1.
        -24    2    1    2    0    0 -0.33210917861E+03 -0.30601889621E+02 -0.28103274779E+03  0.44409579666E+03  0.83717913928E+02 0.  0.
        254    2    1    2    0    0  0.33210917861E+03  0.30601889621E+02  0.83180656469E+03  0.12727437561E+04  0.90373753130E+03 0.  0.
         23    2    4    4    0    0  0.20712953518E+03  0.21172149172E+03  0.95539694102E+03  0.10043700858E+04  0.90814756185E+02 0.  0.
         23    2    4    4    0    0  0.12497964343E+03 -0.18111960210E+03 -0.12359037632E+03  0.26837367031E+03  0.91244858811E+02 0.  0.
          3    1    3    3  502    0 -0.54158370229E+01 -0.11965616975E+00  0.60499585043E+01  0.81208131466E+01  0.00000000000E+00 0. -1.
         -4    1    3    3    0  502 -0.32669334159E+03 -0.30482233451E+02 -0.28708270629E+03  0.43597498351E+03  0.00000000000E+00 0.  1.
         13    1    5    5    0    0  0.55352087844E+02  0.11826294560E+03  0.36498371957E+03  0.38763783805E+03  0.00000000000E+00 0. -1.
        -13    1    5    5    0    0  0.15177744734E+03  0.93458546120E+02  0.59041322144E+03  0.61673224775E+03  0.00000000000E+00 0.  1.
          1    1    6    6  503    0  0.13790450455E+03 -0.17681576785E+03 -0.11287803543E+03  0.25104365959E+03  0.00000000000E+00 0. -1.
         -1    1    6    6    0  503 -0.12924861123E+02 -0.43038342512E+01 -0.10712340889E+02  0.17330010722E+02  0.00000000000E+00 0.  1.
<mgrwt>
<rscale>  0 0.16260954E+04</rscale>
<asrwt>0</asrwt>
<pdfrwt beam="1">  1        1 0.17443180E+00 0.16260954E+04</pdfrwt>
<pdfrwt beam="2">  1       -2 0.89697364E-01 0.16260954E+04</pdfrwt>
<totfact> 0.10695683E+01</totfact>
</mgrwt>
</event>
<event>
12    5  0.5197392E-008  0.1108665E+04  0.7818608E-02  0.9196787E-01
          1   -1    0    0  501    0  0.00000000000E+00  0.00000000000E+00  0.45379143399E+03  0.45379143399E+03  0.00000000000E+00 0. -1.
         -2   -1    0    0    0  501 -0.00000000000E+00 -0.00000000000E+00 -0.67714941509E+03  0.67714941509E+03  0.00000000000E+00 0.  1.
        -24    2    1    2    0    0 -0.35210793536E+02  0.12089842897E+03 -0.14318322801E+03  0.20995807560E+03  0.87890423925E+02 0.  0.
        254    2    1    2    0    0  0.35210793536E+02 -0.12089842897E+03 -0.80174753094E+02  0.92098277348E+03  0.90880418568E+03 0.  0.
         23    2    4    4    0    0 -0.14852484438E+03  0.10574185079E+03  0.34227243500E+03  0.39972810498E+03  0.96908047881E+02 0.  0.
         23    2    4    4    0    0  0.18373563792E+03 -0.22664027976E+03 -0.42244718809E+03  0.52125466850E+03  0.90112161521E+02 0.  0.
          1    1    3    3  502    0  0.26748681477E+02  0.21460344811E+02 -0.18901496707E+02  0.39157437836E+02  0.00000000000E+00 0. -1.
         -2    1    3    3    0  502 -0.61959475013E+02  0.99438084160E+02 -0.12428173130E+03  0.17080063776E+03  0.00000000000E+00 0.  1.
         13    1    5    5    0    0 -0.49700448904E+02  0.71341398457E+02  0.23177245882E+03  0.24754434436E+03  0.00000000000E+00 0.  1.
        -13    1    5    5    0    0 -0.98824395477E+02  0.34400452334E+02  0.11049997618E+03  0.15218376062E+03  0.00000000000E+00 0. -1.
          4    1    6    6  503    0 -0.65072140250E+01 -0.20799312257E+02 -0.14065889014E+02  0.25938474483E+02  0.00000000000E+00 0.  1.
         -4    1    6    6    0  503  0.19024285194E+03 -0.20584096751E+03 -0.40838129908E+03  0.49531619402E+03  0.00000000000E+00 0. -1.
<mgrwt>
<rscale>  0 0.11086652E+04</rscale>
<asrwt>0</asrwt>
<pdfrwt beam="1">  1        1 0.69814067E-01 0.11086652E+04</pdfrwt>
<pdfrwt beam="2">  1       -2 0.10417683E+00 0.11086652E+04</pdfrwt>
<totfact> 0.33016330E+01</totfact>
</mgrwt>
</event>
<event>
12    5  0.5197392E-008  0.1531038E+04  0.7818608E-02  0.8864071E-01
          1   -1    0    0  501    0  0.00000000000E+00  0.00000000000E+00  0.15911352685E+04  0.15911352685E+04  0.00000000000E+00 0. -1.
         -2   -1    0    0    0  501 -0.00000000000E+00 -0.00000000000E+00 -0.36830285126E+03  0.36830285126E+03  0.00000000000E+00 0.  1.
        -24    2    1    2    0    0 -0.12495729004E+03  0.39365683895E+03  0.76674083718E+03  0.87464840771E+03  0.80859721312E+02 0.  0.
        254    2    1    2    0    0  0.12495729004E+03 -0.39365683895E+03  0.45609158007E+03  0.10847897121E+04  0.89340313340E+03 0.  0.
         23    2    4    4    0    0  0.46187723554E+03 -0.90287718609E+02  0.74914982368E+02  0.48534164364E+03  0.91988062427E+02 0.  0.
         23    2    4    4    0    0 -0.33691994550E+03 -0.30336912034E+03  0.38117659770E+03  0.59944806841E+03  0.92165694411E+02 0.  0.
          1    1    3    3  502    0 -0.28784362678E+02  0.28032809486E+02  0.10650782475E+03  0.11383450565E+03  0.00000000000E+00 0. -1.
         -2    1    3    3    0  502 -0.96172927361E+02  0.36562402946E+03  0.66023301243E+03  0.76081390207E+03  0.00000000000E+00 0.  1.
         13    1    5    5    0    0  0.16801518471E+03 -0.50830741049E+02  0.69497666868E+02  0.18879298776E+03  0.00000000000E+00 0.  1.
        -13    1    5    5    0    0  0.29386205083E+03 -0.39456977559E+02  0.54173154994E+01  0.29654865588E+03  0.00000000000E+00 0. -1.
          3    1    6    6  503    0 -0.15479985799E+02 -0.50969323562E+02  0.54838730962E+02  0.76451215282E+02  0.00000000000E+00 0. -1.
         -3    1    6    6    0  503 -0.32143995970E+03 -0.25239979678E+03  0.32633786674E+03  0.52299685312E+03  0.00000000000E+00 0.  1.
<mgrwt>
<rscale>  0 0.15310384E+04</rscale>
<asrwt>0</asrwt>
<pdfrwt beam="1">  1        1 0.24479004E+00 0.15310384E+04</pdfrwt>
<pdfrwt beam="2">  1       -2 0.56661978E-01 0.15310384E+04</pdfrwt>
<totfact> 0.14000378E+01</totfact>
</mgrwt>
</event>
<event>
12    5  0.5197392E-008  0.1141086E+04  0.7818608E-02  0.9166047E-01
          1   -1    0    0  501    0  0.00000000000E+00  0.00000000000E+00  0.56941413040E+03  0.56941413040E+03  0.00000000000E+00 0. -1.
         -2   -1    0    0    0  501 -0.00000000000E+00 -0.00000000000E+00 -0.57167425870E+03  0.57167425870E+03  0.00000000000E+00 0.  1.
        -24    2    1    2    0    0  0.84659936218E+02 -0.58264719104E+02 -0.18482017652E+03  0.22584029141E+03  0.79266999964E+02 0.  0.
        254    2    1    2    0    0 -0.84659936218E+02  0.58264719104E+02  0.18256004822E+03  0.91524809768E+03  0.89094827393E+03 0.  0.
         23    2    4    4    0    0 -0.60114789724E+02  0.39447902728E+03  0.34043022467E+03  0.53247387208E+03  0.91696214048E+02 0.  0.
         23    2    4    4    0    0 -0.24545146493E+02 -0.33621430817E+03 -0.15787017645E+03  0.38277422560E+03  0.89166080647E+02 0.  0.
          3    1    3    3  502    0 -0.96187972478E+01 -0.16765952337E+02 -0.74235721407E+01  0.20705744169E+02  0.00000000000E+00 0. -1.
         -4    1    3    3    0  502  0.94278733466E+02 -0.41498766767E+02 -0.17739660438E+03  0.20513454724E+03  0.00000000000E+00 0.  1.
         13    1    5    5    0    0  0.14445740915E+02  0.19594540504E+03  0.14627841749E+03  0.24495031458E+03  0.00000000000E+00 0. -1.
        -13    1    5    5    0    0 -0.74560530639E+02  0.19853362224E+03  0.19415180718E+03  0.28752355750E+03  0.00000000000E+00 0.  1.
          3    1    6    6  503    0 -0.17269940965E+02 -0.23748827882E+03 -0.64505287791E+02  0.24669792377E+03  0.00000000000E+00 0. -1.
         -3    1    6    6    0  503 -0.72752055282E+01 -0.98726029354E+02 -0.93364888662E+02  0.13607630184E+03  0.00000000000E+00 0.  1.
<mgrwt>
<rscale>  0 0.11410862E+04</rscale>
<asrwt>0</asrwt>
<pdfrwt beam="1">  1        1 0.87602174E-01 0.11410862E+04</pdfrwt>
<pdfrwt beam="2">  1       -2 0.87949886E-01 0.11410862E+04</pdfrwt>
<totfact> 0.35793079E+01</totfact>
</mgrwt>
</event>
<event>
12    5  0.5197392E-008  0.1643612E+04  0.7818608E-02  0.8794194E-01
         -2   -1    0    0    0  501 -0.00000000000E+00  0.00000000000E+00  0.28124801840E+03  0.28124801840E+03  0.00000000000E+00 0.  1.
          1   -1    0    0  501    0  0.00000000000E+00 -0.00000000000E+00 -0.24013152712E+04  0.24013152712E+04  0.00000000000E+00 0. -1.
        -24    2    1    2    0    0 -0.54532545476E+03  0.16496733609E+03 -0.81171609589E+03  0.99421628969E+03  0.70632405923E+02 0.  0.
        254    2    1    2    0    0  0.54532545476E+03 -0.16496733609E+03 -0.13083511569E+04  0.16883469999E+04  0.90229638630E+03 0.  0.
         23    2    4    4    0    0  0.74076216865E+03  0.26615591318E+02 -0.11104772788E+04  0.13382240168E+04  0.90811630526E+02 0.  0.
         23    2    4    4    0    0 -0.19543671389E+03 -0.19158292740E+03 -0.19787387813E+03  0.35012298311E+03  0.92371556501E+02 0.  0.
          3    1    3    3  502    0 -0.10725296100E+03  0.35914040978E+02 -0.21343907355E+03  0.24155590264E+03  0.00000000000E+00 0. -1.
         -4    1    3    3    0  502 -0.43807249376E+03  0.12905329511E+03 -0.59827702234E+03  0.75266038704E+03  0.00000000000E+00 0.  1.
         13    1    5    5    0    0  0.72152979815E+03  0.10888308361E+02 -0.10659502168E+04  0.12872348929E+04  0.00000000000E+00 0. -1.
        -13    1    5    5    0    0  0.19232370493E+02  0.15727282957E+02 -0.44527061937E+02  0.50989123828E+02  0.00000000000E+00 0.  1.
          3    1    6    6  503    0 -0.11540439686E+03 -0.55366093000E+02 -0.64326382128E+02  0.14325314135E+03  0.00000000000E+00 0. -1.
         -3    1    6    6    0  503 -0.80032317030E+02 -0.13621683440E+03 -0.13354749600E+03  0.20686984176E+03  0.00000000000E+00 0.  1.
<mgrwt>
<rscale>  0 0.16436121E+04</rscale>
<asrwt>0</asrwt>
<pdfrwt beam="1">  1        1 0.36943310E+00 0.16436121E+04</pdfrwt>
<pdfrwt beam="2">  1       -2 0.43268928E-01 0.16436121E+04</pdfrwt>
<totfact> 0.67506629E+00</totfact>
</mgrwt>
</event>
<event>
12    5  0.5197392E-008  0.1686446E+04  0.7818608E-02  0.8769133E-01
          1   -1    0    0  501    0  0.00000000000E+00  0.00000000000E+00  0.45964563415E+03  0.45964563415E+03  0.00000000000E+00 0. -1.
         -2   -1    0    0    0  501 -0.00000000000E+00 -0.00000000000E+00 -0.15468977561E+04  0.15468977561E+04  0.00000000000E+00 0.  1.
        -24    2    1    2    0    0  0.24489947401E+03  0.32894773901E+03  0.14861471661E+03  0.44336183249E+03  0.79378921294E+02 0.  0.
        254    2    1    2    0    0 -0.24489947401E+03 -0.32894773901E+03 -0.12358668385E+04  0.15631815577E+04  0.86486263215E+03 0.  0.
         23    2    4    4    0    0 -0.29493388734E+03 -0.59363864376E+03 -0.93177326612E+03  0.11471654356E+04  0.91620302354E+02 0.  0.
         23    2    4    4    0    0  0.50034413328E+02  0.26469090475E+03 -0.30409357239E+03  0.41601612216E+03  0.89620285401E+02 0.  0.
          1    1    3    3  502    0  0.24432220658E+03  0.30274163422E+03  0.15039143593E+03  0.41708922512E+03  0.00000000000E+00 0. -1.
         -2    1    3    3    0  502  0.57726743415E+00  0.26206104796E+02 -0.17767193229E+01  0.26272607366E+02  0.00000000000E+00 0.  1.
         13    1    5    5    0    0 -0.18394973612E+03 -0.38144429441E+03 -0.66783116658E+03  0.79078171591E+03  0.00000000000E+00 0. -1.
        -13    1    5    5    0    0 -0.11098415122E+03 -0.21219434936E+03 -0.26394209954E+03  0.35638371965E+03  0.00000000000E+00 0.  1.
          3    1    6    6  503    0  0.31593873458E+02  0.15176073178E+03 -0.10782378063E+03  0.18882653473E+03  0.00000000000E+00 0. -1.
         -3    1    6    6    0  503  0.18440539870E+02  0.11293017297E+03 -0.19626979176E+03  0.22718958743E+03  0.00000000000E+00 0.  1.
<mgrwt>
<rscale>  0 0.16864457E+04</rscale>
<asrwt>0</asrwt>
<pdfrwt beam="1">  1        1 0.70714712E-01 0.16864457E+04</pdfrwt>
<pdfrwt beam="2">  1       -2 0.23798427E+00 0.16864457E+04</pdfrwt>
<totfact> 0.31597446E+00</totfact>
</mgrwt>
</event>
<event>
12    5  0.5197392E-008  0.2215059E+04  0.7818608E-02  0.8512186E-01
         -2   -1    0    0    0  501 -0.00000000000E+00  0.00000000000E+00  0.12485732199E+04  0.12485732199E+04  0.00000000000E+00 0.  1.
          1   -1    0    0  501    0  0.00000000000E+00 -0.00000000000E+00 -0.98241861832E+03  0.98241861832E+03  0.00000000000E+00 0. -1.
        -24    2    1    2    0    0 -0.53648290090E+03 -0.33971791721E+03  0.78247748453E+03  0.10109822210E+04  0.81190339340E+02 0.  0.
        254    2    1    2    0    0  0.53648290090E+03  0.33971791721E+03 -0.51632288291E+03  0.12200096172E+04  0.90477178366E+03 0.  0.
         23    2    4    4    0    0 -0.18610873649E+03 -0.38018270474E+02  0.57399359809E+02  0.21885275384E+03  0.92303795510E+02 0.  0.
         23    2    4    4    0    0  0.72259163739E+03  0.37773618768E+03 -0.57372224272E+03  0.10011568634E+04  0.91293764481E+02 0.  0.
          1    1    3    3  502    0 -0.11951848617E+03 -0.10904499233E+03  0.16591190367E+03  0.23173743476E+03  0.00000000000E+00 0. -1.
         -2    1    3    3    0  502 -0.41696441473E+03 -0.23067292487E+03  0.61656558086E+03  0.77924478627E+03  0.00000000000E+00 0.  1.
         13    1    5    5    0    0 -0.59877069360E+00 -0.84858661656E+01  0.27319909961E+02  0.28613736757E+02  0.00000000000E+00 0. -1.
        -13    1    5    5    0    0 -0.18550996580E+03 -0.29532404308E+02  0.30079449847E+02  0.19023901708E+03  0.00000000000E+00 0.  1.
          4    1    6    6  503    0  0.79441402719E+02  0.53341227919E+02 -0.35912015917E+02  0.10220516596E+03  0.00000000000E+00 0. -1.
         -4    1    6    6    0  503  0.64315023467E+03  0.32439495976E+03 -0.53781022680E+03  0.89895169744E+03  0.00000000000E+00 0.  1.
<mgrwt>
<rscale>  0 0.22150590E+04</rscale>
<asrwt>0</asrwt>
<pdfrwt beam="1">  1        1 0.15114132E+00 0.22150590E+04</pdfrwt>
<pdfrwt beam="2">  1       -2 0.19208819E+00 0.22150590E+04</pdfrwt>
<totfact> 0.18712312E+00</totfact>
</mgrwt>
</event>
<event>
12    5  0.5197392E-008  0.1423007E+04  0.7818608E-02  0.8937331E-01
         -2   -1    0    0    0  501 -0.00000000000E+00  0.00000000000E+00  0.13098156811E+03  0.13098156811E+03  0.00000000000E+00 0.  1.
          1   -1    0    0  501    0  0.00000000000E+00 -0.00000000000E+00 -0.38649509852E+04  0.38649509852E+04  0.00000000000E+00 0. -1.
        -24    2    1    2    0    0  0.23011397354E+03  0.31681052517E+03 -0.66283637264E+03  0.77270342671E+03  0.66311228943E+02 0.  0.
        254    2    1    2    0    0 -0.23011397354E+03 -0.31681052517E+03 -0.30711330445E+04  0.32232291266E+04  0.89667523452E+03 0.  0.
         23    2    4    4    0    0 -0.13126545971E+01 -0.34959649896E+03 -0.28981640705E+04  0.29206226616E+04  0.91990851105E+02 0.  0.
         23    2    4    4    0    0 -0.22880131894E+03  0.32785973791E+02 -0.17296897395E+03  0.30260646502E+03  0.90705253947E+02 0.  0.
          3    1    3    3  502    0  0.31333096214E+02  0.88693494519E+02 -0.17409759821E+03  0.19788449306E+03  0.00000000000E+00 0. -1.
         -4    1    3    3    0  502  0.19878087733E+03  0.22811703065E+03 -0.48873877443E+03  0.57481893366E+03  0.00000000000E+00 0.  1.
         13    1    5    5    0    0 -0.31114262920E+02 -0.26205402553E+03 -0.23422705003E+04  0.23570896263E+04  0.00000000000E+00 0. -1.
        -13    1    5    5    0    0  0.29801608323E+02 -0.87542473429E+02 -0.55589357021E+03  0.56353303534E+03  0.00000000000E+00 0.  1.
          1    1    6    6  503    0 -0.19167914597E+03  0.14758533100E+02 -0.95110035895E+02  0.21448689523E+03  0.00000000000E+00 0. -1.
         -1    1    6    6    0  503 -0.37122172977E+02  0.18027440691E+02 -0.77858938056E+02  0.88119569788E+02  0.00000000000E+00 0.  1.
<mgrwt>
<rscale>  0 0.14230072E+04</rscale>
<asrwt>0</asrwt>
<pdfrwt beam="1">  1        1 0.59460775E+00 0.14230072E+04</pdfrwt>
<pdfrwt beam="2">  1       -2 0.20151014E-01 0.14230072E+04</pdfrwt>
<totfact> 0.23099105E+00</totfact>
</mgrwt>
</event>
<event>
12    5  0.5197392E-008  0.2046714E+04  0.7818608E-02  0.8585086E-01
         -2   -1    0    0    0  501 -0.00000000000E+00  0.00000000000E+00  0.64433759100E+03  0.64433759100E+03  0.00000000000E+00 0.  1.
          3   -1    0    0  501    0  0.00000000000E+00 -0.00000000000E+00 -0.16253279922E+04  0.16253279922E+04  0.00000000000E+00 0. -1.
        -24    2    1    2    0    0  0.11330482266E+03 -0.79897512341E+03 -0.56627557033E+03  0.98887004933E+03  0.77438506141E+02 0.  0.
        254    2    1    2    0    0 -0.11330482266E+03  0.79897512341E+03 -0.41471483091E+03  0.12807955339E+04  0.90401857173E+03 0.  0.
         23    2    4    4    0    0 -0.77518441642E+01  0.52122356683E+02 -0.50431823736E+03  0.51537816881E+03  0.92200548782E+02 0.  0.
         23    2    4    4    0    0 -0.10555297850E+03  0.74685276673E+03  0.89603406448E+02  0.76541736510E+03  0.94363583587E+02 0.  0.
          3    1    3    3  502    0  0.66507037844E+02 -0.63554121837E+03 -0.47242438043E+03  0.79468271754E+03  0.00000000000E+00 0. -1.
         -4    1    3    3    0  502  0.46797784818E+02 -0.16343390505E+03 -0.93851189898E+02  0.19418733179E+03  0.00000000000E+00 0.  1.
         13    1    5    5    0    0 -0.31736614188E+02  0.19468361259E+02 -0.42189967286E+03  0.42353932962E+03  0.00000000000E+00 0. -1.
        -13    1    5    5    0    0  0.23984770024E+02  0.32653995424E+02 -0.82418564497E+02  0.91838839192E+02  0.00000000000E+00 0.  1.
          4    1    6    6  503    0 -0.49051900244E+02  0.50345580627E+03  0.98717343493E+02  0.51538233545E+03  0.00000000000E+00 0. -1.
         -4    1    6    6    0  503 -0.56501078255E+02  0.24339696046E+03 -0.91139370450E+01  0.25003502965E+03  0.00000000000E+00 0.  1.
<mgrwt>
<rscale>  0 0.20467144E+04</rscale>
<asrwt>0</asrwt>
<pdfrwt beam="1">  1        3 0.25005046E+00 0.20467144E+04</pdfrwt>
<pdfrwt beam="2">  1       -2 0.99128860E-01 0.20467144E+04</pdfrwt>
<totfact> 0.23649773E-01</totfact>
</mgrwt>
</event>
<event>
12    5  0.5197392E-008  0.1440902E+04  0.7818608E-02  0.8924732E-01
         -2   -1    0    0    0  501 -0.00000000000E+00  0.00000000000E+00  0.89936366880E+03  0.89936366880E+03  0.00000000000E+00 0.  1.
          1   -1    0    0  501    0  0.00000000000E+00 -0.00000000000E+00 -0.57712980581E+03  0.57712980581E+03  0.00000000000E+00 0. -1.
        -24    2    1    2    0    0  0.31575554833E+03  0.61203390107E+02  0.40117718787E+03  0.52043004624E+03  0.80354686853E+02 0.  0.
        254    2    1    2    0    0 -0.31575554833E+03 -0.61203390107E+02 -0.78943324891E+02  0.95606342837E+03  0.89687112188E+03 0.  0.
         23    2    4    4    0    0 -0.19593642909E+03 -0.33187238899E+03 -0.36176162576E+03  0.53651697857E+03  0.91916416405E+02 0.  0.
         23    2    4    4    0    0 -0.11981911924E+03  0.27066899888E+03  0.28281830087E+03  0.41954644980E+03  0.91731695407E+02 0.  0.
          3    1    3    3  502    0  0.19577750509E+02 -0.16141199939E+02  0.32731463035E+02  0.41414675211E+02  0.00000000000E+00 0. -1.
         -4    1    3    3    0  502  0.29617779782E+03  0.77344590046E+02  0.36844572484E+03  0.47901537103E+03  0.00000000000E+00 0.  1.
         13    1    5    5    0    0 -0.13201935957E+03 -0.17660168474E+03 -0.25691430171E+03  0.33855904179E+03  0.00000000000E+00 0. -1.
        -13    1    5    5    0    0 -0.63917069516E+02 -0.15527070425E+03 -0.10484732405E+03  0.19795793678E+03  0.00000000000E+00 0.  1.
          3    1    6    6  503    0 -0.75924967397E+02  0.20428899227E+03  0.25452948536E+03  0.33508782723E+03  0.00000000000E+00 0. -1.
         -3    1    6    6    0  503 -0.43894151847E+02  0.66380006612E+02  0.28288815504E+02  0.84458622572E+02  0.00000000000E+00 0.  1.
<mgrwt>
<rscale>  0 0.14409019E+04</rscale>
<asrwt>0</asrwt>
<pdfrwt beam="1">  1        1 0.88789201E-01 0.14409019E+04</pdfrwt>
<pdfrwt beam="2">  1       -2 0.13836364E+00 0.14409019E+04</pdfrwt>
<totfact> 0.11399373E+01</totfact>
</mgrwt>
</event>
<event>
12    5  0.5197392E-008  0.1081857E+04  0.7818608E-02  0.9223058E-01
         -2   -1    0    0    0  501 -0.00000000000E+00  0.00000000000E+00  0.47921520681E+03  0.47921520681E+03  0.00000000000E+00 0.  1.
          1   -1    0    0  501    0  0.00000000000E+00 -0.00000000000E+00 -0.61058944942E+03  0.61058944942E+03  0.00000000000E+00 0. -1.
        -24    2    1    2    0    0 -0.11039485075E+03 -0.85395927144E+02 -0.56087955669E+02  0.17287134984E+03  0.85200688843E+02 0.  0.
        254    2    1    2    0    0  0.11039485075E+03  0.85395927144E+02 -0.75286286939E+02  0.91693330639E+03  0.90311636898E+03 0.  0.
         23    2    4    4    0    0  0.48087988611E+03 -0.30005687780E+02  0.63620837759E+02  0.49467634881E+03  0.92256560273E+02 0.  0.
         23    2    4    4    0    0 -0.37048503536E+03  0.11540161492E+03 -0.13890712470E+03  0.42225695758E+03  0.91809883906E+02 0.  0.
          3    1    3    3  502    0 -0.73665892659E+01 -0.35890330328E+02 -0.45001032000E+02  0.58029952003E+02  0.00000000000E+00 0. -1.
         -4    1    3    3    0  502 -0.10302826148E+03 -0.49505596816E+02 -0.11086923669E+02  0.11484139784E+03  0.00000000000E+00 0.  1.
         13    1    5    5    0    0  0.28755607626E+03  0.64378275808E+01  0.76184813352E+02  0.29754674994E+03  0.00000000000E+00 0. -1.
        -13    1    5    5    0    0  0.19332380985E+03 -0.36443515360E+02 -0.12563975593E+02  0.19712959887E+03  0.00000000000E+00 0.  1.
          1    1    6    6  503    0 -0.31209392135E+03  0.81484404261E+02 -0.14657253572E+03  0.35429624908E+03  0.00000000000E+00 0. -1.
         -1    1    6    6    0  503 -0.58391114006E+02  0.33917210663E+02  0.76654110259E+01  0.67960708503E+02  0.00000000000E+00 0.  1.
<mgrwt>
<rscale>  0 0.10818572E+04</rscale>
<asrwt>0</asrwt>
<pdfrwt beam="1">  1        1 0.93936838E-01 0.10818572E+04</pdfrwt>
<pdfrwt beam="2">  1       -2 0.73725416E-01 0.10818572E+04</pdfrwt>
<totfact> 0.48382715E+01</totfact>
</mgrwt>
</event>
<event>
12    5  0.5197392E-008  0.1534954E+04  0.7818608E-02  0.8861536E-01
         -2   -1    0    0    0  501 -0.00000000000E+00  0.00000000000E+00  0.11897611317E+04  0.11897611317E+04  0.00000000000E+00 0.  1.
          1   -1    0    0  501    0  0.00000000000E+00 -0.00000000000E+00 -0.49507525822E+03  0.49507525822E+03  0.00000000000E+00 0. -1.
        -24    2    1    2    0    0 -0.10202874583E+03 -0.43748142837E+03  0.35684218181E+02  0.45752417671E+03  0.79089466402E+02 0.  0.
        254    2    1    2    0    0  0.10202874583E+03  0.43748142837E+03  0.65900165532E+03  0.12273122132E+04  0.93285166125E+03 0.  0.
         23    2    4    4    0    0 -0.18509317907E+03 -0.21066737987E+03  0.32326095875E+03  0.43761674873E+03  0.91490663114E+02 0.  0.
         23    2    4    4    0    0  0.28712192490E+03  0.64814880825E+03  0.33574069657E+03  0.78969546451E+03  0.91439783129E+02 0.  0.
          3    1    3    3  502    0 -0.90904405981E+02 -0.42359402470E+03  0.47992417233E+02  0.43588849595E+03  0.00000000000E+00 0. -1.
         -4    1    3    3    0  502 -0.11124339852E+02 -0.13887403671E+02 -0.12308199052E+02  0.21635680755E+02  0.00000000000E+00 0.  1.
         13    1    5    5    0    0 -0.12948011264E+03 -0.13171098049E+03  0.27057883569E+03  0.32760614810E+03  0.00000000000E+00 0.  1.
        -13    1    5    5    0    0 -0.55613066428E+02 -0.78956399377E+02  0.52682123063E+02  0.11001060063E+03  0.00000000000E+00 0. -1.
          2    1    6    6  503    0 -0.26218955017E+01  0.30060166054E+01  0.10578158149E+02  0.11305215685E+02  0.00000000000E+00 0. -1.
         -2    1    6    6    0  503  0.28974382041E+03  0.64514279164E+03  0.32516253842E+03  0.77839024882E+03  0.00000000000E+00 0.  1.
<mgrwt>
<rscale>  0 0.15349545E+04</rscale>
<asrwt>0</asrwt>
<pdfrwt beam="1">  1        1 0.76165425E-01 0.15349545E+04</pdfrwt>
<pdfrwt beam="2">  1       -2 0.18304017E+00 0.15349545E+04</pdfrwt>
<totfact> 0.65439527E+00</totfact>
</mgrwt>
</event>
<event>
12    5  0.5197392E-008  0.1722210E+04  0.7818608E-02  0.8748798E-01
          1   -1    0    0  501    0  0.00000000000E+00  0.00000000000E+00  0.54120799396E+03  0.54120799396E+03  0.00000000000E+00 0. -1.
         -2   -1    0    0    0  501 -0.00000000000E+00 -0.00000000000E+00 -0.13700863631E+04  0.13700863631E+04  0.00000000000E+00 0.  1.
        -24    2    1    2    0    0  0.22983881591E+03 -0.53205088270E+03 -0.35490602871E+02  0.58615552146E+03  0.80091755951E+02 0.  0.
        254    2    1    2    0    0 -0.22983881591E+03  0.53205088270E+03 -0.79338776630E+03  0.13251388356E+04  0.88917082887E+03 0.  0.
         23    2    4    4    0    0 -0.52775932176E+03  0.13318865007E+03 -0.41175463392E+03  0.69011578149E+03  0.10221934791E+03 0.  0.
         23    2    4    4    0    0  0.29792050585E+03  0.39886223262E+03 -0.38163313238E+03  0.63502305414E+03  0.98806493451E+02 0.  0.
          3    1    3    3  502    0  0.15640290982E+03 -0.36093957833E+03  0.13548309518E+02  0.39360234513E+03  0.00000000000E+00 0. -1.
         -4    1    3    3    0  502  0.73435906089E+02 -0.17111130437E+03 -0.49038912389E+02  0.19255317633E+03  0.00000000000E+00 0.  1.
         13    1    5    5    0    0 -0.40478724627E+03  0.56762734327E+02 -0.29418325098E+03  0.50360550821E+03  0.00000000000E+00 0.  1.
        -13    1    5    5    0    0 -0.12297207550E+03  0.76425915745E+02 -0.11757138295E+03  0.18651027328E+03  0.00000000000E+00 0. -1.
          2    1    6    6  503    0  0.15054772871E+03  0.18928341468E+03 -0.12442226957E+03  0.27198112225E+03  0.00000000000E+00 0. -1.
         -2    1    6    6    0  503  0.14737277714E+03  0.20957881794E+03 -0.25721086280E+03  0.36304193190E+03  0.00000000000E+00 0.  1.
<mgrwt>
<rscale>  0 0.17222099E+04</rscale>
<asrwt>0</asrwt>
<pdfrwt beam="1">  1        1 0.83262770E-01 0.17222099E+04</pdfrwt>
<pdfrwt beam="2">  1       -2 0.21078251E+00 0.17222099E+04</pdfrwt>
<totfact> 0.37306372E+00</totfact>
</mgrwt>
</event>
<event>
12    5  0.5197392E-008  0.2308062E+04  0.7818608E-02  0.8474749E-01
          1   -1    0    0  501    0  0.00000000000E+00  0.00000000000E+00  0.14795863675E+04  0.14795863675E+04  0.00000000000E+00 0. -1.
         -2   -1    0    0    0  501 -0.00000000000E+00 -0.00000000000E+00 -0.90010832839E+03  0.90010832839E+03  0.00000000000E+00 0.  1.
        -24    2    1    2    0    0  0.88158358681E+02  0.22179244659E+03 -0.72940297611E+03  0.77166999639E+03  0.80511466187E+02 0.  0.
        254    2    1    2    0    0 -0.88158358681E+02 -0.22179244659E+03  0.13088810152E+04  0.16080246995E+04  0.90311136448E+03 0.  0.
         23    2    4    4    0    0  0.11360980566E+03  0.31517803782E+03  0.40794568706E+03  0.53537659695E+03  0.89241433783E+02 0.  0.
         23    2    4    4    0    0 -0.20176816434E+03 -0.53697048441E+03  0.90093532818E+03  0.10726481026E+04  0.99205811988E+02 0.  0.
          1    1    3    3  502    0  0.27436972759E+02  0.67312002366E+02 -0.12216380288E+03  0.14215374730E+03  0.00000000000E+00 0. -1.
         -2    1    3    3    0  502  0.60721385922E+02  0.15448044423E+03 -0.60723917323E+03  0.62951624909E+03  0.00000000000E+00 0.  1.
         13    1    5    5    0    0  0.94958619167E+02  0.30830123970E+03  0.40022954554E+03  0.51405299618E+03  0.00000000000E+00 0.  1.
        -13    1    5    5    0    0  0.18651186489E+02  0.68767981162E+01  0.77161415174E+01  0.21323600768E+02  0.00000000000E+00 0. -1.
          1    1    6    6  503    0 -0.85233005456E+01 -0.41368584384E+02  0.12450143297E+03  0.13147095968E+03  0.00000000000E+00 0. -1.
         -1    1    6    6    0  503 -0.19324486379E+03 -0.49560190003E+03  0.77643389521E+03  0.94117714290E+03  0.00000000000E+00 0.  1.
<mgrwt>
<rscale>  0 0.23080624E+04</rscale>
<asrwt>0</asrwt>
<pdfrwt beam="1">  1        1 0.22762867E+00 0.23080624E+04</pdfrwt>
<pdfrwt beam="2">  1       -2 0.13847820E+00 0.23080624E+04</pdfrwt>
<totfact> 0.19804941E+00</totfact>
</mgrwt>
</event>
<event>
12    5  0.5197392E-008  0.2591495E+04  0.7818608E-02  0.8371096E-01
          1   -1    0    0  501    0  0.00000000000E+00  0.00000000000E+00  0.11104390252E+04  0.11104390252E+04  0.00000000000E+00 0. -1.
         -2   -1    0    0    0  501 -0.00000000000E+00 -0.00000000000E+00 -0.15119804327E+04  0.15119804327E+04  0.00000000000E+00 0.  1.
        -24    2    1    2    0    0  0.85934408556E+03  0.18881850577E+03  0.55653038874E+03  0.10440019566E+04  0.78034135463E+02 0.  0.
        254    2    1    2    0    0 -0.85934408556E+03 -0.18881850577E+03 -0.95807179622E+03  0.15784175013E+04  0.89407804811E+03 0.  0.
         23    2    4    4    0    0 -0.73615895860E+02 -0.20417862535E+03  0.10032086949E+03  0.25700093607E+03  0.94217796159E+02 0.  0.
         23    2    4    4    0    0 -0.78572818970E+03  0.15360119582E+02 -0.10583926657E+04  0.13214165652E+04  0.91334454652E+02 0.  0.
          3    1    3    3  502    0  0.73315282289E+03  0.14504457330E+03  0.49857118657E+03  0.89840092277E+03  0.00000000000E+00 0. -1.
         -4    1    3    3    0  502  0.12619126267E+03  0.43773932469E+02  0.57959202174E+02  0.14560103384E+03  0.00000000000E+00 0.  1.
         13    1    5    5    0    0 -0.56744546207E+02 -0.87664844648E+02  0.33561862358E+01  0.10448125429E+03  0.00000000000E+00 0. -1.
        -13    1    5    5    0    0 -0.16871349653E+02 -0.11651378070E+03  0.96964683257E+02  0.15251968178E+03  0.00000000000E+00 0.  1.
          3    1    6    6  503    0 -0.25918092590E+03  0.38407346393E+02 -0.39777282338E+03  0.47631197301E+03  0.00000000000E+00 0. -1.
         -3    1    6    6    0  503 -0.52654726380E+03 -0.23047226811E+02 -0.66061984233E+03  0.84510459220E+03  0.00000000000E+00 0.  1.
<mgrwt>
<rscale>  0 0.25914954E+04</rscale>
<asrwt>0</asrwt>
<pdfrwt beam="1">  1        1 0.17083677E+00 0.25914954E+04</pdfrwt>
<pdfrwt beam="2">  1       -2 0.23261237E+00 0.25914954E+04</pdfrwt>
<totfact> 0.79277865E-01</totfact>
</mgrwt>
</event>
<event>
12    5  0.5197392E-008  0.2150482E+04  0.7818608E-02  0.8539326E-01
         -2   -1    0    0    0  501 -0.00000000000E+00  0.00000000000E+00  0.43455588541E+03  0.43455588541E+03  0.00000000000E+00 0.  1.
          1   -1    0    0  501    0  0.00000000000E+00 -0.00000000000E+00 -0.26605162707E+04  0.26605162707E+04  0.00000000000E+00 0. -1.
        -24    2    1    2    0    0  0.31293093584E+03 -0.78363200062E+03 -0.13388621761E+04  0.15845895547E+04  0.79795032471E+02 0.  0.
        254    2    1    2    0    0 -0.31293093584E+03  0.78363200062E+03 -0.88709820916E+03  0.15104826014E+04  0.88465223306E+03 0.  0.
         23    2    4    4    0    0  0.27361510713E+03  0.42700314552E+03 -0.26504139789E+03  0.57958091412E+03  0.92033582378E+02 0.  0.
         23    2    4    4    0    0 -0.58654604297E+03  0.35662885510E+03 -0.62205681127E+03  0.93090168729E+03  0.91667192246E+02 0.  0.
          3    1    3    3  502    0  0.20753696250E+03 -0.59973316713E+03 -0.96982575208E+03  0.11590139999E+04  0.00000000000E+00 0. -1.
         -2    1    3    3    0  502  0.10539397334E+03 -0.18389883349E+03 -0.36903642401E+03  0.42557555477E+03  0.00000000000E+00 0.  1.
         13    1    5    5    0    0  0.26789317147E+03  0.40769546465E+03 -0.23038683586E+03  0.53950017364E+03  0.00000000000E+00 0.  1.
        -13    1    5    5    0    0  0.57219356591E+01  0.19307680866E+02 -0.34654562029E+02  0.40080740481E+02  0.00000000000E+00 0. -1.
          3    1    6    6  503    0 -0.44981301525E+02  0.26373731144E+02 -0.18518709679E+02  0.55333839461E+02  0.00000000000E+00 0. -1.
         -3    1    6    6    0  503 -0.54156474144E+03  0.33025512396E+03 -0.60353810160E+03  0.87556784783E+03  0.00000000000E+00 0.  1.
<mgrwt>
<rscale>  0 0.21504818E+04</rscale>
<asrwt>0</asrwt>
<pdfrwt beam="1">  1        1 0.40931019E+00 0.21504818E+04</pdfrwt>
<pdfrwt beam="2">  1       -2 0.66854752E-01 0.21504818E+04</pdfrwt>
<totfact> 0.17303089E+00</totfact>
</mgrwt>
</event>
<event>
12    5  0.5197392E-008  0.1832833E+04  0.7818608E-02  0.8689032E-01
          1   -1    0    0  501    0  0.00000000000E+00  0.00000000000E+00  0.24652752326E+04  0.24652752326E+04  0.00000000000E+00 0. -1.
         -2   -1    0    0    0  501 -0.00000000000E+00 -0.00000000000E+00 -0.34065941812E+03  0.34065941812E+03  0.00000000000E+00 0.  1.
        -24    2    1    2    0    0  0.35106471205E+03  0.16544255879E+03 -0.66740921159E+02  0.40349265803E+03  0.87944881748E+02 0.  0.
        254    2    1    2    0    0 -0.35106471205E+03 -0.16544255879E+03  0.21913567357E+04  0.24024419927E+04  0.90502238264E+03 0.  0.
         23    2    4    4    0    0 -0.30727610520E+03  0.21037508828E+03  0.34459521052E+03  0.51496139726E+03  0.88108449980E+02 0.  0.
         23    2    4    4    0    0 -0.43788606846E+02 -0.37581764707E+03  0.18467615251E+04  0.18874805954E+04  0.94331975016E+02 0.  0.
          1    1    3    3  502    0  0.11469299676E+03  0.22500524020E+02 -0.48865598243E+02  0.12668308402E+03  0.00000000000E+00 0. -1.
         -2    1    3    3    0  502  0.23637171529E+03  0.14294203477E+03 -0.17875322915E+02  0.27680957401E+03  0.00000000000E+00 0.  1.
         13    1    5    5    0    0 -0.22265278272E+03  0.19547327790E+03  0.25629716921E+03  0.39175541217E+03  0.00000000000E+00 0. -1.
        -13    1    5    5    0    0 -0.84623322483E+02  0.14901810377E+02  0.88298041315E+02  0.12320598508E+03  0.00000000000E+00 0.  1.
          4    1    6    6  503    0  0.14484012284E+02 -0.22292010648E+02  0.22776500773E+03  0.22931118398E+03  0.00000000000E+00 0.  1.
         -4    1    6    6    0  503 -0.58272619130E+02 -0.35352563642E+03  0.16189965174E+04  0.16581694115E+04  0.00000000000E+00 0. -1.
<mgrwt>
<rscale>  0 0.18328330E+04</rscale>
<asrwt>0</asrwt>
<pdfrwt beam="1">  1        1 0.37927310E+00 0.18328330E+04</pdfrwt>
<pdfrwt beam="2">  1       -2 0.52409143E-01 0.18328330E+04</pdfrwt>
<totfact> 0.40696947E+00</totfact>
</mgrwt>
</event>
<event>
12    5  0.5197392E-008  0.1663530E+04  0.7818608E-02  0.8782442E-01
          3   -1    0    0  501    0  0.00000000000E+00  0.00000000000E+00  0.17448667629E+04  0.17448667629E+04  0.00000000000E+00 0. -1.
         -4   -1    0    0    0  501 -0.00000000000E+00 -0.00000000000E+00 -0.39649617129E+03  0.39649617129E+03  0.00000000000E+00 0.  1.
        -24    2    1    2    0    0  0.11262306037E+03  0.49208895805E+03  0.93807939880E+02  0.51895687005E+03  0.75371128592E+02 0.  0.
        254    2    1    2    0    0 -0.11262306037E+03 -0.49208895805E+03  0.12545626517E+04  0.16224060641E+04  0.89634730628E+03 0.  0.
         23    2    4    4    0    0  0.44467848130E+02 -0.52039990932E+03  0.22435038229E+03  0.57593315368E+03  0.92587517196E+02 0.  0.
         23    2    4    4    0    0 -0.15709090850E+03  0.28310951264E+02  0.10302122694E+04  0.10464729105E+04  0.91044872082E+02 0.  0.
          1    1    3    3  502    0  0.39362220974E+02  0.14785433251E+03 -0.60395751808E+01  0.15312336383E+03  0.00000000000E+00 0. -1.
         -2    1    3    3    0  502  0.73260839395E+02  0.34423462554E+03  0.99847515061E+02  0.36583350622E+03  0.00000000000E+00 0.  1.
         13    1    5    5    0    0  0.15055333172E+02 -0.42714344259E+03  0.21284525656E+03  0.47747385985E+03  0.00000000000E+00 0. -1.
        -13    1    5    5    0    0  0.29412514959E+02 -0.93256466731E+02  0.11505125730E+02  0.98459293829E+02  0.00000000000E+00 0.  1.
          2    1    6    6  503    0 -0.14546262782E+03  0.10717127312E+02  0.99337498398E+03  0.10040259417E+04  0.00000000000E+00 0. -1.
         -2    1    6    6    0  503 -0.11628280675E+02  0.17593823952E+02  0.36837285456E+02  0.42446968707E+02  0.00000000000E+00 0.  1.
<mgrwt>
<rscale>  0 0.16635300E+04</rscale>
<asrwt>0</asrwt>
<pdfrwt beam="1">  1        3 0.26844104E+00 0.16635300E+04</pdfrwt>
<pdfrwt beam="2">  1       -4 0.60999412E-01 0.16635300E+04</pdfrwt>
<totfact> 0.32171955E-01</totfact>
</mgrwt>
</event>
<event>
12    5  0.5197392E-008  0.1976347E+04  0.7818608E-02  0.8617760E-01
         -2   -1    0    0    0  501 -0.00000000000E+00  0.00000000000E+00  0.96532067984E+03  0.96532067984E+03  0.00000000000E+00 0.  1.
          1   -1    0    0  501    0  0.00000000000E+00 -0.00000000000E+00 -0.10115673588E+04  0.10115673588E+04  0.00000000000E+00 0. -1.
        -24    2    1    2    0    0  0.98296625537E+02  0.31973310406E+03 -0.72114476773E+03  0.79884170253E+03  0.78783280313E+02 0.  0.
        254    2    1    2    0    0 -0.98296625537E+02 -0.31973310406E+03  0.67489808873E+03  0.11780463361E+04  0.90576721926E+03 0.  0.
         23    2    4    4    0    0 -0.41182080247E+03 -0.29804914694E+03  0.67514477815E+03  0.84997653149E+03  0.90608858779E+02 0.  0.
         23    2    4    4    0    0  0.31352417693E+03 -0.21683957124E+02 -0.24668941994E+00  0.32806980464E+03  0.94138899230E+02 0.  0.
          1    1    3    3  502    0  0.82469670407E+02  0.31624654077E+03 -0.69618968971E+03  0.76908595433E+03  0.00000000000E+00 0. -1.
         -2    1    3    3    0  502  0.15826955130E+02  0.34865632922E+01 -0.24955078019E+02  0.29755748204E+02  0.00000000000E+00 0.  1.
         13    1    5    5    0    0 -0.22780705359E+01  0.58435400208E+01  0.63157076609E+01  0.89008274109E+01  0.00000000000E+00 0. -1.
        -13    1    5    5    0    0 -0.40954273193E+03 -0.30389268696E+03  0.66882907049E+03  0.84107570408E+03  0.00000000000E+00 0.  1.
          3    1    6    6  503    0  0.29672100861E+02 -0.31049490549E+02 -0.92006105544E+01  0.43922154631E+02  0.00000000000E+00 0. -1.
         -3    1    6    6    0  503  0.28385207607E+03  0.93655334244E+01  0.89539211345E+01  0.28414765001E+03  0.00000000000E+00 0.  1.
<mgrwt>
<rscale>  0 0.19763470E+04</rscale>
<asrwt>0</asrwt>
<pdfrwt beam="1">  1        1 0.15562575E+00 0.19763470E+04</pdfrwt>
<pdfrwt beam="2">  1       -2 0.14851087E+00 0.19763470E+04</pdfrwt>
<totfact> 0.37149531E+00</totfact>
</mgrwt>
</event>
<event>
12    5  0.5197392E-008  0.1660392E+04  0.7818608E-02  0.8784283E-01
         -2   -1    0    0    0  501 -0.00000000000E+00  0.00000000000E+00  0.81883464539E+03  0.81883464539E+03  0.00000000000E+00 0.  1.
          1   -1    0    0  501    0  0.00000000000E+00 -0.00000000000E+00 -0.84171456955E+03  0.84171456955E+03  0.00000000000E+00 0. -1.
        -24    2    1    2    0    0 -0.27526106989E+03  0.21237375492E+03 -0.48299157854E+03  0.60058697884E+03  0.80948044082E+02 0.  0.
        254    2    1    2    0    0  0.27526106989E+03 -0.21237375492E+03  0.46011165437E+03  0.10599622361E+04  0.88935141485E+03 0.  0.
         23    2    4    4    0    0  0.47870515017E+03 -0.39864722291E+03  0.17732851648E+03  0.65414934568E+03  0.91584576007E+02 0.  0.
         23    2    4    4    0    0 -0.20344408028E+03  0.18627346799E+03  0.28278313789E+03  0.40581289042E+03  0.92900485869E+02 0.  0.
          3    1    3    3  502    0 -0.27913283894E+03  0.21472778928E+03 -0.47388373988E+03  0.59041423101E+03  0.00000000000E+00 0. -1.
         -4    1    3    3    0  502  0.38717690506E+01 -0.23540343570E+01 -0.91078386570E+01  0.10172747826E+02  0.00000000000E+00 0.  1.
         13    1    5    5    0    0  0.67656344255E+02 -0.10287005190E+03  0.39910485907E+02  0.12943135393E+03  0.00000000000E+00 0. -1.
        -13    1    5    5    0    0  0.41104880591E+03 -0.29577717101E+03  0.13741803057E+03  0.52471799174E+03  0.00000000000E+00 0.  1.
          1    1    6    6  503    0 -0.12160115235E+03  0.15209568814E+03  0.14853922001E+03  0.24491598250E+03  0.00000000000E+00 0. -1.
         -1    1    6    6    0  503 -0.81842927931E+02  0.34177779845E+02  0.13424391788E+03  0.16089690791E+03  0.00000000000E+00 0.  1.
<mgrwt>
<rscale>  0 0.16603916E+04</rscale>
<asrwt>0</asrwt>
<pdfrwt beam="1">  1        1 0.12949455E+00 0.16603916E+04</pdfrwt>
<pdfrwt beam="2">  1       -2 0.12597456E+00 0.16603916E+04</pdfrwt>
<totfact> 0.80046095E+00</totfact>
</mgrwt>
</event>
<event>
12    5  0.5197392E-008  0.1609857E+04  0.7818608E-02  0.8814515E-01
         -2   -1    0    0    0  501 -0.00000000000E+00  0.00000000000E+00  0.34391293382E+03  0.34391293382E+03  0.00000000000E+00 0.  1.
          1   -1    0    0  501    0  0.00000000000E+00 -0.00000000000E+00 -0.18839353164E+04  0.18839353164E+04  0.00000000000E+00 0. -1.
        -24    2    1    2    0    0  0.33157871110E+03  0.31301086263E+03 -0.94230806066E+03  0.10497488472E+04  0.78153178653E+02 0.  0.
        254    2    1    2    0    0 -0.33157871110E+03 -0.31301086263E+03 -0.59771432197E+03  0.11780994030E+04  0.90704771149E+03 0.  0.
         23    2    4    4    0    0  0.28539698524E+03 -0.17930569990E+03 -0.34828715435E+03  0.49324055391E+03  0.91544136557E+02 0.  0.
         23    2    4    4    0    0 -0.61697569633E+03 -0.13370516273E+03 -0.24942716762E+03  0.68485884910E+03  0.91003575987E+02 0.  0.
          3    1    3    3  502    0  0.31912323609E+03  0.28937192595E+03 -0.91605169355E+03  0.10122877341E+04  0.00000000000E+00 0. -1.
         -4    1    3    3    0  502  0.12455475010E+02  0.23638936678E+02 -0.26256367117E+02  0.37461113160E+02  0.00000000000E+00 0.  1.
         13    1    5    5    0    0  0.12031929175E+03 -0.12669400352E+03 -0.15379393728E+03  0.23276743251E+03  0.00000000000E+00 0.  1.
        -13    1    5    5    0    0  0.16507769348E+03 -0.52611696374E+02 -0.19449321707E+03  0.26047312139E+03  0.00000000000E+00 0. -1.
          3    1    6    6  503    0 -0.56386752119E+03 -0.12262062941E+03 -0.25387465120E+03  0.63042425297E+03  0.00000000000E+00 0. -1.
         -3    1    6    6    0  503 -0.53108175138E+02 -0.11084533321E+02  0.44474835845E+01  0.54434596129E+02  0.00000000000E+00 0.  1.
<mgrwt>
<rscale>  0 0.16098568E+04</rscale>
<asrwt>0</asrwt>
<pdfrwt beam="1">  1        1 0.28983621E+00 0.16098568E+04</pdfrwt>
<pdfrwt beam="2">  1       -2 0.52909682E-01 0.16098568E+04</pdfrwt>
<totfact> 0.10133085E+01</totfact>
</mgrwt>
</event>
<event>
12    5  0.5197392E-008  0.1547615E+04  0.7818608E-02  0.8853392E-01
         -2   -1    0    0    0  501 -0.00000000000E+00  0.00000000000E+00  0.31665722005E+03  0.31665722005E+03  0.00000000000E+00 0.  1.
          1   -1    0    0  501    0  0.00000000000E+00 -0.00000000000E+00 -0.18909349636E+04  0.18909349636E+04  0.00000000000E+00 0. -1.
        -24    2    1    2    0    0 -0.72389996022E+02 -0.79354076676E+02  0.18405373607E+03  0.22815795080E+03  0.81503936978E+02 0.  0.
        254    2    1    2    0    0  0.72389996022E+02  0.79354076676E+02 -0.17583314796E+04  0.19794342328E+04  0.90271419005E+03 0.  0.
         23    2    4    4    0    0  0.39001950043E+03  0.30736901232E+03 -0.90644015331E+03  0.10378844672E+04  0.94760198895E+02 0.  0.
         23    2    4    4    0    0 -0.31762950441E+03 -0.22801493564E+03 -0.85189132629E+03  0.94154976561E+03  0.88982112649E+02 0.  0.
          1    1    3    3  502    0 -0.50203622968E+02 -0.16334299960E+02  0.31159426975E+02  0.61303531739E+02  0.00000000000E+00 0. -1.
         -2    1    3    3    0  502 -0.22186373054E+02 -0.63019776716E+02  0.15289430910E+03  0.16685441906E+03  0.00000000000E+00 0.  1.
         13    1    5    5    0    0  0.74996445078E+02  0.73686015799E+02 -0.27646585438E+03  0.29578279926E+03  0.00000000000E+00 0. -1.
        -13    1    5    5    0    0  0.31502305535E+03  0.23368299652E+03 -0.62997429893E+03  0.74210166795E+03  0.00000000000E+00 0.  1.
          3    1    6    6  503    0 -0.15210281658E+03 -0.89119612904E+02 -0.28794498130E+03  0.33762388018E+03  0.00000000000E+00 0. -1.
         -3    1    6    6    0  503 -0.16552668783E+03 -0.13889532274E+03 -0.56394634499E+03  0.60392588543E+03  0.00000000000E+00 0.  1.
<mgrwt>
<rscale>  0 0.15476152E+04</rscale>
<asrwt>0</asrwt>
<pdfrwt beam="1">  1        1 0.29091307E+00 0.15476152E+04</pdfrwt>
<pdfrwt beam="2">  1       -2 0.48716495E-01 0.15476152E+04</pdfrwt>
<totfact> 0.11931764E+01</totfact>
</mgrwt>
</event>
<event>
12    5  0.5197392E-008  0.1649380E+04  0.7818608E-02  0.8790773E-01
         -2   -1    0    0    0  501 -0.00000000000E+00  0.00000000000E+00  0.18300846185E+04  0.18300846185E+04  0.00000000000E+00 0.  1.
          1   -1    0    0  501    0  0.00000000000E+00 -0.00000000000E+00 -0.37162948756E+03  0.37162948756E+03  0.00000000000E+00 0. -1.
        -24    2    1    2    0    0  0.27609217536E+03  0.41361744748E+03  0.93537335799E+03  0.10641490951E+04  0.10091429778E+03 0.  0.
        254    2    1    2    0    0 -0.27609217536E+03 -0.41361744748E+03  0.52308177293E+03  0.11375650110E+04  0.87928000710E+03 0.  0.
         23    2    4    4    0    0 -0.55254755276E+03 -0.43201825210E+03  0.30101864631E+03  0.76873748871E+03  0.91632597370E+02 0.  0.
         23    2    4    4    0    0  0.27645537740E+03  0.18400804618E+02  0.22206312662E+03  0.36882752228E+03  0.99777470813E+02 0.  0.
          3    1    3    3  502    0  0.17575043857E+03  0.27958895906E+03  0.51645759440E+03  0.61301439584E+03  0.00000000000E+00 0. -1.
         -4    1    3    3    0  502  0.10034173679E+03  0.13402848842E+03  0.41891576359E+03  0.45113469922E+03  0.00000000000E+00 0.  1.
         13    1    5    5    0    0 -0.49640837016E+03 -0.40597121519E+03  0.24910219696E+03  0.68795770369E+03  0.00000000000E+00 0.  1.
        -13    1    5    5    0    0 -0.56139182597E+02 -0.26047036916E+02  0.51916449348E+02  0.80779785019E+02  0.00000000000E+00 0. -1.
          2    1    6    6  503    0  0.25451010477E+02 -0.24800776693E+02  0.50456178383E+02  0.61714328935E+02  0.00000000000E+00 0. -1.
         -2    1    6    6    0  503  0.25100436692E+03  0.43201581311E+02  0.17160694824E+03  0.30711319335E+03  0.00000000000E+00 0.  1.
<mgrwt>
<rscale>  0 0.16493798E+04</rscale>
<asrwt>0</asrwt>
<pdfrwt beam="1">  1        1 0.57173768E-01 0.16493798E+04</pdfrwt>
<pdfrwt beam="2">  1       -2 0.28155147E+00 0.16493798E+04</pdfrwt>
<totfact> 0.22809793E+00</totfact>
</mgrwt>
</event>
<event>
12    5  0.5197392E-008  0.1163105E+04  0.7818608E-02  0.9145778E-01
         -2   -1    0    0    0  501 -0.00000000000E+00  0.00000000000E+00  0.33863016387E+03  0.33863016387E+03  0.00000000000E+00 0.  1.
          1   -1    0    0  501    0  0.00000000000E+00 -0.00000000000E+00 -0.99873898411E+03  0.99873898411E+03  0.00000000000E+00 0. -1.
        -24    2    1    2    0    0  0.11170881748E+03 -0.14099237725E+03 -0.27677147869E+03  0.34027355223E+03  0.82619178068E+02 0.  0.
        254    2    1    2    0    0 -0.11170881748E+03  0.14099237725E+03 -0.38333734155E+03  0.99709559575E+03  0.90271501555E+03 0.  0.
         23    2    4    4    0    0  0.32178035921E+03 -0.12739946348E+03 -0.31023074471E+03  0.47414185703E+03  0.93777197443E+02 0.  0.
         23    2    4    4    0    0 -0.43348917669E+03  0.26839184073E+03 -0.73106596846E+02  0.52295373872E+03  0.90493048689E+02 0.  0.
          1    1    3    3  502    0  0.11631180953E+03 -0.98667200719E+02 -0.19022560101E+03  0.24382254369E+03  0.00000000000E+00 0. -1.
         -4    1    3    3    0  502 -0.46029920458E+01 -0.42325176530E+02 -0.86545877684E+02  0.96451008539E+02  0.00000000000E+00 0.  1.
         13    1    5    5    0    0  0.13324206405E+02 -0.32649248643E+02 -0.39316748823E+02  0.52813962655E+02  0.00000000000E+00 0.  1.
        -13    1    5    5    0    0  0.30845615281E+03 -0.94750214834E+02 -0.27091399589E+03  0.42132789438E+03  0.00000000000E+00 0. -1.
          1    1    6    6  503    0 -0.40315105347E+03  0.25618405035E+03 -0.90122321627E+02  0.48608957243E+03  0.00000000000E+00 0. -1.
         -1    1    6    6    0  503 -0.30338123225E+02  0.12207790373E+02  0.17015724781E+02  0.36864166292E+02  0.00000000000E+00 0.  1.
<mgrwt>
<rscale>  0 0.11631047E+04</rscale>
<asrwt>0</asrwt>
<pdfrwt beam="1">  1        1 0.15365215E+00 0.11631047E+04</pdfrwt>
<pdfrwt beam="2">  1       -2 0.52096949E-01 0.11631047E+04</pdfrwt>
<totfact> 0.45885567E+01</totfact>
</mgrwt>
</event>
<event>
12    5  0.5197392E-008  0.1865719E+04  0.7818608E-02  0.8672111E-01
          1   -1    0    0  501    0  0.00000000000E+00  0.00000000000E+00  0.19468762310E+04  0.19468762310E+04  0.00000000000E+00 0. -1.
         -2   -1    0    0    0  501 -0.00000000000E+00 -0.00000000000E+00 -0.44698645754E+03  0.44698645754E+03  0.00000000000E+00 0.  1.
        -24    2    1    2    0    0 -0.67285449826E+03 -0.59287489650E+02  0.86203647866E+03  0.10981819556E+04  0.81538547697E+02 0.  0.
        254    2    1    2    0    0  0.67285449826E+03  0.59287489650E+02  0.63785329482E+03  0.12956807330E+04  0.90315201038E+03 0.  0.
         23    2    4    4    0    0  0.14280479355E+03 -0.30640156323E+03 -0.44851260930E+02  0.35289415995E+03  0.90815887993E+02 0.  0.
         23    2    4    4    0    0  0.53004970470E+03  0.36568905288E+03  0.68270455575E+03  0.94278657303E+03  0.89887924628E+02 0.  0.
          1    1    3    3  502    0 -0.51475600412E+03 -0.26109542930E+02  0.70094109132E+03  0.87004245041E+03  0.00000000000E+00 0. -1.
         -2    1    3    3    0  502 -0.15809849413E+03 -0.33177946720E+02  0.16109538734E+03  0.22813950516E+03  0.00000000000E+00 0.  1.
         13    1    5    5    0    0  0.25078669650E+02 -0.15230312251E+03 -0.23634884828E+01  0.15437217002E+03  0.00000000000E+00 0.  1.
        -13    1    5    5    0    0  0.11772612390E+03 -0.15409844072E+03 -0.42487772447E+02  0.19852198994E+03  0.00000000000E+00 0. -1.
          1    1    6    6  503    0  0.24271719540E+03  0.17295725714E+03  0.38107716238E+03  0.48378265102E+03  0.00000000000E+00 0. -1.
         -1    1    6    6    0  503  0.28733250930E+03  0.19273179574E+03  0.30162739337E+03  0.45900392201E+03  0.00000000000E+00 0.  1.
<mgrwt>
<rscale>  0 0.18657195E+04</rscale>
<asrwt>0</asrwt>
<pdfrwt beam="1">  1        1 0.29951941E+00 0.18657195E+04</pdfrwt>
<pdfrwt beam="2">  1       -2 0.68767149E-01 0.18657195E+04</pdfrwt>
<totfact> 0.51556042E+00</totfact>
</mgrwt>
</event>
<event>
12    5  0.5197392E-008  0.1386035E+04  0.7818608E-02  0.8963989E-01
          1   -1    0    0  501    0  0.00000000000E+00  0.00000000000E+00  0.17981561288E+04  0.17981561288E+04  0.00000000000E+00 0. -1.
         -2   -1    0    0    0  501 -0.00000000000E+00 -0.00000000000E+00 -0.26709224348E+03  0.26709224348E+03  0.00000000000E+00 0.  1.
        -24    2    1    2    0    0 -0.35261576969E+03  0.23116081435E+02  0.57180089883E+03  0.67698508951E+03  0.80500368139E+02 0.  0.
        254    2    1    2    0    0  0.35261576969E+03 -0.23116081435E+02  0.95926298652E+03  0.13882632828E+04  0.93926419649E+03 0.  0.
         23    2    4    4    0    0 -0.33499874582E+02  0.20865655735E+03 -0.86344102883E+02  0.24639366038E+03  0.92707773401E+02 0.  0.
         23    2    4    4    0    0  0.38611564427E+03 -0.23177263879E+03  0.10456070894E+04  0.11418696224E+04  0.88137406119E+02 0.  0.
          1    1    3    3  502    0 -0.14742209338E+03 -0.18290864254E+02  0.18588311348E+03  0.23795033350E+03  0.00000000000E+00 0. -1.
         -2    1    3    3    0  502 -0.20519367631E+03  0.41406945689E+02  0.38591778534E+03  0.43903475602E+03  0.00000000000E+00 0.  1.
         13    1    5    5    0    0 -0.45265617021E+02  0.14174775831E+03 -0.97004691630E+02  0.17762689342E+03  0.00000000000E+00 0. -1.
        -13    1    5    5    0    0  0.11765742440E+02  0.66908799046E+02  0.10660588747E+02  0.68766766954E+02  0.00000000000E+00 0.  1.
          2    1    6    6  503    0  0.23767156369E+03 -0.11072959099E+03  0.68662563068E+03  0.73498542245E+03  0.00000000000E+00 0. -1.
         -2    1    6    6    0  503  0.14844408058E+03 -0.12104304779E+03  0.35898145872E+03  0.40688419996E+03  0.00000000000E+00 0.  1.
<mgrwt>
<rscale>  0 0.13860354E+04</rscale>
<asrwt>0</asrwt>
<pdfrwt beam="1">  1        1 0.27663940E+00 0.13860354E+04</pdfrwt>
<pdfrwt beam="2">  1       -2 0.41091115E-01 0.13860354E+04</pdfrwt>
<totfact> 0.19644337E+01</totfact>
</mgrwt>
</event>
<event>
12    5  0.5197392E-008  0.1472333E+04  0.7818608E-02  0.8903062E-01
          1   -1    0    0  501    0  0.00000000000E+00  0.00000000000E+00  0.22378524170E+04  0.22378524170E+04  0.00000000000E+00 0. -1.
         -4   -1    0    0    0  501 -0.00000000000E+00 -0.00000000000E+00 -0.24217024551E+03  0.24217024551E+03  0.00000000000E+00 0.  1.
        -24    2    1    2    0    0 -0.35095536507E+02 -0.16938249147E+03 -0.83375409382E+02  0.20757792340E+03  0.78835336574E+02 0.  0.
        254    2    1    2    0    0  0.35095536507E+02  0.16938249147E+03  0.20790575808E+04  0.22724447391E+04  0.90088986152E+03 0.  0.
         23    2    4    4    0    0  0.41558899825E+03  0.64945649036E+02  0.15302311835E+04  0.15894892805E+04  0.89087287339E+02 0.  0.
         23    2    4    4    0    0 -0.38049346175E+03  0.10443684244E+03  0.54882639729E+03  0.68295545862E+03  0.97649452689E+02 0.  0.
          3    1    3    3  502    0 -0.49326257030E+02 -0.97147437178E+02 -0.20726200535E+02  0.11090662546E+03  0.00000000000E+00 0. -1.
         -4    1    3    3    0  502  0.14230720523E+02 -0.72235054293E+02 -0.62649208847E+02  0.96671297935E+02  0.00000000000E+00 0.  1.
         13    1    5    5    0    0  0.31176556457E+03  0.97661240568E+01  0.11436803294E+04  0.11854525888E+04  0.00000000000E+00 0. -1.
        -13    1    5    5    0    0  0.10382343368E+03  0.55179524979E+02  0.38655085412E+03  0.40403669162E+03  0.00000000000E+00 0.  1.
          4    1    6    6  503    0 -0.37781088302E+01  0.16721303072E+02  0.42248523443E+02  0.45594010745E+02  0.00000000000E+00 0.  1.
         -4    1    6    6    0  503 -0.37671535291E+03  0.87715539363E+02  0.50657787385E+03  0.63736144788E+03  0.00000000000E+00 0. -1.
<mgrwt>
<rscale>  0 0.14723332E+04</rscale>
<asrwt>0</asrwt>
<pdfrwt beam="1">  1        1 0.34428497E+00 0.14723332E+04</pdfrwt>
<pdfrwt beam="2">  1       -4 0.37256962E-01 0.14723332E+04</pdfrwt>
<totfact> 0.69566264E+00</totfact>
</mgrwt>
</event>
<event>
12    5  0.5197392E-008  0.1107443E+04  0.7818608E-02  0.9197967E-01
         -2   -1    0    0    0  501 -0.00000000000E+00  0.00000000000E+00  0.19350048905E+04  0.19350048905E+04  0.00000000000E+00 0.  1.
          1   -1    0    0  501    0  0.00000000000E+00 -0.00000000000E+00 -0.15845321584E+03  0.15845321584E+03  0.00000000000E+00 0. -1.
        -24    2    1    2    0    0  0.57787567774E+02  0.46057655768E+02  0.59993501986E+03  0.60959910709E+03  0.78919786297E+02 0.  0.
        254    2    1    2    0    0 -0.57787567774E+02 -0.46057655768E+02  0.11766166548E+04  0.14838589993E+04  0.90108271912E+03 0.  0.
         23    2    4    4    0    0 -0.12063822406E+02  0.40946133492E+03  0.41228242166E+03  0.58830828739E+03  0.91245411902E+02 0.  0.
         23    2    4    4    0    0 -0.45723745368E+02 -0.45551899068E+03  0.76433423316E+03  0.89555071190E+03  0.90642406352E+02 0.  0.
          3    1    3    3  502    0  0.21832192913E+02  0.54983254401E+02  0.21842799033E+03  0.22629756930E+03  0.00000000000E+00 0. -1.
         -4    1    3    3    0  502  0.35955374861E+02 -0.89255986337E+01  0.38150702953E+03  0.38330153779E+03  0.00000000000E+00 0.  1.
         13    1    5    5    0    0  0.34768519898E+02  0.12754594860E+03  0.10639935199E+03  0.16969867732E+03  0.00000000000E+00 0. -1.
        -13    1    5    5    0    0 -0.46832342304E+02  0.28191538631E+03  0.30588306967E+03  0.41860961006E+03  0.00000000000E+00 0.  1.
          4    1    6    6  503    0  0.24105951355E+02 -0.19511973895E+03  0.30214754270E+03  0.36048016170E+03  0.00000000000E+00 0. -1.
         -4    1    6    6    0  503 -0.69829696724E+02 -0.26039925174E+03  0.46218669046E+03  0.53507055020E+03  0.00000000000E+00 0.  1.
<mgrwt>
<rscale>  0 0.11074434E+04</rscale>
<asrwt>0</asrwt>
<pdfrwt beam="1">  1        1 0.24377419E-01 0.11074434E+04</pdfrwt>
<pdfrwt beam="2">  1       -2 0.29769304E+00 0.11074434E+04</pdfrwt>
<totfact> 0.58107919E+00</totfact>
</mgrwt>
</event>
<event>
12    5  0.5197392E-008  0.2060764E+04  0.7818608E-02  0.8578727E-01
          1   -1    0    0  501    0  0.00000000000E+00  0.00000000000E+00  0.17019403637E+04  0.17019403637E+04  0.00000000000E+00 0. -1.
         -2   -1    0    0    0  501 -0.00000000000E+00 -0.00000000000E+00 -0.62380990030E+03  0.62380990030E+03  0.00000000000E+00 0.  1.
        -24    2    1    2    0    0 -0.68012953340E+03  0.12741844980E+03  0.64588439597E+02  0.70064818389E+03  0.89020039939E+02 0.  0.
        254    2    1    2    0    0  0.68012953340E+03 -0.12741844980E+03  0.10135420238E+04  0.16251020801E+04  0.10653063847E+04 0.  0.
         23    2    4    4    0    0 -0.10665804552E+03 -0.28381471484E+03 -0.15170733930E+02  0.31743388663E+03  0.92776021584E+02 0.  0.
         23    2    4    4    0    0  0.78678757892E+03  0.15639626504E+03  0.10287127578E+04  0.13076681935E+04  0.90838759643E+02 0.  0.
          1    1    3    3  502    0 -0.14582148106E+03  0.22803930036E+02  0.50562345028E+02  0.15601434004E+03  0.00000000000E+00 0. -1.
         -2    1    3    3    0  502 -0.53430805233E+03  0.10461451976E+03  0.14026094570E+02  0.54463384385E+03  0.00000000000E+00 0.  1.
         13    1    5    5    0    0 -0.20887784370E+02 -0.50253973927E+00 -0.35649145276E+01  0.21195770750E+02  0.00000000000E+00 0. -1.
        -13    1    5    5    0    0 -0.85770261153E+02 -0.28331217510E+03 -0.11605819402E+02  0.29623811588E+03  0.00000000000E+00 0.  1.
          3    1    6    6  503    0  0.36230398124E+02  0.50580477741E+00  0.81002357990E+02  0.88737137584E+02  0.00000000000E+00 0. -1.
         -3    1    6    6    0  503  0.75055718080E+03  0.15589046026E+03  0.94771039978E+03  0.12189310559E+04  0.00000000000E+00 0.  1.
<mgrwt>
<rscale>  0 0.20607642E+04</rscale>
<asrwt>0</asrwt>
<pdfrwt beam="1">  1        1 0.26183698E+00 0.20607642E+04</pdfrwt>
<pdfrwt beam="2">  1       -2 0.95970755E-01 0.20607642E+04</pdfrwt>
<totfact> 0.35035876E+00</totfact>
</mgrwt>
</event>
<event>
12    5  0.5197392E-008  0.1762935E+04  0.7818608E-02  0.8726262E-01
          1   -1    0    0  501    0  0.00000000000E+00  0.00000000000E+00  0.26137703264E+04  0.26137703264E+04  0.00000000000E+00 0. -1.
         -2   -1    0    0    0  501 -0.00000000000E+00 -0.00000000000E+00 -0.29726591080E+03  0.29726591080E+03  0.00000000000E+00 0.  1.
        -24    2    1    2    0    0 -0.28310034084E+03  0.42041339849E+03  0.23827251537E+03  0.56592484558E+03  0.81264448900E+02 0.  0.
        254    2    1    2    0    0  0.28310034084E+03 -0.42041339849E+03  0.20782319002E+04  0.23451113916E+04  0.96104442108E+03 0.  0.
         23    2    4    4    0    0  0.58268791933E+03 -0.11448676767E+03  0.84873574783E+03  0.10399258772E+04  0.91983852041E+02 0.  0.
         23    2    4    4    0    0 -0.29958757849E+03 -0.30592663082E+03  0.12294961524E+04  0.13051855144E+04  0.92220484305E+02 0.  0.
          1    1    3    3  502    0 -0.24141155077E+02  0.84915411222E+02  0.26663586688E+02  0.92219137311E+02  0.00000000000E+00 0. -1.
         -2    1    3    3    0  502 -0.25895918576E+03  0.33549798727E+03  0.21160892868E+03  0.47370570827E+03  0.00000000000E+00 0.  1.
         13    1    5    5    0    0  0.52800395431E+03 -0.12101478987E+03  0.80141895578E+03  0.96731850898E+03  0.00000000000E+00 0. -1.
        -13    1    5    5    0    0  0.54683965017E+02  0.65280221942E+01  0.47316792052E+02  0.72607368179E+02  0.00000000000E+00 0.  1.
          1    1    6    6  503    0 -0.18948178261E+03 -0.14794538288E+03  0.58296727243E+03  0.63058863214E+03  0.00000000000E+00 0. -1.
         -1    1    6    6    0  503 -0.11010579588E+03 -0.15798124794E+03  0.64652887993E+03  0.67459688227E+03  0.00000000000E+00 0.  1.
<mgrwt>
<rscale>  0 0.17629348E+04</rscale>
<asrwt>0</asrwt>
<pdfrwt beam="1">  1        1 0.40211850E+00 0.17629348E+04</pdfrwt>
<pdfrwt beam="2">  1       -2 0.45733219E-01 0.17629348E+04</pdfrwt>
<totfact> 0.42605302E+00</totfact>
</mgrwt>
</event>
<event>
12    5  0.5197392E-008  0.1212957E+04  0.7818608E-02  0.9101590E-01
          1   -1    0    0  501    0  0.00000000000E+00  0.00000000000E+00  0.16828629506E+04  0.16828629506E+04  0.00000000000E+00 0. -1.
         -2   -1    0    0    0  501 -0.00000000000E+00 -0.00000000000E+00 -0.21856575245E+03  0.21856575245E+03  0.00000000000E+00 0.  1.
        -24    2    1    2    0    0  0.23570736181E+03 -0.82060836529E+02  0.25036903722E+03  0.36274741328E+03  0.81296308285E+02 0.  0.
        254    2    1    2    0    0 -0.23570736181E+03  0.82060836529E+02  0.12139281609E+04  0.15386812898E+04  0.91193562838E+03 0.  0.
         23    2    4    4    0    0  0.10867450265E+03 -0.19180981743E+03 -0.61470540923E+01  0.23849095652E+03  0.90768918014E+02 0.  0.
         23    2    4    4    0    0 -0.34438186446E+03  0.27387065396E+03  0.12200752150E+04  0.13001903332E+04  0.91144767950E+02 0.  0.
          3    1    3    3  502    0  0.10608039707E+03 -0.61434248746E+02  0.16732886496E+03  0.20742749724E+03  0.00000000000E+00 0. -1.
         -4    1    3    3    0  502  0.12962696473E+03 -0.20626587783E+02  0.83040172260E+02  0.15531991604E+03  0.00000000000E+00 0.  1.
         13    1    5    5    0    0  0.11534386900E+03 -0.12293894652E+03  0.35960487169E+01  0.16861531441E+03  0.00000000000E+00 0. -1.
        -13    1    5    5    0    0 -0.66693663510E+01 -0.68870870908E+02 -0.97431028092E+01  0.69875642104E+02  0.00000000000E+00 0.  1.
          2    1    6    6  503    0 -0.25864873814E+03  0.24512900461E+03  0.91303835075E+03  0.98011551798E+03  0.00000000000E+00 0.  1.
         -2    1    6    6    0  503 -0.85733126313E+02  0.28741649347E+02  0.30703686424E+03  0.32007481525E+03  0.00000000000E+00 0. -1.
<mgrwt>
<rscale>  0 0.12129571E+04</rscale>
<asrwt>0</asrwt>
<pdfrwt beam="1">  1        1 0.25890198E+00 0.12129571E+04</pdfrwt>
<pdfrwt beam="2">  1       -2 0.33625501E-01 0.12129571E+04</pdfrwt>
<totfact> 0.35150000E+01</totfact>
</mgrwt>
</event>
<event>
12    5  0.5197392E-008  0.1381318E+04  0.7818608E-02  0.8967453E-01
          1   -1    0    0  501    0  0.00000000000E+00  0.00000000000E+00  0.12406956271E+04  0.12406956271E+04  0.00000000000E+00 0. -1.
         -2   -1    0    0    0  501 -0.00000000000E+00 -0.00000000000E+00 -0.38446995353E+03  0.38446995353E+03  0.00000000000E+00 0.  1.
        -24    2    1    2    0    0  0.43461674967E+02 -0.25426731378E+03 -0.99382967476E+02  0.28809381662E+03  0.81118979900E+02 0.  0.
        254    2    1    2    0    0 -0.43461674967E+02  0.25426731378E+03  0.95560864107E+03  0.13370717640E+04  0.89890613705E+03 0.  0.
         23    2    4    4    0    0 -0.36257072732E+03  0.39701435493E+03  0.41081703216E+03  0.68284272945E+03  0.91791224611E+02 0.  0.
         23    2    4    4    0    0  0.31910905236E+03 -0.14274704115E+03  0.54479160891E+03  0.65422903458E+03  0.94923271633E+02 0.  0.
          1    1    3    3  502    0  0.17929343261E+02 -0.11532340767E+03 -0.23927591538E+01  0.11673335000E+03  0.00000000000E+00 0. -1.
         -2    1    3    3    0  502  0.25532331706E+02 -0.13894390611E+03 -0.96990208322E+02  0.17136046661E+03  0.00000000000E+00 0.  1.
         13    1    5    5    0    0 -0.27313973199E+03  0.31641654293E+03  0.36188353826E+03  0.55288736384E+03  0.00000000000E+00 0.  1.
        -13    1    5    5    0    0 -0.89430995333E+02  0.80597811999E+02  0.48933493908E+02  0.12995536561E+03  0.00000000000E+00 0. -1.
          2    1    6    6  503    0  0.12636763471E+03 -0.80144061103E+02  0.15831224104E+03  0.21784080264E+03  0.00000000000E+00 0.  1.
         -2    1    6    6    0  503  0.19274141765E+03 -0.62602980047E+02  0.38647936787E+03  0.43638823194E+03  0.00000000000E+00 0. -1.
<mgrwt>
<rscale>  0 0.13813185E+04</rscale>
<asrwt>0</asrwt>
<pdfrwt beam="1">  1        1 0.19087625E+00 0.13813185E+04</pdfrwt>
<pdfrwt beam="2">  1       -2 0.59149224E-01 0.13813185E+04</pdfrwt>
<totfact> 0.22816888E+01</totfact>
</mgrwt>
</event>
<event>
12    5  0.5197392E-008  0.1920077E+04  0.7818608E-02  0.8644927E-01
         -2   -1    0    0    0  501 -0.00000000000E+00  0.00000000000E+00  0.47560226296E+03  0.47560226296E+03  0.00000000000E+00 0.  1.
          1   -1    0    0  501    0  0.00000000000E+00 -0.00000000000E+00 -0.19379087801E+04  0.19379087801E+04  0.00000000000E+00 0. -1.
        -24    2    1    2    0    0 -0.13432996271E+03 -0.50103501915E+03  0.99275953095E+02  0.53398086513E+03  0.78735126668E+02 0.  0.
        254    2    1    2    0    0  0.13432996271E+03  0.50103501915E+03 -0.15615824703E+04  0.18795301779E+04  0.90830239959E+03 0.  0.
         23    2    4    4    0    0  0.42979889152E+03  0.33839728177E+02 -0.42270777782E+03  0.61059332673E+03  0.90940259890E+02 0.  0.
         23    2    4    4    0    0 -0.29546892880E+03  0.46719529097E+03 -0.11388746924E+04  0.12689368512E+04  0.87131162626E+02 0.  0.
          1    1    3    3  502    0 -0.70603079186E+02 -0.37285648841E+03  0.92923848123E+02  0.39069373849E+03  0.00000000000E+00 0. -1.
         -2    1    3    3    0  502 -0.63726883528E+02 -0.12817853073E+03  0.63521049726E+01  0.14328712665E+03  0.00000000000E+00 0.  1.
         13    1    5    5    0    0  0.10088267123E+03 -0.27500731075E+02 -0.12259910392E+03  0.16113393139E+03  0.00000000000E+00 0.  1.
        -13    1    5    5    0    0  0.32891622029E+03  0.61340459253E+02 -0.30010867390E+03  0.44945939535E+03  0.00000000000E+00 0. -1.
          1    1    6    6  503    0 -0.14453094525E+03  0.20601380610E+03 -0.61365863515E+03  0.66325545827E+03  0.00000000000E+00 0. -1.
         -1    1    6    6    0  503 -0.15093798356E+03  0.26118148487E+03 -0.52521605729E+03  0.60568139294E+03  0.00000000000E+00 0.  1.
<mgrwt>
<rscale>  0 0.19200769E+04</rscale>
<asrwt>0</asrwt>
<pdfrwt beam="1">  1        1 0.29813981E+00 0.19200769E+04</pdfrwt>
<pdfrwt beam="2">  1       -2 0.73169580E-01 0.19200769E+04</pdfrwt>
<totfact> 0.45422064E+00</totfact>
</mgrwt>
</event>
<event>
12    5  0.5197392E-008  0.1443022E+04  0.7818608E-02  0.8923252E-01
          1   -1    0    0  501    0  0.00000000000E+00  0.00000000000E+00  0.72174599141E+03  0.72174599141E+03  0.00000000000E+00 0. -1.
         -2   -1    0    0    0  501 -0.00000000000E+00 -0.00000000000E+00 -0.72127651381E+03  0.72127651381E+03  0.00000000000E+00 0.  1.
        -24    2    1    2    0    0  0.21426463558E+03  0.26662403032E+03  0.27115540820E+03  0.44411143533E+03  0.81926820990E+02 0.  0.
        254    2    1    2    0    0 -0.21426463558E+03 -0.26662403032E+03 -0.27068593059E+03  0.99891106989E+03  0.89864049815E+03 0.  0.
         23    2    4    4    0    0 -0.21059976830E+03  0.13989699287E+03 -0.46488086652E+03  0.53681847498E+03  0.90202128629E+02 0.  0.
         23    2    4    4    0    0 -0.36648672778E+01 -0.40652102318E+03  0.19419493593E+03  0.46209259490E+03  0.10268943266E+03 0.  0.
          3    1    3    3  502    0  0.28750650809E+02  0.41670918028E+02  0.78367065708E+01  0.51229672077E+02  0.00000000000E+00 0. -1.
         -4    1    3    3    0  502  0.18551398477E+03  0.22495311229E+03  0.26331870163E+03  0.39288176326E+03  0.00000000000E+00 0.  1.
         13    1    5    5    0    0 -0.15416907842E+03  0.13161018692E+03 -0.29755914200E+03  0.36004276000E+03  0.00000000000E+00 0.  1.
        -13    1    5    5    0    0 -0.56430689887E+02  0.82868059533E+01 -0.16732172451E+03  0.17677571498E+03  0.00000000000E+00 0. -1.
          4    1    6    6  503    0 -0.46483382444E+02 -0.25538930574E+03  0.14579041166E+03  0.29772343956E+03  0.00000000000E+00 0. -1.
         -4    1    6    6    0  503  0.42818515166E+02 -0.15113171744E+03  0.48404524262E+02  0.16436915534E+03  0.00000000000E+00 0.  1.
<mgrwt>
<rscale>  0 0.14430224E+04</rscale>
<asrwt>0</asrwt>
<pdfrwt beam="1">  1        1 0.11103785E+00 0.14430224E+04</pdfrwt>
<pdfrwt beam="2">  1       -2 0.11096562E+00 0.14430224E+04</pdfrwt>
<totfact> 0.14229062E+01</totfact>
</mgrwt>
</event>
<event>
12    5  0.5197392E-008  0.1838738E+04  0.7818608E-02  0.8685966E-01
          1   -1    0    0  501    0  0.00000000000E+00  0.00000000000E+00  0.14311160240E+04  0.14311160240E+04  0.00000000000E+00 0. -1.
         -2   -1    0    0    0  501 -0.00000000000E+00 -0.00000000000E+00 -0.59061556034E+03  0.59061556034E+03  0.00000000000E+00 0.  1.
        -24    2    1    2    0    0 -0.27141916046E+03 -0.81091157820E+02 -0.37759124338E+03  0.47898177859E+03  0.81266602021E+02 0.  0.
        254    2    1    2    0    0  0.27141916046E+03  0.81091157820E+02  0.12180917070E+04  0.15427498057E+04  0.90337446270E+03 0.  0.
         23    2    4    4    0    0  0.35112936664E+03  0.25164714786E+03  0.12547449757E+04  0.13306063542E+04  0.97520237372E+02 0.  0.
         23    2    4    4    0    0 -0.79710206177E+02 -0.17055599004E+03 -0.36653268678E+02  0.21214345152E+03  0.90654945885E+02 0.  0.
          3    1    3    3  502    0 -0.13725898342E+01 -0.51695355818E+01 -0.38636686346E+02  0.39005148798E+02  0.00000000000E+00 0. -1.
         -2    1    3    3    0  502 -0.27004657062E+03 -0.75921622238E+02 -0.33895455703E+03  0.43997662979E+03  0.00000000000E+00 0.  1.
         13    1    5    5    0    0  0.13390108660E+03  0.15087449531E+03  0.51650934250E+03  0.55450384598E+03  0.00000000000E+00 0.  1.
        -13    1    5    5    0    0  0.21722828004E+03  0.10077265255E+03  0.73823563321E+03  0.77610250824E+03  0.00000000000E+00 0. -1.
          4    1    6    6  503    0 -0.65513941978E+02 -0.49787936036E+02  0.78428032395E+01  0.82658482510E+02  0.00000000000E+00 0.  1.
         -4    1    6    6    0  503 -0.14196264199E+02 -0.12076805400E+03 -0.44496071918E+02  0.12948496901E+03  0.00000000000E+00 0. -1.
<mgrwt>
<rscale>  0 0.18387380E+04</rscale>
<asrwt>0</asrwt>
<pdfrwt beam="1">  1        1 0.22017170E+00 0.18387380E+04</pdfrwt>
<pdfrwt beam="2">  1       -2 0.90863933E-01 0.18387380E+04</pdfrwt>
<totfact> 0.62331917E+00</totfact>
</mgrwt>
</event>
<event>
12    5  0.5197392E-008  0.1650109E+04  0.7818608E-02  0.8790342E-01
         -2   -1    0    0    0  501 -0.00000000000E+00  0.00000000000E+00  0.11305581815E+04  0.11305581815E+04  0.00000000000E+00 0.  1.
          1   -1    0    0  501    0  0.00000000000E+00 -0.00000000000E+00 -0.60210501824E+03  0.60210501824E+03  0.00000000000E+00 0. -1.
        -24    2    1    2    0    0  0.71171251024E+02  0.58079236734E+03  0.94927760268E+02  0.60257886778E+03  0.10818914589E+03 0.  0.
        254    2    1    2    0    0 -0.71171251024E+02 -0.58079236734E+03  0.43352540296E+03  0.11300843319E+04  0.86415345936E+03 0.  0.
         23    2    4    4    0    0  0.34614659447E+03 -0.24631069790E+03 -0.10024163506E+01  0.43465400416E+03  0.91851367584E+02 0.  0.
         23    2    4    4    0    0 -0.41731784549E+03 -0.33448166944E+03  0.43452781931E+03  0.69543032777E+03  0.93684276567E+02 0.  0.
          1    1    3    3  502    0  0.44757560840E+02  0.31393623260E+03 -0.29216644661E+01  0.31712416104E+03  0.00000000000E+00 0. -1.
         -2    1    3    3    0  502  0.26413690184E+02  0.26685613474E+03  0.97849424734E+02  0.28545470673E+03  0.00000000000E+00 0.  1.
         13    1    5    5    0    0  0.87806829287E+02 -0.10297270346E+03 -0.27271818209E+02  0.13804770551E+03  0.00000000000E+00 0. -1.
        -13    1    5    5    0    0  0.25833976518E+03 -0.14333799445E+03  0.26269401858E+02  0.29660629865E+03  0.00000000000E+00 0.  1.
          1    1    6    6  503    0 -0.15031701381E+03 -0.96982493894E+02  0.19828774164E+03  0.26705586915E+03  0.00000000000E+00 0. -1.
         -1    1    6    6    0  503 -0.26700083168E+03 -0.23749917554E+03  0.23624007767E+03  0.42837445862E+03  0.00000000000E+00 0.  1.
<mgrwt>
<rscale>  0 0.16501088E+04</rscale>
<asrwt>0</asrwt>
<pdfrwt beam="1">  1        1 0.92631541E-01 0.16501088E+04</pdfrwt>
<pdfrwt beam="2">  1       -2 0.17393203E+00 0.16501088E+04</pdfrwt>
<totfact> 0.56923495E+00</totfact>
</mgrwt>
</event>
<event>
12    5  0.5197392E-008  0.1985791E+04  0.7818608E-02  0.8613293E-01
          1   -1    0    0  501    0  0.00000000000E+00  0.00000000000E+00  0.10921373881E+04  0.10921373881E+04  0.00000000000E+00 0. -1.
         -2   -1    0    0    0  501 -0.00000000000E+00 -0.00000000000E+00 -0.90267173485E+03  0.90267173485E+03  0.00000000000E+00 0.  1.
        -24    2    1    2    0    0 -0.99458644569E+02  0.14738728044E+03 -0.69354828593E+03  0.72050310975E+03  0.80625515989E+02 0.  0.
        254    2    1    2    0    0  0.99458644569E+02 -0.14738728044E+03  0.88301393923E+03  0.12743060132E+04  0.90140288779E+03 0.  0.
         23    2    4    4    0    0  0.34147675225E+03 -0.10828468073E+03  0.16947883880E+02  0.36953574499E+03  0.89092601529E+02 0.  0.
         23    2    4    4    0    0 -0.24201810768E+03 -0.39102599703E+02  0.86606605535E+03  0.90477026826E+03  0.91853406804E+02 0.  0.
          3    1    3    3  502    0 -0.26622263367E+02  0.46548212317E+01 -0.19425124874E+03  0.19612230854E+03  0.00000000000E+00 0. -1.
         -4    1    3    3    0  502 -0.72836381202E+02  0.14273245920E+03 -0.49929703719E+03  0.52438080121E+03  0.00000000000E+00 0.  1.
         13    1    5    5    0    0  0.22831027511E+03 -0.10635175024E+03  0.37066860063E+02  0.25457853133E+03  0.00000000000E+00 0. -1.
        -13    1    5    5    0    0  0.11316647715E+03 -0.19329304890E+01 -0.20118976183E+02  0.11495721366E+03  0.00000000000E+00 0.  1.
          3    1    6    6  503    0 -0.16085423613E+03  0.87827590244E+01  0.63751351721E+03  0.65755205631E+03  0.00000000000E+00 0. -1.
         -3    1    6    6    0  503 -0.81163871553E+02 -0.47885358727E+02  0.22855253814E+03  0.24721821194E+03  0.00000000000E+00 0.  1.
<mgrwt>
<rscale>  0 0.19857911E+04</rscale>
<asrwt>0</asrwt>
<pdfrwt beam="1">  1        1 0.16802114E+00 0.19857911E+04</pdfrwt>
<pdfrwt beam="2">  1       -2 0.13887258E+00 0.19857911E+04</pdfrwt>
<totfact> 0.38395691E+00</totfact>
</mgrwt>
</event>
<event>
12    5  0.5197392E-008  0.1370519E+04  0.7818608E-02  0.8975439E-01
         -2   -1    0    0    0  501 -0.00000000000E+00  0.00000000000E+00  0.15931270727E+03  0.15931270727E+03  0.00000000000E+00 0.  1.
          1   -1    0    0  501    0  0.00000000000E+00 -0.00000000000E+00 -0.29475396195E+04  0.29475396195E+04  0.00000000000E+00 0. -1.
        -24    2    1    2    0    0 -0.36628325022E+03 -0.89764957427E+02 -0.96402260374E+03  0.10382778303E+04  0.80374780303E+02 0.  0.
        254    2    1    2    0    0  0.36628325022E+03  0.89764957427E+02 -0.18242043085E+04  0.20685744965E+04  0.89947647080E+03 0.  0.
         23    2    4    4    0    0 -0.22777062900E+03 -0.19068785593E+03 -0.61619040994E+03  0.69022412910E+03  0.92072847516E+02 0.  0.
         23    2    4    4    0    0  0.59405387922E+03  0.28045281336E+03 -0.12080138986E+04  0.13783503674E+04  0.94859708575E+02 0.  0.
          1    1    3    3  502    0 -0.35288959860E+03 -0.10099978316E+03 -0.90163986497E+03  0.97349189575E+03  0.00000000000E+00 0. -1.
         -2    1    3    3    0  502 -0.13393651624E+02  0.11234825731E+02 -0.62382738773E+02  0.64785934507E+02  0.00000000000E+00 0.  1.
         13    1    5    5    0    0 -0.51193622027E+02 -0.33614885355E+02 -0.22502494595E+03  0.23321014934E+03  0.00000000000E+00 0. -1.
        -13    1    5    5    0    0 -0.17657700697E+03 -0.15707297058E+03 -0.39116546399E+03  0.45701397976E+03  0.00000000000E+00 0.  1.
          3    1    6    6  503    0  0.36838439500E+02  0.41403887315E+02 -0.74415192477E+02  0.92784553568E+02  0.00000000000E+00 0. -1.
         -3    1    6    6    0  503  0.55721543972E+03  0.23904892605E+03 -0.11335987061E+04  0.12855658139E+04  0.00000000000E+00 0.  1.
<mgrwt>
<rscale>  0 0.13705189E+04</rscale>
<asrwt>0</asrwt>
<pdfrwt beam="1">  1        1 0.45346763E+00 0.13705189E+04</pdfrwt>
<pdfrwt beam="2">  1       -2 0.24509648E-01 0.13705189E+04</pdfrwt>
<totfact> 0.83952052E+00</totfact>
</mgrwt>
</event>
<event>
12    5  0.5197392E-008  0.1231998E+04  0.7818608E-02  0.9085301E-01
          3   -1    0    0  501    0  0.00000000000E+00  0.00000000000E+00  0.16596160086E+04  0.16596160086E+04  0.00000000000E+00 0. -1.
         -4   -1    0    0    0  501 -0.00000000000E+00 -0.00000000000E+00 -0.22864000595E+03  0.22864000595E+03  0.00000000000E+00 0.  1.
        -24    2    1    2    0    0  0.67096766072E+02  0.22483002622E+03  0.10261946399E+03  0.26857938554E+03  0.80954402235E+02 0.  0.
        254    2    1    2    0    0 -0.67096766072E+02 -0.22483002622E+03  0.13283565387E+04  0.16196766290E+04  0.89653263860E+03 0.  0.
         23    2    4    4    0    0  0.23510161008E+03 -0.88097869835E+02  0.12330435069E+04  0.12623706778E+04  0.10074441234E+03 0.  0.
         23    2    4    4    0    0 -0.30219837616E+03 -0.13673215638E+03  0.95313031811E+02  0.35730595123E+03  0.92538789756E+02 0.  0.
          3    1    3    3  502    0 -0.83152382258E+01  0.32332834368E+01  0.17250246025E+02  0.19420821209E+02  0.00000000000E+00 0. -1.
         -4    1    3    3    0  502  0.75412004298E+02  0.22159674278E+03  0.85369217964E+02  0.24915856433E+03  0.00000000000E+00 0.  1.
         13    1    5    5    0    0  0.20052735070E+03 -0.11024138681E+03  0.10123600284E+04  0.10379003848E+04  0.00000000000E+00 0.  1.
        -13    1    5    5    0    0  0.34574259381E+02  0.22143516971E+02  0.22068347845E+03  0.22447029295E+03  0.00000000000E+00 0. -1.
          4    1    6    6  503    0 -0.12505087743E+03 -0.39439278987E+02  0.82234956077E+02  0.15477650557E+03  0.00000000000E+00 0. -1.
         -4    1    6    6    0  503 -0.17714749872E+03 -0.97292877397E+02  0.13078075733E+02  0.20252944566E+03  0.00000000000E+00 0.  1.
<mgrwt>
<rscale>  0 0.12319978E+04</rscale>
<asrwt>0</asrwt>
<pdfrwt beam="1">  1        3 0.25532553E+00 0.12319978E+04</pdfrwt>
<pdfrwt beam="2">  1       -4 0.35175387E-01 0.12319978E+04</pdfrwt>
<totfact> 0.12307023E+00</totfact>
</mgrwt>
</event>
<event>
12    5  0.5197392E-008  0.1964579E+04  0.7818608E-02  0.8623362E-01
          1   -1    0    0  501    0  0.00000000000E+00  0.00000000000E+00  0.44311847272E+03  0.44311847272E+03  0.00000000000E+00 0. -1.
         -2   -1    0    0    0  501 -0.00000000000E+00 -0.00000000000E+00 -0.21775060206E+04  0.21775060206E+04  0.00000000000E+00 0.  1.
        -24    2    1    2    0    0 -0.32418551214E+03 -0.36404011256E+03 -0.14851519137E+04  0.15651521812E+04  0.80023081379E+02 0.  0.
        254    2    1    2    0    0  0.32418551214E+03  0.36404011256E+03 -0.24923563422E+03  0.10554723122E+04  0.90237572586E+03 0.  0.
         23    2    4    4    0    0  0.21560691545E+03  0.90587112372E+02 -0.56279679977E+03  0.61606052462E+03  0.89988695051E+02 0.  0.
         23    2    4    4    0    0  0.10857859668E+03  0.27345300019E+03  0.31356116556E+03  0.43941178758E+03  0.90533195865E+02 0.  0.
          1    1    3    3  502    0 -0.50697499990E+01 -0.37366891961E+01 -0.33289354495E+01  0.71236944367E+01  0.00000000000E+00 0. -1.
         -2    1    3    3    0  502 -0.31911576214E+03 -0.36030342337E+03 -0.14818229783E+04  0.15580284867E+04  0.00000000000E+00 0.  1.
         13    1    5    5    0    0  0.17470204103E+03  0.83904496053E+02 -0.35781478423E+03  0.40693019968E+03  0.00000000000E+00 0. -1.
        -13    1    5    5    0    0  0.40904874426E+02  0.66826163191E+01 -0.20498201554E+03  0.20913032494E+03  0.00000000000E+00 0.  1.
          3    1    6    6  503    0  0.21016055124E+01  0.12554312062E+03  0.12516541358E+03  0.17729036251E+03  0.00000000000E+00 0. -1.
         -3    1    6    6    0  503  0.10647699117E+03  0.14790987957E+03  0.18839575197E+03  0.26212142508E+03  0.00000000000E+00 0.  1.
<mgrwt>
<rscale>  0 0.19645795E+04</rscale>
<asrwt>0</asrwt>
<pdfrwt beam="1">  1        1 0.68172073E-01 0.19645795E+04</pdfrwt>
<pdfrwt beam="2">  1       -2 0.33500093E+00 0.19645795E+04</pdfrwt>
<totfact> 0.82438507E-01</totfact>
</mgrwt>
</event>
<event>
12    5  0.5197392E-008  0.1783542E+04  0.7818608E-02  0.8715101E-01
         -2   -1    0    0    0  501 -0.00000000000E+00  0.00000000000E+00  0.42431741200E+03  0.42431741200E+03  0.00000000000E+00 0.  1.
          1   -1    0    0  501    0  0.00000000000E+00 -0.00000000000E+00 -0.18741994750E+04  0.18741994750E+04  0.00000000000E+00 0. -1.
        -24    2    1    2    0    0  0.16756666889E+03 -0.73922497295E+02  0.27850471274E+03  0.34261256346E+03  0.79217229757E+02 0.  0.
        254    2    1    2    0    0 -0.16756666889E+03  0.73922497295E+02 -0.17283867758E+04  0.19559043236E+04  0.89704947033E+03 0.  0.
         23    2    4    4    0    0 -0.14192850767E+03 -0.30542092344E+03 -0.25623982689E+03  0.43283532958E+03  0.90895169740E+02 0.  0.
         23    2    4    4    0    0 -0.25638161220E+02  0.37934342074E+03 -0.14721469489E+04  0.15230689940E+04  0.89239986717E+02 0.  0.
          1    1    3    3  502    0  0.25120991288E+02 -0.48361090461E+02  0.85154734235E+02  0.10109989138E+03  0.00000000000E+00 0. -1.
         -2    1    3    3    0  502  0.14244567760E+03 -0.25561406834E+02  0.19334997851E+03  0.24151267208E+03  0.00000000000E+00 0.  1.
         13    1    5    5    0    0  0.13039651247E+02 -0.31912128961E+02 -0.24701070239E+02  0.42409425255E+02  0.00000000000E+00 0.  1.
        -13    1    5    5    0    0 -0.15496815892E+03 -0.27350879448E+03 -0.23153875666E+03  0.39042590433E+03  0.00000000000E+00 0. -1.
          1    1    6    6  503    0  0.18823149452E+02  0.11717519733E+03 -0.34012643266E+03  0.36023648902E+03  0.00000000000E+00 0. -1.
         -1    1    6    6    0  503 -0.44461310672E+02  0.26216822341E+03 -0.11320205162E+04  0.11628325050E+04  0.00000000000E+00 0.  1.
<mgrwt>
<rscale>  0 0.17835419E+04</rscale>
<asrwt>0</asrwt>
<pdfrwt beam="1">  1        1 0.28833838E+00 0.17835419E+04</pdfrwt>
<pdfrwt beam="2">  1       -2 0.65279602E-01 0.17835419E+04</pdfrwt>
<totfact> 0.65097873E+00</totfact>
</mgrwt>
</event>
<event>
12    5  0.5197392E-008  0.1337923E+04  0.7818608E-02  0.9000021E-01
          1   -1    0    0  501    0  0.00000000000E+00  0.00000000000E+00  0.14663544886E+04  0.14663544886E+04  0.00000000000E+00 0. -1.
         -2   -1    0    0    0  501 -0.00000000000E+00 -0.00000000000E+00 -0.30518523854E+03  0.30518523854E+03  0.00000000000E+00 0.  1.
        -24    2    1    2    0    0 -0.68423833291E+02  0.22503530946E+03 -0.53831606003E+02  0.25316922964E+03  0.76642713719E+02 0.  0.
        254    2    1    2    0    0  0.68423833291E+02 -0.22503530946E+03  0.12150008561E+04  0.15183704975E+04  0.87971539487E+03 0.  0.
         23    2    4    4    0    0 -0.79260107099E+02 -0.26994579938E+03  0.59101329435E+01  0.29603837148E+03  0.91928714438E+02 0.  0.
         23    2    4    4    0    0  0.14768394039E+03  0.44910489924E+02  0.12090907231E+04  0.12223321260E+04  0.91476506297E+02 0.  0.
          1    1    3    3  502    0 -0.18829975756E+02  0.12156884225E+02 -0.23535858928E+02  0.32500684247E+02  0.00000000000E+00 0. -1.
         -2    1    3    3    0  502 -0.49593857535E+02  0.21287842523E+03 -0.30295747074E+02  0.22066854539E+03  0.00000000000E+00 0.  1.
         13    1    5    5    0    0 -0.90470644128E+01 -0.72097224335E+02 -0.37334387775E+02  0.81692812669E+02  0.00000000000E+00 0. -1.
        -13    1    5    5    0    0 -0.70213042686E+02 -0.19784857505E+03  0.43244520719E+02  0.21434555881E+03  0.00000000000E+00 0.  1.
          3    1    6    6  503    0  0.48314450616E+01  0.11551834536E+02  0.16298568028E+02  0.20553127798E+02  0.00000000000E+00 0. -1.
         -3    1    6    6    0  503  0.14285249533E+03  0.33358655388E+02  0.11927921551E+04  0.12017789982E+04  0.00000000000E+00 0.  1.
<mgrwt>
<rscale>  0 0.13379234E+04</rscale>
<asrwt>0</asrwt>
<pdfrwt beam="1">  1        1 0.22559299E+00 0.13379234E+04</pdfrwt>
<pdfrwt beam="2">  1       -2 0.46951576E-01 0.13379234E+04</pdfrwt>
<totfact> 0.25517092E+01</totfact>
</mgrwt>
</event>
<event>
12    5  0.5197392E-008  0.1358608E+04  0.7818608E-02  0.8984337E-01
         -2   -1    0    0    0  501 -0.00000000000E+00  0.00000000000E+00  0.17780430160E+03  0.17780430160E+03  0.00000000000E+00 0.  1.
          1   -1    0    0  501    0  0.00000000000E+00 -0.00000000000E+00 -0.25952928010E+04  0.25952928010E+04  0.00000000000E+00 0. -1.
        -24    2    1    2    0    0  0.11942386562E+03 -0.82387978270E+02  0.22588399677E+02  0.16886825786E+03  0.83405120168E+02 0.  0.
        254    2    1    2    0    0 -0.11942386562E+03  0.82387978270E+02 -0.24400768991E+04  0.26042288447E+04  0.89832219370E+03 0.  0.
         23    2    4    4    0    0 -0.11792212405E+02 -0.22983016423E+03 -0.21221645519E+04  0.21366967015E+04  0.94495758223E+02 0.  0.
         23    2    4    4    0    0 -0.10763165321E+03  0.31221814250E+03 -0.31791234717E+03  0.46753214319E+03  0.91941846608E+02 0.  0.
          1    1    3    3  502    0  0.21928919337E+02 -0.24327715666E+02 -0.29436840090E+02  0.44036834665E+02  0.00000000000E+00 0. -1.
         -2    1    3    3    0  502  0.97494946283E+02 -0.58060262604E+02  0.52025239768E+02  0.12483142320E+03  0.00000000000E+00 0.  1.
         13    1    5    5    0    0 -0.31764750460E+02 -0.19776303157E+02 -0.36286499548E+03  0.36478912604E+03  0.00000000000E+00 0.  1.
        -13    1    5    5    0    0  0.19972538054E+02 -0.21005386107E+03 -0.17592995564E+04  0.17719075755E+04  0.00000000000E+00 0. -1.
          3    1    6    6  503    0 -0.11240257009E+03  0.23606039935E+03 -0.27717738221E+03  0.38103300528E+03  0.00000000000E+00 0. -1.
         -3    1    6    6    0  503  0.47709168748E+01  0.76157743148E+02 -0.40734964952E+02  0.86499137909E+02  0.00000000000E+00 0.  1.
<mgrwt>
<rscale>  0 0.13586084E+04</rscale>
<asrwt>0</asrwt>
<pdfrwt beam="1">  1        1 0.39927580E+00 0.13586084E+04</pdfrwt>
<pdfrwt beam="2">  1       -2 0.27354509E-01 0.13586084E+04</pdfrwt>
<totfact> 0.12209344E+01</totfact>
</mgrwt>
</event>
<event>
12    5  0.5197392E-008  0.2280118E+04  0.7818608E-02  0.8485802E-01
          1   -1    0    0  501    0  0.00000000000E+00  0.00000000000E+00  0.28845760717E+04  0.28845760717E+04  0.00000000000E+00 0. -1.
         -2   -1    0    0    0  501 -0.00000000000E+00 -0.00000000000E+00 -0.45058074554E+03  0.45058074554E+03  0.00000000000E+00 0.  1.
        -24    2    1    2    0    0 -0.76344460794E+03  0.58184722259E+03  0.93127327590E+03  0.13399407169E+04  0.82324665114E+02 0.  0.
        254    2    1    2    0    0  0.76344460794E+03 -0.58184722259E+03  0.15027220503E+04  0.19952161004E+04  0.89516471504E+03 0.  0.
         23    2    4    4    0    0  0.38792786497E+02  0.21188540004E+03  0.26728094235E+03  0.35515801231E+03  0.91092307758E+02 0.  0.
         23    2    4    4    0    0  0.72465182144E+03 -0.79373262264E+03  0.12354411079E+04  0.16400580881E+04  0.91345840465E+02 0.  0.
          1    1    3    3  502    0 -0.53147633934E+03  0.36147424383E+03  0.59738419575E+03  0.87749564418E+03  0.00000000000E+00 0. -1.
         -2    1    3    3    0  502 -0.23196826860E+03  0.22037297877E+03  0.33388908016E+03  0.46244507269E+03  0.00000000000E+00 0.  1.
         13    1    5    5    0    0  0.25881621874E+02  0.20972799542E+03  0.21578591343E+03  0.30202524869E+03  0.00000000000E+00 0. -1.
        -13    1    5    5    0    0  0.12911164623E+02  0.21574046229E+01  0.51495028918E+02  0.53132763620E+02  0.00000000000E+00 0.  1.
          1    1    6    6  503    0  0.42843865959E+03 -0.41650527291E+03  0.72800988423E+03  0.94182520614E+03  0.00000000000E+00 0. -1.
         -1    1    6    6    0  503  0.29621316185E+03 -0.37722734973E+03  0.50743122371E+03  0.69823288195E+03  0.00000000000E+00 0.  1.
<mgrwt>
<rscale>  0 0.22801179E+04</rscale>
<asrwt>0</asrwt>
<pdfrwt beam="1">  1        1 0.44378092E+00 0.22801179E+04</pdfrwt>
<pdfrwt beam="2">  1       -2 0.69320117E-01 0.22801179E+04</pdfrwt>
<totfact> 0.10958008E+00</totfact>
</mgrwt>
</event>
<event>
12    5  0.5197392E-008  0.1390001E+04  0.7818608E-02  0.8961088E-01
          1   -1    0    0  501    0  0.00000000000E+00  0.00000000000E+00  0.56990657346E+03  0.56990657346E+03  0.00000000000E+00 0. -1.
         -2   -1    0    0    0  501 -0.00000000000E+00 -0.00000000000E+00 -0.84755231475E+03  0.84755231475E+03  0.00000000000E+00 0.  1.
        -24    2    1    2    0    0  0.18673911304E+03  0.25472891502E+03  0.15622044846E+03  0.36285303244E+03  0.86597795280E+02 0.  0.
        254    2    1    2    0    0 -0.18673911304E+03 -0.25472891502E+03 -0.43386618975E+03  0.10546058558E+04  0.90785203857E+03 0.  0.
         23    2    4    4    0    0 -0.49766782826E+03 -0.35615171459E+03 -0.32199973112E+03  0.69751830109E+03  0.91272352921E+02 0.  0.
         23    2    4    4    0    0  0.31092871523E+03  0.10142279957E+03 -0.11186645863E+03  0.35708755469E+03  0.89633514511E+02 0.  0.
          1    1    3    3  502    0  0.19214167058E+03  0.25024318719E+03  0.16115034922E+03  0.35427321288E+03  0.00000000000E+00 0. -1.
         -2    1    3    3    0  502 -0.54025575435E+01  0.44857278303E+01 -0.49299007613E+01  0.85798195607E+01  0.00000000000E+00 0.  1.
         13    1    5    5    0    0 -0.45282160190E+02 -0.68545552821E+02 -0.52759081394E+02  0.97634458634E+02  0.00000000000E+00 0. -1.
        -13    1    5    5    0    0 -0.45238566807E+03 -0.28760616177E+03 -0.26924064973E+03  0.59988384245E+03  0.00000000000E+00 0.  1.
          4    1    6    6  503    0  0.10357065383E+02  0.51498362536E+01 -0.28338653677E+02  0.30608314377E+02  0.00000000000E+00 0. -1.
         -4    1    6    6    0  503  0.30057164984E+03  0.96272963318E+02 -0.83527804949E+02  0.32647924031E+03  0.00000000000E+00 0.  1.
<mgrwt>
<rscale>  0 0.13900009E+04</rscale>
<asrwt>0</asrwt>
<pdfrwt beam="1">  1        1 0.87677935E-01 0.13900009E+04</pdfrwt>
<pdfrwt beam="2">  1       -2 0.13039266E+00 0.13900009E+04</pdfrwt>
<totfact> 0.13564023E+01</totfact>
</mgrwt>
</event>
<event>
12    5  0.5197392E-008  0.1339952E+04  0.7818608E-02  0.8998469E-01
          1   -1    0    0  501    0  0.00000000000E+00  0.00000000000E+00  0.86276219797E+03  0.86276219797E+03  0.00000000000E+00 0. -1.
         -2   -1    0    0    0  501 -0.00000000000E+00 -0.00000000000E+00 -0.52026827463E+03  0.52026827463E+03  0.00000000000E+00 0.  1.
        -24    2    1    2    0    0  0.19327153715E+03  0.26172556289E+03 -0.66021360493E+02  0.34172569371E+03  0.81015260032E+02 0.  0.
        254    2    1    2    0    0 -0.19327153715E+03 -0.26172556289E+03  0.40851528383E+03  0.10413047789E+04  0.90087554527E+03 0.  0.
         23    2    4    4    0    0 -0.28800504186E+03  0.26003299656E+03  0.67053787294E+02  0.40404328376E+03  0.90502493481E+02 0.  0.
         23    2    4    4    0    0  0.94733504703E+02 -0.52175855944E+03  0.34146149654E+03  0.63726149513E+03  0.91103393393E+02 0.  0.
          3    1    3    3  502    0  0.64269960513E+02  0.37142072561E+02 -0.30713909694E+02  0.80333714138E+02  0.00000000000E+00 0. -1.
         -4    1    3    3    0  502  0.12900157664E+03  0.22458349033E+03 -0.35307450798E+02  0.26139197957E+03  0.00000000000E+00 0.  1.
         13    1    5    5    0    0 -0.28396044790E+03  0.22912950538E+03  0.73530443927E+02  0.37221041413E+03  0.00000000000E+00 0.  1.
        -13    1    5    5    0    0 -0.40445939579E+01  0.30903491180E+02 -0.64766566331E+01  0.31832869625E+02  0.00000000000E+00 0. -1.
          1    1    6    6  503    0 -0.45345852413E+01 -0.19832945853E+03  0.10460649492E+03  0.22427138775E+03  0.00000000000E+00 0. -1.
         -1    1    6    6    0  503  0.99268089944E+02 -0.32342910091E+03  0.23685500162E+03  0.41299010737E+03  0.00000000000E+00 0.  1.
<mgrwt>
<rscale>  0 0.13399519E+04</rscale>
<asrwt>0</asrwt>
<pdfrwt beam="1">  1        1 0.13273265E+00 0.13399519E+04</pdfrwt>
<pdfrwt beam="2">  1       -2 0.80041273E-01 0.13399519E+04</pdfrwt>
<totfact> 0.23159856E+01</totfact>
</mgrwt>
</event>
<event>
12    5  0.5197392E-008  0.1236245E+04  0.7818608E-02  0.9081709E-01
         -2   -1    0    0    0  501 -0.00000000000E+00  0.00000000000E+00  0.43492826766E+03  0.43492826766E+03  0.00000000000E+00 0.  1.
          1   -1    0    0  501    0  0.00000000000E+00 -0.00000000000E+00 -0.87847980392E+03  0.87847980392E+03  0.00000000000E+00 0. -1.
        -24    2    1    2    0    0  0.22817094525E+03  0.10441618754E+03 -0.24280196357E+03  0.35865047527E+03  0.81930759949E+02 0.  0.
        254    2    1    2    0    0 -0.22817094525E+03 -0.10441618754E+03 -0.20074957269E+03  0.95475759631E+03  0.89905336677E+03 0.  0.
         23    2    4    4    0    0  0.22026761614E+02  0.93883301782E+02  0.31517266600E+03  0.34094578062E+03  0.87240835298E+02 0.  0.
         23    2    4    4    0    0 -0.25019770686E+03 -0.19829948932E+03 -0.51592223870E+03  0.61381181569E+03  0.93099993122E+02 0.  0.
          3    1    3    3  502    0  0.68097386662E+02  0.55295361002E+01 -0.10564107014E+03  0.12580884524E+03  0.00000000000E+00 0. -1.
         -4    1    3    3    0  502  0.16007355858E+03  0.98886651441E+02 -0.13716089343E+03  0.23284163003E+03  0.00000000000E+00 0.  1.
         13    1    5    5    0    0  0.40902536104E+02  0.50628778266E+02  0.26148726371E+03  0.26946591571E+03  0.00000000000E+00 0. -1.
        -13    1    5    5    0    0 -0.18875774490E+02  0.43254523515E+02  0.53685402294E+02  0.71479864903E+02  0.00000000000E+00 0.  1.
          1    1    6    6  503    0 -0.23428065221E+03 -0.16672434007E+03 -0.49573533965E+03  0.57309506764E+03  0.00000000000E+00 0. -1.
         -1    1    6    6    0  503 -0.15917054648E+02 -0.31575149253E+02 -0.20186899043E+02  0.40716748052E+02  0.00000000000E+00 0.  1.
<mgrwt>
<rscale>  0 0.12362454E+04</rscale>
<asrwt>0</asrwt>
<pdfrwt beam="1">  1        1 0.13515074E+00 0.12362454E+04</pdfrwt>
<pdfrwt beam="2">  1       -2 0.66912041E-01 0.12362454E+04</pdfrwt>
<totfact> 0.33636131E+01</totfact>
</mgrwt>
</event>
<event>
12    5  0.5197392E-008  0.1411608E+04  0.7818608E-02  0.8945459E-01
         -2   -1    0    0    0  501 -0.00000000000E+00  0.00000000000E+00  0.10551145713E+04  0.10551145713E+04  0.00000000000E+00 0.  1.
          1   -1    0    0  501    0  0.00000000000E+00 -0.00000000000E+00 -0.47213747942E+03  0.47213747942E+03  0.00000000000E+00 0. -1.
        -24    2    1    2    0    0 -0.22525504013E+03 -0.14675603172E+03  0.50495961696E+03  0.57759468557E+03  0.79713487473E+02 0.  0.
        254    2    1    2    0    0  0.22525504013E+03  0.14675603172E+03  0.78017474933E+02  0.94965736517E+03  0.90746086355E+03 0.  0.
         23    2    4    4    0    0  0.37285220943E+03 -0.27932952298E+03  0.11542652390E+03  0.48836090846E+03  0.90162863761E+02 0.  0.
         23    2    4    4    0    0 -0.14759716931E+03  0.42608555469E+03 -0.37409048970E+02  0.46129645672E+03  0.89783961433E+02 0.  0.
          1    1    3    3  502    0 -0.32044894847E+01  0.79540445055E+01  0.80221744905E+01  0.11742693916E+02  0.00000000000E+00 0. -1.
         -2    1    3    3    0  502 -0.22205055064E+03 -0.15471007622E+03  0.49693744247E+03  0.56585199165E+03  0.00000000000E+00 0.  1.
         13    1    5    5    0    0  0.43325744820E+02 -0.33178921454E+02 -0.15472462679E+02  0.56721760326E+02  0.00000000000E+00 0.  1.
        -13    1    5    5    0    0  0.32952646461E+03 -0.24615060152E+03  0.13089898658E+03  0.43163914813E+03  0.00000000000E+00 0. -1.
          2    1    6    6  503    0 -0.13067174490E+03  0.24631054586E+03 -0.31869526256E+02  0.28064150908E+03  0.00000000000E+00 0. -1.
         -2    1    6    6    0  503 -0.16925424402E+02  0.17977500884E+03 -0.55395227145E+01  0.18065494764E+03  0.00000000000E+00 0.  1.
<mgrwt>
<rscale>  0 0.14116078E+04</rscale>
<asrwt>0</asrwt>
<pdfrwt beam="1">  1        1 0.72636535E-01 0.14116078E+04</pdfrwt>
<pdfrwt beam="2">  1       -2 0.16232532E+00 0.14116078E+04</pdfrwt>
<totfact> 0.98824401E+00</totfact>
</mgrwt>
</event>
<event>
12    5  0.5197392E-008  0.2455896E+04  0.7818608E-02  0.8418869E-01
         -4   -1    0    0    0  501 -0.00000000000E+00  0.00000000000E+00  0.62848510340E+03  0.62848510340E+03  0.00000000000E+00 0.  1.
          3   -1    0    0  501    0  0.00000000000E+00 -0.00000000000E+00 -0.23991911482E+04  0.23991911482E+04  0.00000000000E+00 0. -1.
        -24    2    1    2    0    0 -0.50044745726E+03 -0.93075954202E+03 -0.90059141418E+03  0.13906679869E+04  0.78304354424E+02 0.  0.
        254    2    1    2    0    0  0.50044745726E+03  0.93075954202E+03 -0.87011463058E+03  0.16370082647E+04  0.89773916350E+03 0.  0.
         23    2    4    4    0    0  0.20984459376E+03  0.46597960299E+02 -0.63010437209E+03  0.67139764597E+03  0.86816794717E+02 0.  0.
         23    2    4    4    0    0  0.29060286351E+03  0.88416158172E+03 -0.24001025848E+03  0.96561061869E+03  0.92775082253E+02 0.  0.
          1    1    3    3  502    0 -0.39013277356E+03 -0.71565232195E+03 -0.73604549393E+03  0.10982371311E+04  0.00000000000E+00 0. -1.
         -2    1    3    3    0  502 -0.11031468371E+03 -0.21510722007E+03 -0.16454592025E+03  0.29243085582E+03  0.00000000000E+00 0.  1.
         13    1    5    5    0    0  0.46885950424E+02  0.28950455970E+02 -0.27252854323E+03  0.27804357235E+03  0.00000000000E+00 0. -1.
        -13    1    5    5    0    0  0.16295864333E+03  0.17647504329E+02 -0.35757582886E+03  0.39335407362E+03  0.00000000000E+00 0.  1.
          3    1    6    6  503    0  0.27990794927E+03  0.87009239911E+03 -0.24669792778E+03  0.94671490462E+03  0.00000000000E+00 0. -1.
         -3    1    6    6    0  503  0.10694914235E+02  0.14069182611E+02  0.66876692958E+01  0.18895714076E+02  0.00000000000E+00 0.  1.
<mgrwt>
<rscale>  0 0.24558957E+04</rscale>
<asrwt>0</asrwt>
<pdfrwt beam="1">  1        3 0.36910633E+00 0.24558957E+04</pdfrwt>
<pdfrwt beam="2">  1       -4 0.96690015E-01 0.24558957E+04</pdfrwt>
<totfact> 0.29823389E-02</totfact>
</mgrwt>
</event>
<event>
12    5  0.5197392E-008  0.1387839E+04  0.7818608E-02  0.8962669E-01
         -2   -1    0    0    0  501 -0.00000000000E+00  0.00000000000E+00  0.30125616176E+03  0.30125616176E+03  0.00000000000E+00 0.  1.
          1   -1    0    0  501    0  0.00000000000E+00 -0.00000000000E+00 -0.15983870279E+04  0.15983870279E+04  0.00000000000E+00 0. -1.
        -24    2    1    2    0    0 -0.30851665771E+03  0.33785499240E+02 -0.73212194954E+03  0.79926915263E+03  0.80651356526E+02 0.  0.
        254    2    1    2    0    0  0.30851665771E+03 -0.33785499240E+02 -0.56500891661E+03  0.11003740370E+04  0.89177573274E+03 0.  0.
         23    2    4    4    0    0 -0.56703008629E+02 -0.40274584365E+03 -0.26404075952E+03  0.49352542092E+03  0.91817060720E+02 0.  0.
         23    2    4    4    0    0  0.36521966633E+03  0.36896034441E+03 -0.30096815708E+03  0.60684861612E+03  0.90367421581E+02 0.  0.
          1    1    3    3  502    0 -0.16961468910E+03  0.50222196883E+02 -0.46956497951E+03  0.50177951513E+03  0.00000000000E+00 0. -1.
         -2    1    3    3    0  502 -0.13890196860E+03 -0.16436697643E+02 -0.26255697003E+03  0.29748963750E+03  0.00000000000E+00 0.  1.
         13    1    5    5    0    0 -0.14607045807E+01 -0.19398571149E+03 -0.80170171150E+02  0.20990437409E+03  0.00000000000E+00 0. -1.
        -13    1    5    5    0    0 -0.55242304048E+02 -0.20876013216E+03 -0.18387058837E+03  0.28362104683E+03  0.00000000000E+00 0.  1.
          4    1    6    6  503    0  0.34850496719E+03  0.32500306310E+03 -0.29227616479E+03  0.55902420313E+03  0.00000000000E+00 0. -1.
         -4    1    6    6    0  503  0.16714699145E+02  0.43957281313E+02 -0.86919922933E+01  0.47824412992E+02  0.00000000000E+00 0.  1.
<mgrwt>
<rscale>  0 0.13878385E+04</rscale>
<asrwt>0</asrwt>
<pdfrwt beam="1">  1        1 0.24590570E+00 0.13878385E+04</pdfrwt>
<pdfrwt beam="2">  1       -2 0.46347102E-01 0.13878385E+04</pdfrwt>
<totfact> 0.21149701E+01</totfact>
</mgrwt>
</event>
<event>
12    5  0.5197392E-008  0.1541514E+04  0.7818608E-02  0.8857306E-01
          1   -1    0    0  501    0  0.00000000000E+00  0.00000000000E+00  0.48742781178E+03  0.48742781178E+03  0.00000000000E+00 0. -1.
         -2   -1    0    0    0  501 -0.00000000000E+00 -0.00000000000E+00 -0.12187787273E+04  0.12187787273E+04  0.00000000000E+00 0.  1.
        -24    2    1    2    0    0 -0.25490412721E+03 -0.43507118560E+03 -0.26127426928E+03  0.57350409767E+03  0.79872746609E+02 0.  0.
        254    2    1    2    0    0  0.25490412721E+03  0.43507118560E+03 -0.47007664621E+03  0.11327024414E+04  0.89876566290E+03 0.  0.
         23    2    4    4    0    0  0.29260460186E+03 -0.14362702280E+03  0.58068085186E+02  0.34312362979E+03  0.90087446957E+02 0.  0.
         23    2    4    4    0    0 -0.37700474651E+02  0.57869820839E+03 -0.52814473140E+03  0.78957881159E+03  0.90470438378E+02 0.  0.
          1    1    3    3  502    0 -0.20732260540E+01 -0.31533277355E+02 -0.32038254735E+02  0.45001062359E+02  0.00000000000E+00 0. -1.
         -2    1    3    3    0  502 -0.25283090116E+03 -0.40353790824E+03 -0.22923601454E+03  0.52850303531E+03  0.00000000000E+00 0.  1.
         13    1    5    5    0    0  0.29425502445E+03 -0.12565550543E+03  0.52522269684E+02  0.32424360329E+03  0.00000000000E+00 0.  1.
        -13    1    5    5    0    0 -0.16504225937E+01 -0.17971517370E+02  0.55458155020E+01  0.18880026507E+02  0.00000000000E+00 0. -1.
          3    1    6    6  503    0 -0.28147384778E+02  0.55422602793E+02 -0.40120368232E+02  0.73983674668E+02  0.00000000000E+00 0. -1.
         -3    1    6    6    0  503 -0.95530898728E+01  0.52327560560E+03 -0.48802436317E+03  0.71559513692E+03  0.00000000000E+00 0.  1.
<mgrwt>
<rscale>  0 0.15415144E+04</rscale>
<asrwt>0</asrwt>
<pdfrwt beam="1">  1        1 0.74988893E-01 0.15415144E+04</pdfrwt>
<pdfrwt beam="2">  1       -2 0.18750442E+00 0.15415144E+04</pdfrwt>
<totfact> 0.62306345E+00</totfact>
</mgrwt>
</event>
<event>
12    5  0.5197392E-008  0.1531856E+04  0.7818608E-02  0.8863541E-01
         -2   -1    0    0    0  501 -0.00000000000E+00  0.00000000000E+00  0.31158623928E+03  0.31158623928E+03  0.00000000000E+00 0.  1.
          1   -1    0    0  501    0  0.00000000000E+00 -0.00000000000E+00 -0.18827707730E+04  0.18827707730E+04  0.00000000000E+00 0. -1.
        -24    2    1    2    0    0  0.38902030853E+03 -0.20551177067E+03 -0.20895852967E+03  0.49336096480E+03  0.78546076541E+02 0.  0.
        254    2    1    2    0    0 -0.38902030853E+03  0.20551177067E+03 -0.13622260041E+04  0.17009960475E+04  0.91877961401E+03 0.  0.
         23    2    4    4    0    0 -0.45251151304E+03  0.37746941645E+03 -0.13722578119E+04  0.14963166917E+04  0.92856392158E+02 0.  0.
         23    2    4    4    0    0  0.63491204512E+02 -0.17195764578E+03  0.10031807872E+02  0.20467935582E+03  0.90512079509E+02 0.  0.
          3    1    3    3  502    0  0.90255854049E+02 -0.79893205798E+02 -0.79332057719E+02  0.14430044665E+03  0.00000000000E+00 0. -1.
         -4    1    3    3    0  502  0.29876445448E+03 -0.12561856487E+03 -0.12962647195E+03  0.34906051815E+03  0.00000000000E+00 0.  1.
         13    1    5    5    0    0 -0.32049431113E+03  0.31888766719E+03 -0.10370702942E+04  0.11313358223E+04  0.00000000000E+00 0. -1.
        -13    1    5    5    0    0 -0.13201720191E+03  0.58581749265E+02 -0.33518751776E+03  0.36498086937E+03  0.00000000000E+00 0.  1.
          1    1    6    6  503    0  0.20446595153E+02 -0.14105838676E+03  0.33987663829E+02  0.14652881294E+03  0.00000000000E+00 0. -1.
         -1    1    6    6    0  503  0.43044609360E+02 -0.30899259023E+02 -0.23955855956E+02  0.58150542884E+02  0.00000000000E+00 0.  1.
<mgrwt>
<rscale>  0 0.15318557E+04</rscale>
<asrwt>0</asrwt>
<pdfrwt beam="1">  1        1 0.28965705E+00 0.15318557E+04</pdfrwt>
<pdfrwt beam="2">  1       -2 0.47936344E-01 0.15318557E+04</pdfrwt>
<totfact> 0.12503396E+01</totfact>
</mgrwt>
</event>
<event>
12    5  0.5197392E-008  0.1830757E+04  0.7818608E-02  0.8690112E-01
          3   -1    0    0  501    0  0.00000000000E+00  0.00000000000E+00  0.41255027124E+03  0.41255027124E+03  0.00000000000E+00 0. -1.
         -4   -1    0    0    0  501 -0.00000000000E+00 -0.00000000000E+00 -0.20310691534E+04  0.20310691534E+04  0.00000000000E+00 0.  1.
        -24    2    1    2    0    0  0.54210135272E+03  0.13182015280E+03 -0.72977140480E+02  0.56818024686E+03  0.79074019654E+02 0.  0.
        254    2    1    2    0    0 -0.54210135272E+03 -0.13182015280E+03 -0.15455417417E+04  0.18754391778E+04  0.90405885042E+03 0.  0.
         23    2    4    4    0    0 -0.21713678940E+03 -0.22179274905E+03 -0.14858644163E+04  0.15210899452E+04  0.97883343478E+02 0.  0.
         23    2    4    4    0    0 -0.32496456332E+03  0.89972596248E+02 -0.59677325393E+02  0.35434923260E+03  0.91131553194E+02 0.  0.
          3    1    3    3  502    0  0.39161737844E+03  0.10175367639E+03 -0.87704475837E+02  0.41401697651E+03  0.00000000000E+00 0. -1.
         -4    1    3    3    0  502  0.15048397427E+03  0.30066476407E+02  0.14727335358E+02  0.15416327035E+03  0.00000000000E+00 0.  1.
         13    1    5    5    0    0 -0.53353516434E+02 -0.11027210884E+03 -0.69949628995E+03  0.71014195437E+03  0.00000000000E+00 0.  1.
        -13    1    5    5    0    0 -0.16378327297E+03 -0.11152064021E+03 -0.78636812637E+03  0.81094799085E+03  0.00000000000E+00 0. -1.
          2    1    6    6  503    0 -0.24137964065E+03  0.98712882057E+02 -0.20393155646E+02  0.26158028366E+03  0.00000000000E+00 0. -1.
         -2    1    6    6    0  503 -0.83584922670E+02 -0.87402858091E+01 -0.39284169746E+02  0.92768948935E+02  0.00000000000E+00 0.  1.
<mgrwt>
<rscale>  0 0.18307574E+04</rscale>
<asrwt>0</asrwt>
<pdfrwt beam="1">  1        3 0.63469273E-01 0.18307574E+04</pdfrwt>
<pdfrwt beam="2">  1       -4 0.31247218E+00 0.18307574E+04</pdfrwt>
<totfact> 0.13416714E-01</totfact>
</mgrwt>
</event>
<event>
12    5  0.5197392E-008  0.2176860E+04  0.7818608E-02  0.8528122E-01
          1   -1    0    0  501    0  0.00000000000E+00  0.00000000000E+00  0.94633881455E+03  0.94633881455E+03  0.00000000000E+00 0. -1.
         -2   -1    0    0    0  501 -0.00000000000E+00 -0.00000000000E+00 -0.12518554620E+04  0.12518554620E+04  0.00000000000E+00 0.  1.
        -24    2    1    2    0    0  0.72717096888E+03 -0.22615718410E+03 -0.61256143114E+03  0.98065738913E+03  0.80825231410E+02 0.  0.
        254    2    1    2    0    0 -0.72717096888E+03  0.22615718410E+03  0.30704478371E+03  0.12175368874E+04  0.89899659792E+03 0.  0.
         23    2    4    4    0    0  0.73936179483E+02 -0.34918705580E+02 -0.19324289612E+03  0.23328284868E+03  0.10194212061E+03 0.  0.
         23    2    4    4    0    0 -0.80110714836E+03  0.26107588968E+03  0.50028767983E+03  0.98425403872E+03  0.92384884108E+02 0.  0.
          3    1    3    3  502    0  0.62393979765E+02 -0.25691258633E+01 -0.70874349139E+02  0.94460481073E+02  0.00000000000E+00 0. -1.
         -4    1    3    3    0  502  0.66477698911E+03 -0.22358805824E+03 -0.54168708200E+03  0.88619690805E+03  0.00000000000E+00 0.  1.
         13    1    5    5    0    0  0.46114978234E+01 -0.23647801777E+02  0.35304885640E+01  0.24350539841E+02  0.00000000000E+00 0.  1.
        -13    1    5    5    0    0  0.69324681659E+02 -0.11270903803E+02 -0.19677338468E+03  0.20893230884E+03  0.00000000000E+00 0. -1.
          3    1    6    6  503    0 -0.63752254902E+03  0.19718364430E+03  0.43653872684E+03  0.79742237874E+03  0.00000000000E+00 0. -1.
         -3    1    6    6    0  503 -0.16358459934E+03  0.63892245375E+02  0.63748952991E+02  0.18683165997E+03  0.00000000000E+00 0.  1.
<mgrwt>
<rscale>  0 0.21768596E+04</rscale>
<asrwt>0</asrwt>
<pdfrwt beam="1">  1        1 0.14559059E+00 0.21768596E+04</pdfrwt>
<pdfrwt beam="2">  1       -2 0.19259315E+00 0.21768596E+04</pdfrwt>
<totfact> 0.19898208E+00</totfact>
</mgrwt>
</event>
<event>
12    5  0.5197392E-008  0.2818462E+04  0.7818608E-02  0.8297559E-01
          1   -1    0    0  501    0  0.00000000000E+00  0.00000000000E+00  0.35064933025E+04  0.35064933025E+04  0.00000000000E+00 0. -1.
         -2   -1    0    0    0  501 -0.00000000000E+00 -0.00000000000E+00 -0.56635842806E+03  0.56635842806E+03  0.00000000000E+00 0.  1.
        -24    2    1    2    0    0 -0.99922389241E+03  0.39628932774E+03  0.36234201621E+03  0.11371548313E+04  0.79597457628E+02 0.  0.
        254    2    1    2    0    0  0.99922389241E+03 -0.39628932774E+03  0.25777928583E+04  0.29356968993E+04  0.90432662557E+03 0.  0.
         23    2    4    4    0    0  0.61210896244E+03 -0.38966605394E+03  0.68628842625E+03  0.10030504674E+04  0.92743844433E+02 0.  0.
         23    2    4    4    0    0  0.38711492998E+03 -0.66232738023E+01  0.18915044320E+04  0.19326464319E+04  0.86205437255E+02 0.  0.
          1    1    3    3  502    0 -0.65026845894E+02  0.34367190560E+02  0.45081423729E+02  0.86266617178E+02  0.00000000000E+00 0. -1.
         -2    1    3    3    0  502 -0.93419704652E+03  0.36192213718E+03  0.31726059248E+03  0.10508882142E+04  0.00000000000E+00 0.  1.
         13    1    5    5    0    0  0.14569454765E+03 -0.49585976864E+02  0.13141372406E+03  0.20237400324E+03  0.00000000000E+00 0.  1.
        -13    1    5    5    0    0  0.46641441479E+03 -0.34008007707E+03  0.55487470219E+03  0.80067646417E+03  0.00000000000E+00 0. -1.
          4    1    6    6  503    0  0.32422698583E+03  0.23299041806E+02  0.16249099697E+04  0.16571054261E+04  0.00000000000E+00 0. -1.
         -4    1    6    6    0  503  0.62887944144E+02 -0.29922315609E+02  0.26659446237E+03  0.27554100576E+03  0.00000000000E+00 0.  1.
<mgrwt>
<rscale>  0 0.28184620E+04</rscale>
<asrwt>0</asrwt>
<pdfrwt beam="1">  1        1 0.53946049E+00 0.28184620E+04</pdfrwt>
<pdfrwt beam="2">  1       -2 0.87132068E-01 0.28184620E+04</pdfrwt>
<totfact> 0.21378048E-01</totfact>
</mgrwt>
</event>
<event>
12    5  0.5197392E-008  0.1275410E+04  0.7818608E-02  0.9049296E-01
          1   -1    0    0  501    0  0.00000000000E+00  0.00000000000E+00  0.60361263461E+03  0.60361263461E+03  0.00000000000E+00 0. -1.
         -2   -1    0    0    0  501 -0.00000000000E+00 -0.00000000000E+00 -0.67372257627E+03  0.67372257627E+03  0.00000000000E+00 0.  1.
        -24    2    1    2    0    0  0.11050829920E+03 -0.14715144988E+03  0.21468094511E+03  0.29664786252E+03  0.89701799042E+02 0.  0.
        254    2    1    2    0    0 -0.11050829920E+03  0.14715144988E+03 -0.28479088677E+03  0.98068734836E+03  0.92020442981E+03 0.  0.
         23    2    4    4    0    0 -0.22039788204E+02  0.52817084933E+03 -0.16712454884E+03  0.56206958605E+03  0.92419729482E+02 0.  0.
         23    2    4    4    0    0 -0.88468511000E+02 -0.38101939944E+03 -0.11766633793E+03  0.41861776230E+03  0.91613337686E+02 0.  0.
          1    1    3    3  502    0  0.77268692845E+02 -0.12232153026E+03  0.20982971633E+03  0.25487549414E+03  0.00000000000E+00 0. -1.
         -2    1    3    3    0  502  0.33239606360E+02 -0.24829919621E+02  0.48512287762E+01  0.41772368379E+02  0.00000000000E+00 0.  1.
         13    1    5    5    0    0 -0.55883437831E+02  0.32700408988E+03 -0.87532707996E+02  0.34309854036E+03  0.00000000000E+00 0.  1.
        -13    1    5    5    0    0  0.33843649627E+02  0.20116675944E+03 -0.79591840845E+02  0.21897104570E+03  0.00000000000E+00 0. -1.
          4    1    6    6  503    0 -0.51845300962E+02 -0.17273749251E+03 -0.83156584592E+01  0.18054175895E+03  0.00000000000E+00 0. -1.
         -4    1    6    6    0  503 -0.36623210038E+02 -0.20828190693E+03 -0.10935067947E+03  0.23807600335E+03  0.00000000000E+00 0.  1.
<mgrwt>
<rscale>  0 0.12754097E+04</rscale>
<asrwt>0</asrwt>
<pdfrwt beam="1">  1        1 0.92863482E-01 0.12754097E+04</pdfrwt>
<pdfrwt beam="2">  1       -2 0.10364963E+00 0.12754097E+04</pdfrwt>
<totfact> 0.22178154E+01</totfact>
</mgrwt>
</event>
<event>
12    5  0.5197392E-008  0.1358995E+04  0.7818608E-02  0.8984047E-01
          1   -1    0    0  501    0  0.00000000000E+00  0.00000000000E+00  0.17744416827E+04  0.17744416827E+04  0.00000000000E+00 0. -1.
         -2   -1    0    0    0  501 -0.00000000000E+00 -0.00000000000E+00 -0.26020410272E+03  0.26020410272E+03  0.00000000000E+00 0.  1.
        -24    2    1    2    0    0 -0.26880717913E+03  0.26752591507E+03  0.45993430501E+03  0.60150630195E+03  0.80267375558E+02 0.  0.
        254    2    1    2    0    0  0.26880717913E+03 -0.26752591507E+03  0.10543032749E+04  0.14331394834E+04  0.89359161179E+03 0.  0.
         23    2    4    4    0    0  0.23038114934E+03  0.21863300195E+03  0.82008768660E+03  0.88414852039E+03  0.91098457113E+02 0.  0.
         23    2    4    4    0    0  0.38426029789E+02 -0.48615891701E+03  0.23421558834E+03  0.54899096304E+03  0.93311753418E+02 0.  0.
          3    1    3    3  502    0 -0.15472246024E+03  0.11991980114E+03  0.28507106995E+03  0.34581109486E+03  0.00000000000E+00 0. -1.
         -4    1    3    3    0  502 -0.11408471889E+03  0.14760611393E+03  0.17486323507E+03  0.25569520709E+03  0.00000000000E+00 0.  1.
         13    1    5    5    0    0  0.11349090873E+03  0.14896787822E+03  0.56206126844E+03  0.59243943538E+03  0.00000000000E+00 0.  1.
        -13    1    5    5    0    0  0.11689024061E+03  0.69665123730E+02  0.25802641815E+03  0.29170908501E+03  0.00000000000E+00 0. -1.
          4    1    6    6  503    0 -0.20304267322E+02 -0.87514441372E+02  0.69898151274E+02  0.11382790638E+03  0.00000000000E+00 0. -1.
         -4    1    6    6    0  503  0.58730297111E+02 -0.39864447564E+03  0.16431743706E+03  0.43516305666E+03  0.00000000000E+00 0.  1.
<mgrwt>
<rscale>  0 0.13589952E+04</rscale>
<asrwt>0</asrwt>
<pdfrwt beam="1">  1        1 0.27299102E+00 0.13589952E+04</pdfrwt>
<pdfrwt beam="2">  1       -2 0.40031402E-01 0.13589952E+04</pdfrwt>
<totfact> 0.21506053E+01</totfact>
</mgrwt>
</event>
<event>
12    5  0.5197392E-008  0.2609740E+04  0.7818608E-02  0.8364900E-01
          1   -1    0    0  501    0  0.00000000000E+00  0.00000000000E+00  0.25904274180E+04  0.25904274180E+04  0.00000000000E+00 0. -1.
         -2   -1    0    0    0  501 -0.00000000000E+00 -0.00000000000E+00 -0.65729921179E+03  0.65729921179E+03  0.00000000000E+00 0.  1.
        -24    2    1    2    0    0  0.81278907290E+03 -0.24820696374E+03 -0.99986208530E+02  0.85928914496E+03  0.78408028103E+02 0.  0.
        254    2    1    2    0    0 -0.81278907290E+03  0.24820696374E+03  0.20331144147E+04  0.23884374848E+04  0.92132872612E+03 0.  0.
         23    2    4    4    0    0  0.13403108860E+03 -0.12630528439E+03  0.18608143934E+03  0.27723687413E+03  0.91195530242E+02 0.  0.
         23    2    4    4    0    0 -0.94682016151E+03  0.37451224813E+03  0.18470329754E+04  0.21112006107E+04  0.94389427948E+02 0.  0.
          1    1    3    3  502    0  0.26099834582E+03 -0.68562375786E+02  0.32878493196E+01  0.26987357382E+03  0.00000000000E+00 0. -1.
         -2    1    3    3    0  502  0.55179072708E+03 -0.17964458796E+03 -0.10327405785E+03  0.58941557114E+03  0.00000000000E+00 0.  1.
         13    1    5    5    0    0  0.32090128835E+02 -0.36458668645E+02  0.11289055647E+03  0.12289543779E+03  0.00000000000E+00 0. -1.
        -13    1    5    5    0    0  0.10194095977E+03 -0.89846615740E+02  0.73190882866E+02  0.15434143634E+03  0.00000000000E+00 0.  1.
          1    1    6    6  503    0 -0.20654788698E+03  0.42543972306E+02  0.40479012403E+03  0.45642859650E+03  0.00000000000E+00 0. -1.
         -1    1    6    6    0  503 -0.74027227453E+03  0.33196827582E+03  0.14422428514E+04  0.16547720142E+04  0.00000000000E+00 0.  1.
<mgrwt>
<rscale>  0 0.26097401E+04</rscale>
<asrwt>0</asrwt>
<pdfrwt beam="1">  1        1 0.39852729E+00 0.26097401E+04</pdfrwt>
<pdfrwt beam="2">  1       -2 0.10112296E+00 0.26097401E+04</pdfrwt>
<totfact> 0.72911230E-01</totfact>
</mgrwt>
</event>
<event>
12    5  0.5197392E-008  0.1605730E+04  0.7818608E-02  0.8817036E-01
         -2   -1    0    0    0  501 -0.00000000000E+00  0.00000000000E+00  0.21420565657E+04  0.21420565657E+04  0.00000000000E+00 0.  1.
          1   -1    0    0  501    0  0.00000000000E+00 -0.00000000000E+00 -0.30092212474E+03  0.30092212474E+03  0.00000000000E+00 0. -1.
        -24    2    1    2    0    0 -0.43182189612E+03 -0.23464840158E+03  0.26730113208E+03  0.56520805353E+03  0.80499852339E+02 0.  0.
        254    2    1    2    0    0  0.43182189612E+03  0.23464840158E+03  0.15738333089E+04  0.18777706369E+04  0.89863299426E+03 0.  0.
         23    2    4    4    0    0  0.34836271647E+03 -0.21790317648E+03  0.29049066589E+03  0.51139835986E+03  0.91132205904E+02 0.  0.
         23    2    4    4    0    0  0.83459179652E+02  0.45255157806E+03  0.12833426430E+04  0.13663722771E+04  0.90755136015E+02 0.  0.
          3    1    3    3  502    0 -0.28257380291E+03 -0.16315760739E+03  0.13411191255E+03  0.35278090089E+03  0.00000000000E+00 0. -1.
         -4    1    3    3    0  502 -0.14924809320E+03 -0.71490794189E+02  0.13318921953E+03  0.21242715264E+03  0.00000000000E+00 0.  1.
         13    1    5    5    0    0  0.11714861450E+03 -0.11764345578E+03  0.14482397778E+03  0.22031288003E+03  0.00000000000E+00 0.  1.
        -13    1    5    5    0    0  0.23121410196E+03 -0.10025972070E+03  0.14566668811E+03  0.29108547983E+03  0.00000000000E+00 0. -1.
          3    1    6    6  503    0  0.79213745709E+02  0.44063143823E+03  0.11768306865E+04  0.12591113321E+04  0.00000000000E+00 0. -1.
         -3    1    6    6    0  503  0.42454339423E+01  0.11920139823E+02  0.10651195647E+03  0.10726094496E+03  0.00000000000E+00 0.  1.
<mgrwt>
<rscale>  0 0.16057300E+04</rscale>
<asrwt>0</asrwt>
<pdfrwt beam="1">  1        1 0.46295713E-01 0.16057300E+04</pdfrwt>
<pdfrwt beam="2">  1       -2 0.32954715E+00 0.16057300E+04</pdfrwt>
<totfact> 0.15355874E+00</totfact>
</mgrwt>
</event>
<event>
12    5  0.5197392E-008  0.1533325E+04  0.7818608E-02  0.8862590E-01
          1   -1    0    0  501    0  0.00000000000E+00  0.00000000000E+00  0.15627503746E+04  0.15627503746E+04  0.00000000000E+00 0. -1.
         -2   -1    0    0    0  501 -0.00000000000E+00 -0.00000000000E+00 -0.37611351775E+03  0.37611351775E+03  0.00000000000E+00 0.  1.
        -24    2    1    2    0    0  0.23707570955E+03  0.42321394363E+03  0.21159944040E+03  0.53436183555E+03  0.73846557001E+02 0.  0.
        254    2    1    2    0    0 -0.23707570955E+03 -0.42321394363E+03  0.97503741646E+03  0.14045020568E+04  0.88691213203E+03 0.  0.
         23    2    4    4    0    0  0.23901544209E+03 -0.55488287486E+02  0.70459808318E+01  0.26132091058E+03  0.89619422306E+02 0.  0.
         23    2    4    4    0    0 -0.47609115164E+03 -0.36772565614E+03  0.96799143563E+03  0.11431811462E+04  0.89279173292E+02 0.  0.
          3    1    3    3  502    0  0.15026338565E+03  0.24330110030E+03  0.16148940756E+03  0.32841032144E+03  0.00000000000E+00 0. -1.
         -4    1    3    3    0  502  0.86812323899E+02  0.17991284333E+03  0.50110032838E+02  0.20595151411E+03  0.00000000000E+00 0.  1.
         13    1    5    5    0    0  0.23135730203E+03 -0.32312593125E+02 -0.59295307296E+01  0.23367812095E+03  0.00000000000E+00 0. -1.
        -13    1    5    5    0    0  0.76581400661E+01 -0.23175694362E+02  0.12975511561E+02  0.27642789633E+02  0.00000000000E+00 0.  1.
          4    1    6    6  503    0 -0.40109438685E+03 -0.34584913067E+03  0.82876367397E+03  0.98353320007E+03  0.00000000000E+00 0. -1.
         -4    1    6    6    0  503 -0.74996764791E+02 -0.21876525473E+02  0.13922776166E+03  0.15964794616E+03  0.00000000000E+00 0.  1.
<mgrwt>
<rscale>  0 0.15333252E+04</rscale>
<asrwt>0</asrwt>
<pdfrwt beam="1">  1        1 0.24042313E+00 0.15333252E+04</pdfrwt>
<pdfrwt beam="2">  1       -2 0.57863619E-01 0.15333252E+04</pdfrwt>
<totfact> 0.14010972E+01</totfact>
</mgrwt>
</event>
<event>
12    5  0.5197392E-008  0.1110194E+04  0.7818608E-02  0.9195313E-01
          1   -1    0    0  501    0  0.00000000000E+00  0.00000000000E+00  0.15696106107E+04  0.15696106107E+04  0.00000000000E+00 0. -1.
         -2   -1    0    0    0  501 -0.00000000000E+00 -0.00000000000E+00 -0.19631147696E+03  0.19631147696E+03  0.00000000000E+00 0.  1.
        -24    2    1    2    0    0 -0.64391602279E+02  0.15517084785E+03  0.42162217122E+03  0.46090545851E+03  0.80276496944E+02 0.  0.
        254    2    1    2    0    0  0.64391602279E+02 -0.15517084785E+03  0.95167696255E+03  0.13050166292E+04  0.87701487495E+03 0.  0.
         23    2    4    4    0    0  0.33359951445E+03 -0.27861145161E+03  0.88126728077E+03  0.98691485747E+03  0.91956178288E+02 0.  0.
         23    2    4    4    0    0 -0.26920791217E+03  0.12344060376E+03  0.70409681778E+02  0.31810177170E+03  0.92307807028E+02 0.  0.
          1    1    3    3  502    0 -0.70959521856E+02  0.16184890531E+03  0.39675174559E+03  0.43432967837E+03  0.00000000000E+00 0. -1.
         -2    1    3    3    0  502  0.65679195775E+01 -0.66780574602E+01  0.24870425630E+02  0.26575780139E+02  0.00000000000E+00 0.  1.
         13    1    5    5    0    0  0.18696780546E+03 -0.21287513153E+03  0.57794814545E+03  0.64365894753E+03  0.00000000000E+00 0.  1.
        -13    1    5    5    0    0  0.14663170898E+03 -0.65736320083E+02  0.30331913533E+03  0.34325590995E+03  0.00000000000E+00 0. -1.
          2    1    6    6  503    0 -0.55939596195E+02  0.51022000540E+02  0.52557266409E+02  0.92166963788E+02  0.00000000000E+00 0. -1.
         -2    1    6    6    0  503 -0.21326831597E+03  0.72418603225E+02  0.17852415369E+02  0.22593480791E+03  0.00000000000E+00 0.  1.
<mgrwt>
<rscale>  0 0.11101938E+04</rscale>
<asrwt>0</asrwt>
<pdfrwt beam="1">  1        1 0.24147855E+00 0.11101938E+04</pdfrwt>
<pdfrwt beam="2">  1       -2 0.30201767E-01 0.11101938E+04</pdfrwt>
<totfact> 0.51824600E+01</totfact>
</mgrwt>
</event>
<event>
12    5  0.5197392E-008  0.1617054E+04  0.7818608E-02  0.8810139E-01
         -2   -1    0    0    0  501 -0.00000000000E+00  0.00000000000E+00  0.15028148278E+04  0.15028148278E+04  0.00000000000E+00 0.  1.
          1   -1    0    0  501    0  0.00000000000E+00 -0.00000000000E+00 -0.43499443383E+03  0.43499443383E+03  0.00000000000E+00 0. -1.
        -24    2    1    2    0    0 -0.47460669911E+03 -0.71202268877E+01  0.70137407194E+03  0.85074362824E+03  0.80851194993E+02 0.  0.
        254    2    1    2    0    0  0.47460669911E+03  0.71202268877E+01  0.36644632206E+03  0.10870656334E+04  0.90671195422E+03 0.  0.
         23    2    4    4    0    0  0.33288517463E+03  0.12744298169E+03 -0.24418546754E+03  0.44224301341E+03  0.94329673398E+02 0.  0.
         23    2    4    4    0    0  0.14172152448E+03 -0.12032275480E+03  0.61063178960E+03  0.64482262000E+03  0.91446558022E+02 0.  0.
          3    1    3    3  502    0 -0.91113832424E+01 -0.72911142611E+01  0.42148774443E+02  0.43734389659E+02  0.00000000000E+00 0. -1.
         -4    1    3    3    0  502 -0.46549531587E+03  0.17088737335E+00  0.65922529750E+03  0.80700923858E+03  0.00000000000E+00 0.  1.
         13    1    5    5    0    0  0.26048047589E+03  0.57906233534E+02 -0.19470456219E+03  0.33032268578E+03  0.00000000000E+00 0.  1.
        -13    1    5    5    0    0  0.72404698740E+02  0.69536748153E+02 -0.49480905355E+02  0.11192032764E+03  0.00000000000E+00 0. -1.
          2    1    6    6  503    0  0.11773371515E+03 -0.90724591925E+02  0.33399411624E+03  0.36557386250E+03  0.00000000000E+00 0. -1.
         -2    1    6    6    0  503  0.23987809323E+02 -0.29598162875E+02  0.27663767336E+03  0.27924875750E+03  0.00000000000E+00 0.  1.
<mgrwt>
<rscale>  0 0.16170542E+04</rscale>
<asrwt>0</asrwt>
<pdfrwt beam="1">  1        1 0.66922221E-01 0.16170542E+04</pdfrwt>
<pdfrwt beam="2">  1       -2 0.23120228E+00 0.16170542E+04</pdfrwt>
<totfact> 0.37730964E+00</totfact>
</mgrwt>
</event>
<event>
12    5  0.5197392E-008  0.2468880E+04  0.7818608E-02  0.8414157E-01
          1   -1    0    0  501    0  0.00000000000E+00  0.00000000000E+00  0.21430817262E+04  0.21430817262E+04  0.00000000000E+00 0. -1.
         -2   -1    0    0    0  501 -0.00000000000E+00 -0.00000000000E+00 -0.71105200022E+03  0.71105200022E+03  0.00000000000E+00 0.  1.
        -24    2    1    2    0    0 -0.29728013685E+03  0.48608974851E+03  0.16514232667E+04  0.17488313729E+04  0.80954566004E+02 0.  0.
        254    2    1    2    0    0  0.29728013685E+03 -0.48608974851E+03 -0.21939354065E+03  0.11053023536E+04  0.92135826026E+03 0.  0.
         23    2    4    4    0    0  0.60236738043E+03 -0.20547492750E+03 -0.22489749608E+03  0.68108305728E+03  0.90712955733E+02 0.  0.
         23    2    4    4    0    0 -0.30508724358E+03 -0.28061482100E+03  0.55039554330E+01  0.42421929628E+03  0.90048952492E+02 0.  0.
          3    1    3    3  502    0 -0.19936580846E+03  0.37494889126E+03  0.11459302787E+04  0.12220841216E+04  0.00000000000E+00 0. -1.
         -4    1    3    3    0  502 -0.97914328385E+02  0.11114085724E+03  0.50549298799E+03  0.52674725131E+03  0.00000000000E+00 0.  1.
         13    1    5    5    0    0  0.36755437610E+03 -0.17033317755E+03 -0.15257610645E+03  0.43288460243E+03  0.00000000000E+00 0. -1.
        -13    1    5    5    0    0  0.23481300433E+03 -0.35141749955E+02 -0.72321389631E+02  0.24819845485E+03  0.00000000000E+00 0.  1.
          1    1    6    6  503    0 -0.23029730271E+03 -0.15826787891E+03 -0.12384067018E+02  0.27971223471E+03  0.00000000000E+00 0. -1.
         -1    1    6    6    0  503 -0.74789940869E+02 -0.12234694209E+03  0.17888022451E+02  0.14450706157E+03  0.00000000000E+00 0.  1.
<mgrwt>
<rscale>  0 0.24688804E+04</rscale>
<asrwt>0</asrwt>
<pdfrwt beam="1">  1        1 0.32970488E+00 0.24688804E+04</pdfrwt>
<pdfrwt beam="2">  1       -2 0.10939262E+00 0.24688804E+04</pdfrwt>
<totfact> 0.12416898E+00</totfact>
</mgrwt>
</event>
<event>
12    5  0.5197392E-008  0.2340768E+04  0.7818608E-02  0.8462018E-01
         -2   -1    0    0    0  501 -0.00000000000E+00  0.00000000000E+00  0.71604258080E+03  0.71604258080E+03  0.00000000000E+00 0.  1.
          1   -1    0    0  501    0  0.00000000000E+00 -0.00000000000E+00 -0.19130129935E+04  0.19130129935E+04  0.00000000000E+00 0. -1.
        -24    2    1    2    0    0 -0.43824150503E+03  0.89244894586E+03 -0.44882806308E+03  0.10937611657E+04  0.79662536373E+02 0.  0.
        254    2    1    2    0    0  0.43824150503E+03 -0.89244894586E+03 -0.74814234967E+03  0.15352944086E+04  0.89938379356E+03 0.  0.
         23    2    4    4    0    0 -0.21270769169E+03 -0.51375147980E+03 -0.19390413266E+03  0.59599106075E+03  0.91768113914E+02 0.  0.
         23    2    4    4    0    0  0.65094919672E+03 -0.37869746606E+03 -0.55423821702E+03  0.93930334789E+03  0.89242090037E+02 0.  0.
          1    1    3    3  502    0 -0.48066410785E+00  0.14733776523E+02 -0.15768871250E+02  0.21586396391E+02  0.00000000000E+00 0. -1.
         -2    1    3    3    0  502 -0.43776084093E+03  0.87771516934E+03 -0.43305919183E+03  0.10721747693E+04  0.00000000000E+00 0.  1.
         13    1    5    5    0    0 -0.71885485818E+02 -0.10300102337E+03 -0.72893315765E+02  0.14522454809E+03  0.00000000000E+00 0.  1.
        -13    1    5    5    0    0 -0.14082220587E+03 -0.41075045643E+03 -0.12101081689E+03  0.45076651266E+03  0.00000000000E+00 0. -1.
          2    1    6    6  503    0  0.49651785170E+03 -0.25819066665E+03 -0.44517182970E+03  0.71510163988E+03  0.00000000000E+00 0. -1.
         -2    1    6    6    0  503  0.15443134502E+03 -0.12050679942E+03 -0.10906638732E+03  0.22420170801E+03  0.00000000000E+00 0.  1.
<mgrwt>
<rscale>  0 0.23407680E+04</rscale>
<asrwt>0</asrwt>
<pdfrwt beam="1">  1        1 0.29430968E+00 0.23407680E+04</pdfrwt>
<pdfrwt beam="2">  1       -2 0.11016040E+00 0.23407680E+04</pdfrwt>
<totfact> 0.17685595E+00</totfact>
</mgrwt>
</event>
<event>
12    5  0.5197392E-008  0.1213979E+04  0.7818608E-02  0.9100708E-01
         -2   -1    0    0    0  501 -0.00000000000E+00  0.00000000000E+00  0.16125777153E+03  0.16125777153E+03  0.00000000000E+00 0.  1.
          1   -1    0    0  501    0  0.00000000000E+00 -0.00000000000E+00 -0.22847646388E+04  0.22847646388E+04  0.00000000000E+00 0. -1.
        -24    2    1    2    0    0 -0.17225781221E+03 -0.92196402054E+02 -0.86809908782E+03  0.89315301424E+03  0.77157955812E+02 0.  0.
        254    2    1    2    0    0  0.17225781221E+03  0.92196402054E+02 -0.12554077795E+04  0.15528693961E+04  0.89285034480E+03 0.  0.
         23    2    4    4    0    0  0.13663934234E+03  0.22377531901E+03  0.61436846891E+01  0.28065083653E+03  0.99907176477E+02 0.  0.
         23    2    4    4    0    0  0.35618469871E+02 -0.13157891695E+03 -0.12615514642E+04  0.12722185596E+04  0.91903644311E+02 0.  0.
          3    1    3    3  502    0 -0.62040422680E+02 -0.22473773381E+02 -0.46033200550E+03  0.46503724564E+03  0.00000000000E+00 0. -1.
         -4    1    3    3    0  502 -0.11021738953E+03 -0.69722628673E+02 -0.40776708232E+03  0.42811576860E+03  0.00000000000E+00 0.  1.
         13    1    5    5    0    0  0.13977638912E+03  0.14414179557E+03  0.78447694338E+01  0.20093739471E+03  0.00000000000E+00 0. -1.
        -13    1    5    5    0    0 -0.31370467770E+01  0.79633523442E+02 -0.17010847447E+01  0.79713441825E+02  0.00000000000E+00 0.  1.
          3    1    6    6  503    0 -0.14456793780E+01 -0.12020092718E+03 -0.10736643164E+04  0.10803728140E+04  0.00000000000E+00 0. -1.
         -3    1    6    6    0  503  0.37064149249E+02 -0.11377989773E+02 -0.18788714777E+03  0.19184574561E+03  0.00000000000E+00 0.  1.
<mgrwt>
<rscale>  0 0.12139787E+04</rscale>
<asrwt>0</asrwt>
<pdfrwt beam="1">  1        1 0.35150225E+00 0.12139787E+04</pdfrwt>
<pdfrwt beam="2">  1       -2 0.24808888E-01 0.12139787E+04</pdfrwt>
<totfact> 0.24168947E+01</totfact>
</mgrwt>
</event>
<event>
12    5  0.5197392E-008  0.1024619E+04  0.7818608E-02  0.9281948E-01
          1   -1    0    0  501    0  0.00000000000E+00  0.00000000000E+00  0.13789968911E+03  0.13789968911E+03  0.00000000000E+00 0. -1.
         -4   -1    0    0    0  501 -0.00000000000E+00 -0.00000000000E+00 -0.19032755272E+04  0.19032755272E+04  0.00000000000E+00 0.  1.
        -24    2    1    2    0    0 -0.92760588061E+02 -0.61484283823E+02 -0.25643770962E+03  0.29100706552E+03  0.80870077370E+02 0.  0.
        254    2    1    2    0    0  0.92760588061E+02  0.61484283823E+02 -0.15089381284E+04  0.17501681508E+04  0.87966438862E+03 0.  0.
         23    2    4    4    0    0  0.34612716800E+03  0.15805990204E+03 -0.26246631053E+03  0.47128369060E+03  0.91830298929E+02 0.  0.
         23    2    4    4    0    0 -0.25336657994E+03 -0.96575618214E+02 -0.12464718179E+04  0.12788844602E+04  0.91279766267E+02 0.  0.
          1    1    3    3  502    0 -0.10549905597E+03 -0.44343724293E+02 -0.19671810878E+03  0.22758389885E+03  0.00000000000E+00 0. -1.
         -2    1    3    3    0  502  0.12738467912E+02 -0.17140559530E+02 -0.59719600840E+02  0.63423166668E+02  0.00000000000E+00 0.  1.
         13    1    5    5    0    0  0.70661774075E+02  0.60651964499E+02 -0.29773650895E+02  0.97766136268E+02  0.00000000000E+00 0. -1.
        -13    1    5    5    0    0  0.27546539392E+03  0.97407937538E+02 -0.23269265964E+03  0.37351755433E+03  0.00000000000E+00 0.  1.
          2    1    6    6  503    0 -0.68152485816E+02 -0.13774394193E+02 -0.17374274924E+03  0.18713908777E+03  0.00000000000E+00 0. -1.
         -2    1    6    6    0  503 -0.18521409412E+03 -0.82801224021E+02 -0.10727290687E+04  0.10917453724E+04  0.00000000000E+00 0.  1.
<mgrwt>
<rscale>  0 0.10246192E+04</rscale>
<asrwt>0</asrwt>
<pdfrwt beam="1">  1        1 0.21215337E-01 0.10246192E+04</pdfrwt>
<pdfrwt beam="2">  1       -4 0.29281162E+00 0.10246192E+04</pdfrwt>
<totfact> 0.39551734E+00</totfact>
</mgrwt>
</event>
<event>
12    5  0.5197392E-008  0.1707389E+04  0.7818608E-02  0.8757161E-01
          1   -1    0    0  501    0  0.00000000000E+00  0.00000000000E+00  0.14235174839E+04  0.14235174839E+04  0.00000000000E+00 0. -1.
         -2   -1    0    0    0  501 -0.00000000000E+00 -0.00000000000E+00 -0.51196707211E+03  0.51196707211E+03  0.00000000000E+00 0.  1.
        -24    2    1    2    0    0 -0.44147446337E+03 -0.20818693742E+03  0.75433691655E+03  0.90215063613E+03  0.81302422291E+02 0.  0.
        254    2    1    2    0    0  0.44147446337E+03  0.20818693742E+03  0.15721349526E+03  0.10333339199E+04  0.89711838917E+03 0.  0.
         23    2    4    4    0    0 -0.63981670897E+02  0.30455376078E+03  0.34914127146E+03  0.47662983845E+03  0.91813550454E+02 0.  0.
         23    2    4    4    0    0  0.50545613427E+03 -0.96366823359E+02 -0.19192777620E+03  0.55670408145E+03  0.91163011751E+02 0.  0.
          1    1    3    3  502    0 -0.37304262311E+03 -0.19370351101E+03  0.68484627004E+03  0.80355227734E+03  0.00000000000E+00 0. -1.
         -4    1    3    3    0  502 -0.68431840267E+02 -0.14483426405E+02  0.69490646513E+02  0.98598358787E+02  0.00000000000E+00 0.  1.
         13    1    5    5    0    0 -0.36374494250E+02  0.25888243937E+03  0.32749012986E+03  0.41903819206E+03  0.00000000000E+00 0. -1.
        -13    1    5    5    0    0 -0.27607176647E+02  0.45671321404E+02  0.21651141600E+02  0.57591646389E+02  0.00000000000E+00 0.  1.
          4    1    6    6  503    0  0.97696523046E+02 -0.20969824456E+02 -0.77730238774E+02  0.12659515857E+03  0.00000000000E+00 0. -1.
         -4    1    6    6    0  503  0.40775961123E+03 -0.75396998903E+02 -0.11419753742E+03  0.43010892288E+03  0.00000000000E+00 0.  1.
<mgrwt>
<rscale>  0 0.17073887E+04</rscale>
<asrwt>0</asrwt>
<pdfrwt beam="1">  1        1 0.21900269E+00 0.17073887E+04</pdfrwt>
<pdfrwt beam="2">  1       -2 0.78764165E-01 0.17073887E+04</pdfrwt>
<totfact> 0.88351228E+00</totfact>
</mgrwt>
</event>
<event>
12    5  0.5197392E-008  0.1295908E+04  0.7818608E-02  0.9032816E-01
          1   -1    0    0  501    0  0.00000000000E+00  0.00000000000E+00  0.21778085808E+04  0.21778085808E+04  0.00000000000E+00 0. -1.
         -2   -1    0    0    0  501 -0.00000000000E+00 -0.00000000000E+00 -0.19278310381E+03  0.19278310381E+03  0.00000000000E+00 0.  1.
        -24    2    1    2    0    0  0.12814935513E+03 -0.41215556191E+01 -0.35748439132E+02  0.15527536784E+03  0.79957767089E+02 0.  0.
        254    2    1    2    0    0 -0.12814935513E+03  0.41215556191E+01  0.20207739162E+04  0.22153163168E+04  0.89869901459E+03 0.  0.
         23    2    4    4    0    0 -0.64362825469E+02  0.23968637053E+03  0.10961886150E+03  0.28667642754E+03  0.92601024789E+02 0.  0.
         23    2    4    4    0    0 -0.63786529660E+02 -0.23556481491E+03  0.19111550547E+04  0.19286398893E+04  0.87055592071E+02 0.  0.
          1    1    3    3  502    0  0.52786173026E+01 -0.23244707158E+02  0.51229257320E+01  0.24380824013E+02  0.00000000000E+00 0. -1.
         -2    1    3    3    0  502  0.12287073783E+03  0.19123151539E+02 -0.40871364864E+02  0.13089454383E+03  0.00000000000E+00 0.  1.
         13    1    5    5    0    0  0.82418192327E+01 -0.31644547726E+01 -0.29833179256E+01  0.93188810550E+01  0.00000000000E+00 0.  1.
        -13    1    5    5    0    0 -0.72604644701E+02  0.24285082530E+03  0.11260217942E+03  0.27735754649E+03  0.00000000000E+00 0. -1.
          3    1    6    6  503    0 -0.81439687843E+02 -0.21924327732E+03  0.16717902195E+04  0.16880706666E+04  0.00000000000E+00 0. -1.
         -3    1    6    6    0  503  0.17653158184E+02 -0.16321537593E+02  0.23936483513E+03  0.24056922263E+03  0.00000000000E+00 0.  1.
<mgrwt>
<rscale>  0 0.12959085E+04</rscale>
<asrwt>0</asrwt>
<pdfrwt beam="1">  1        1 0.33504746E+00 0.12959085E+04</pdfrwt>
<pdfrwt beam="2">  1       -2 0.29658941E-01 0.12959085E+04</pdfrwt>
<totfact> 0.20436620E+01</totfact>
</mgrwt>
</event>
<event>
12    5  0.5197392E-008  0.1655245E+04  0.7818608E-02  0.8787309E-01
         -2   -1    0    0    0  501 -0.00000000000E+00  0.00000000000E+00  0.19879841259E+03  0.19879841259E+03  0.00000000000E+00 0.  1.
          1   -1    0    0  501    0  0.00000000000E+00 -0.00000000000E+00 -0.34454973582E+04  0.34454973582E+04  0.00000000000E+00 0. -1.
        -24    2    1    2    0    0 -0.13572390266E+03  0.42085145056E+03 -0.19869975401E+04  0.20371353838E+04  0.78895032758E+02 0.  0.
        254    2    1    2    0    0  0.13572390266E+03 -0.42085145056E+03 -0.12597014055E+04  0.16071603871E+04  0.89475133834E+03 0.  0.
         23    2    4    4    0    0  0.40685792769E+03 -0.16303515909E+03 -0.11051772114E+04  0.11922051160E+04  0.88445087833E+02 0.  0.
         23    2    4    4    0    0 -0.27113402503E+03 -0.25781629147E+03 -0.15452419415E+03  0.41495527110E+03  0.91253771200E+02 0.  0.
          1    1    3    3  502    0 -0.10708437519E+03  0.39895086719E+03 -0.18357631836E+04  0.18816629145E+04  0.00000000000E+00 0. -1.
         -2    1    3    3    0  502 -0.28639527474E+02  0.21900583367E+02 -0.15123435656E+03  0.15547246923E+03  0.00000000000E+00 0.  1.
         13    1    5    5    0    0  0.14078108853E+03 -0.17934147039E+02 -0.40890755529E+03  0.43283523111E+03  0.00000000000E+00 0. -1.
        -13    1    5    5    0    0  0.26607683915E+03 -0.14510101205E+03 -0.69626965609E+03  0.75936988485E+03  0.00000000000E+00 0.  1.
          4    1    6    6  503    0 -0.11485158008E+03 -0.15545663499E+03 -0.11189223281E+03  0.22333276198E+03  0.00000000000E+00 0. -1.
         -4    1    6    6    0  503 -0.15628244495E+03 -0.10235965648E+03 -0.42631961340E+02  0.19162250912E+03  0.00000000000E+00 0.  1.
<mgrwt>
<rscale>  0 0.16552455E+04</rscale>
<asrwt>0</asrwt>
<pdfrwt beam="1">  1        1 0.53007654E+00 0.16552455E+04</pdfrwt>
<pdfrwt beam="2">  1       -2 0.30584370E-01 0.16552455E+04</pdfrwt>
<totfact> 0.23070003E+00</totfact>
</mgrwt>
</event>
<event>
12    5  0.5197392E-008  0.1581493E+04  0.7818608E-02  0.8831999E-01
         -2   -1    0    0    0  501 -0.00000000000E+00  0.00000000000E+00  0.63455605141E+03  0.63455605141E+03  0.00000000000E+00 0.  1.
          1   -1    0    0  501    0  0.00000000000E+00 -0.00000000000E+00 -0.98538179130E+03  0.98538179130E+03  0.00000000000E+00 0. -1.
        -24    2    1    2    0    0 -0.47701704405E+02 -0.33021387300E+03 -0.54112836957E+03  0.64142844489E+03  0.85404233145E+02 0.  0.
        254    2    1    2    0    0  0.47701704405E+02  0.33021387300E+03  0.19030262967E+03  0.97850939782E+03  0.89997160857E+03 0.  0.
         23    2    4    4    0    0  0.41827071017E+03 -0.26385554257E+02  0.19096817711E+02  0.42866145065E+03  0.87973668610E+02 0.  0.
         23    2    4    4    0    0 -0.37056900577E+03  0.35659942726E+03  0.17120581196E+03  0.54984794717E+03  0.92394780123E+02 0.  0.
          1    1    3    3  502    0 -0.27632187285E+02 -0.30886653038E+03 -0.51948484611E+03  0.60500130306E+03  0.00000000000E+00 0. -1.
         -2    1    3    3    0  502 -0.20069517120E+02 -0.21347342626E+02 -0.21643523452E+02  0.36427141832E+02  0.00000000000E+00 0.  1.
         13    1    5    5    0    0  0.14675176733E+03 -0.44787095627E+02  0.29835893492E+02  0.15630785550E+03  0.00000000000E+00 0.  1.
        -13    1    5    5    0    0  0.27151894284E+03  0.18401541370E+02 -0.10739075782E+02  0.27235359516E+03  0.00000000000E+00 0. -1.
          1    1    6    6  503    0 -0.23231318745E+03  0.22701293335E+03  0.15430630885E+03  0.35960356772E+03  0.00000000000E+00 0. -1.
         -1    1    6    6    0  503 -0.13825581832E+03  0.12958649391E+03  0.16899503116E+02  0.19024437944E+03  0.00000000000E+00 0.  1.
<mgrwt>
<rscale>  0 0.15814929E+04</rscale>
<asrwt>0</asrwt>
<pdfrwt beam="1">  1        1 0.15159720E+00 0.15814929E+04</pdfrwt>
<pdfrwt beam="2">  1       -2 0.97624008E-01 0.15814929E+04</pdfrwt>
<totfact> 0.11442767E+01</totfact>
</mgrwt>
</event>
<event>
12    5  0.5197392E-008  0.1135747E+04  0.7818608E-02  0.9171035E-01
         -2   -1    0    0    0  501 -0.00000000000E+00  0.00000000000E+00  0.49445091245E+03  0.49445091245E+03  0.00000000000E+00 0.  1.
          1   -1    0    0  501    0  0.00000000000E+00 -0.00000000000E+00 -0.65219837089E+03  0.65219837089E+03  0.00000000000E+00 0. -1.
        -24    2    1    2    0    0 -0.18776386493E+03  0.49412933317E+02 -0.13970063754E+02  0.21318016192E+03  0.86912092384E+02 0.  0.
        254    2    1    2    0    0  0.18776386493E+03 -0.49412933317E+02 -0.14377739469E+03  0.93346912142E+03  0.90166277203E+03 0.  0.
         23    2    4    4    0    0  0.51328704169E+03 -0.15574151845E+03  0.16488642493E+02  0.54434486606E+03  0.91216501485E+02 0.  0.
         23    2    4    4    0    0 -0.32552317676E+03  0.10632858513E+03 -0.16026603718E+03  0.38912425536E+03  0.91985742425E+02 0.  0.
          1    1    3    3  502    0 -0.15258748865E+03  0.45178009368E+02  0.24353825303E+02  0.16098789715E+03  0.00000000000E+00 0. -1.
         -2    1    3    3    0  502 -0.35176376278E+02  0.42349239497E+01 -0.38323889057E+02  0.52192264766E+02  0.00000000000E+00 0.  1.
         13    1    5    5    0    0  0.61665745588E+02 -0.19812696073E+02  0.32442795316E+02  0.72441300876E+02  0.00000000000E+00 0. -1.
        -13    1    5    5    0    0  0.45162129610E+03 -0.13592882237E+03 -0.15954152823E+02  0.47190356519E+03  0.00000000000E+00 0.  1.
          2    1    6    6  503    0 -0.19836918069E+02  0.64811322799E+01  0.12243517292E+02  0.24195291066E+02  0.00000000000E+00 0. -1.
         -2    1    6    6    0  503 -0.30568625869E+03  0.99847452850E+02 -0.17250955447E+03  0.36492896429E+03  0.00000000000E+00 0.  1.
<mgrwt>
<rscale>  0 0.11357466E+04</rscale>
<asrwt>0</asrwt>
<pdfrwt beam="1">  1        1 0.10033821E+00 0.11357466E+04</pdfrwt>
<pdfrwt beam="2">  1       -2 0.76069371E-01 0.11357466E+04</pdfrwt>
<totfact> 0.40827281E+01</totfact>
</mgrwt>
</event>
<event>
12    5  0.5197392E-008  0.1620824E+04  0.7818608E-02  0.8807856E-01
          1   -1    0    0  501    0  0.00000000000E+00  0.00000000000E+00  0.70723117649E+03  0.70723117649E+03  0.00000000000E+00 0. -1.
         -2   -1    0    0    0  501 -0.00000000000E+00 -0.00000000000E+00 -0.92864621850E+03  0.92864621850E+03  0.00000000000E+00 0.  1.
        -24    2    1    2    0    0  0.60399986494E+01  0.26738229299E+03  0.43895721959E+03  0.52027544209E+03  0.80456962543E+02 0.  0.
        254    2    1    2    0    0 -0.60399986494E+01 -0.26738229299E+03 -0.66037226160E+03  0.11156019529E+04  0.85845583534E+03 0.  0.
         23    2    4    4    0    0 -0.10261498884E+03 -0.38072553420E+03  0.27336904423E+02  0.40604210830E+03  0.92957619575E+02 0.  0.
         23    2    4    4    0    0  0.96574990188E+02  0.11334324121E+03 -0.68770916602E+03  0.70955984460E+03  0.91421315810E+02 0.  0.
          3    1    3    3  502    0  0.21984115169E+02  0.20095224185E+03  0.37826431395E+03  0.42889275587E+03  0.00000000000E+00 0. -1.
         -4    1    3    3    0  502 -0.15944116519E+02  0.66430051148E+02  0.60692905634E+02  0.91382686223E+02  0.00000000000E+00 0.  1.
         13    1    5    5    0    0 -0.45934704813E+02 -0.46134005758E+02  0.12955212913E+02  0.66379071515E+02  0.00000000000E+00 0. -1.
        -13    1    5    5    0    0 -0.56680284025E+02 -0.33459152845E+03  0.14381691509E+02  0.33966303678E+03  0.00000000000E+00 0.  1.
          2    1    6    6  503    0 -0.86606399341E+01 -0.80050482646E+01 -0.24696047869E+02  0.27367540302E+02  0.00000000000E+00 0. -1.
         -2    1    6    6    0  503  0.10523563012E+03  0.12134828948E+03 -0.66301311815E+03  0.68219230430E+03  0.00000000000E+00 0.  1.
<mgrwt>
<rscale>  0 0.16208239E+04</rscale>
<asrwt>0</asrwt>
<pdfrwt beam="1">  1        1 0.10880480E+00 0.16208239E+04</pdfrwt>
<pdfrwt beam="2">  1       -2 0.14286865E+00 0.16208239E+04</pdfrwt>
<totfact> 0.76596217E+00</totfact>
</mgrwt>
</event>
<event>
12    5  0.5197392E-008  0.1463922E+04  0.7818608E-02  0.8908805E-01
         -2   -1    0    0    0  501 -0.00000000000E+00  0.00000000000E+00  0.69778132761E+03  0.69778132761E+03  0.00000000000E+00 0.  1.
          1   -1    0    0  501    0  0.00000000000E+00 -0.00000000000E+00 -0.76781495728E+03  0.76781495728E+03  0.00000000000E+00 0. -1.
        -24    2    1    2    0    0 -0.44335501909E+02  0.13829115932E+03 -0.45334674117E+03  0.48274593155E+03  0.80189059272E+02 0.  0.
        254    2    1    2    0    0  0.44335501909E+02 -0.13829115932E+03  0.38331311150E+03  0.98285035335E+03  0.89329490883E+03 0.  0.
         23    2    4    4    0    0  0.88257826787E+02  0.23744809297E+03 -0.16176558441E+03  0.31400452299E+03  0.90882865918E+02 0.  0.
         23    2    4    4    0    0 -0.43922324879E+02 -0.37573925229E+03  0.54507869591E+03  0.66884583035E+03  0.84467767273E+02 0.  0.
          1    1    3    3  502    0 -0.48505438934E+02  0.87606445652E+02 -0.19250449751E+03  0.21699227749E+03  0.00000000000E+00 0. -1.
         -2    1    3    3    0  502  0.41699370253E+01  0.50684713669E+02 -0.26084224366E+03  0.26575365407E+03  0.00000000000E+00 0.  1.
         13    1    5    5    0    0  0.71852078887E+02  0.22968601787E+03 -0.16941144428E+03  0.29431042370E+03  0.00000000000E+00 0. -1.
        -13    1    5    5    0    0  0.16405747900E+02  0.77620750975E+01  0.76458598655E+01  0.19694099296E+02  0.00000000000E+00 0.  1.
          3    1    6    6  503    0 -0.51680375579E+01 -0.31530610832E+03  0.45642782410E+03  0.55477113225E+03  0.00000000000E+00 0. -1.
         -3    1    6    6    0  503 -0.38754287321E+02 -0.60433143966E+02  0.88650871806E+02  0.11407469810E+03  0.00000000000E+00 0.  1.
<mgrwt>
<rscale>  0 0.14639220E+04</rscale>
<asrwt>0</asrwt>
<pdfrwt beam="1">  1        1 0.11812538E+00 0.14639220E+04</pdfrwt>
<pdfrwt beam="2">  1       -2 0.10735097E+00 0.14639220E+04</pdfrwt>
<totfact> 0.13979116E+01</totfact>
</mgrwt>
</event>
<event>
12    5  0.5197392E-008  0.1488785E+04  0.7818608E-02  0.8891945E-01
          1   -1    0    0  501    0  0.00000000000E+00  0.00000000000E+00  0.21719717394E+04  0.21719717394E+04  0.00000000000E+00 0. -1.
         -2   -1    0    0    0  501 -0.00000000000E+00 -0.00000000000E+00 -0.25512301108E+03  0.25512301108E+03  0.00000000000E+00 0.  1.
        -24    2    1    2    0    0  0.22494124787E+03  0.16907248241E+02 -0.62767019883E+02  0.24734413483E+03  0.79718267749E+02 0.  0.
        254    2    1    2    0    0 -0.22494124787E+03 -0.16907248241E+02  0.19796157482E+04  0.21797506156E+04  0.88405306166E+03 0.  0.
         23    2    4    4    0    0 -0.22014335205E+03  0.40574218121E+03  0.11832572210E+04  0.12736039750E+04  0.94231741831E+02 0.  0.
         23    2    4    4    0    0 -0.47978958225E+01 -0.42264942945E+03  0.79635852718E+03  0.90614664056E+03  0.90880528035E+02 0.  0.
          1    1    3    3  502    0  0.98012689888E+02  0.40674673260E+02 -0.60114302462E+01  0.10628759908E+03  0.00000000000E+00 0. -1.
         -2    1    3    3    0  502  0.12692855798E+03 -0.23767425019E+02 -0.56755589637E+02  0.14105653575E+03  0.00000000000E+00 0.  1.
         13    1    5    5    0    0 -0.11297633602E+03  0.28028190889E+03  0.84110608105E+03  0.89374551217E+03  0.00000000000E+00 0. -1.
        -13    1    5    5    0    0 -0.10716701603E+03  0.12546027232E+03  0.34215113994E+03  0.37985846288E+03  0.00000000000E+00 0.  1.
          2    1    6    6  503    0 -0.39464780950E+02 -0.34280681232E+03  0.64733749130E+03  0.73356649811E+03  0.00000000000E+00 0. -1.
         -2    1    6    6    0  503  0.34666885127E+02 -0.79842617132E+02  0.14902103588E+03  0.17258014245E+03  0.00000000000E+00 0.  1.
<mgrwt>
<rscale>  0 0.14887847E+04</rscale>
<asrwt>0</asrwt>
<pdfrwt beam="1">  1        1 0.33414949E+00 0.14887847E+04</pdfrwt>
<pdfrwt beam="2">  1       -2 0.39249695E-01 0.14887847E+04</pdfrwt>
<totfact> 0.11892043E+01</totfact>
</mgrwt>
</event>
<event>
12    5  0.5197392E-008  0.1570763E+04  0.7818608E-02  0.8838714E-01
          1   -1    0    0  501    0  0.00000000000E+00  0.00000000000E+00  0.57296597226E+04  0.57296597226E+04  0.00000000000E+00 0. -1.
         -2   -1    0    0    0  501 -0.00000000000E+00 -0.00000000000E+00 -0.10765451173E+03  0.10765451173E+03  0.00000000000E+00 0.  1.
        -24    2    1    2    0    0  0.53088064580E+02  0.21180073225E+03  0.36373534854E+04  0.36447929600E+04  0.80606764585E+02 0.  0.
        254    2    1    2    0    0 -0.53088064580E+02 -0.21180073225E+03  0.19846517254E+04  0.21925212743E+04  0.90588585062E+03 0.  0.
         23    2    4    4    0    0  0.11402477893E+03 -0.81816540911E+02 -0.25401825662E+02  0.16918860934E+03  0.91016131574E+02 0.  0.
         23    2    4    4    0    0 -0.16711284351E+03 -0.12998419133E+03  0.20100535511E+04  0.20233326650E+04  0.93473004062E+02 0.  0.
          1    1    3    3  502    0  0.35113006431E+02  0.13503476531E+03  0.28725105899E+04  0.28758971470E+04  0.00000000000E+00 0. -1.
         -2    1    3    3    0  502  0.17975058149E+02  0.76765966937E+02  0.76484289557E+03  0.76889581303E+03  0.00000000000E+00 0.  1.
         13    1    5    5    0    0 -0.63440556214E+01 -0.38174069864E+02 -0.21414698764E+00  0.38698223611E+02  0.00000000000E+00 0. -1.
        -13    1    5    5    0    0  0.12036883456E+03 -0.43642471047E+02 -0.25187678675E+02  0.13049038573E+03  0.00000000000E+00 0.  1.
          4    1    6    6  503    0 -0.90527273910E+01 -0.10503817859E+02  0.51741956185E+03  0.51760533715E+03  0.00000000000E+00 0. -1.
         -4    1    6    6    0  503 -0.15806011612E+03 -0.11948037348E+03  0.14926339892E+04  0.15057273278E+04  0.00000000000E+00 0.  1.
<mgrwt>
<rscale>  0 0.15707625E+04</rscale>
<asrwt>0</asrwt>
<pdfrwt beam="1">  1        1 0.88148587E+00 0.15707625E+04</pdfrwt>
<pdfrwt beam="2">  1       -2 0.16562237E-01 0.15707625E+04</pdfrwt>
<totfact> 0.13944521E-02</totfact>
</mgrwt>
</event>
<event>
12    5  0.5197392E-008  0.2174453E+04  0.7818608E-02  0.8529137E-01
         -2   -1    0    0    0  501 -0.00000000000E+00  0.00000000000E+00  0.41201194264E+03  0.41201194264E+03  0.00000000000E+00 0.  1.
          1   -1    0    0  501    0  0.00000000000E+00 -0.00000000000E+00 -0.28689977789E+04  0.28689977789E+04  0.00000000000E+00 0. -1.
        -24    2    1    2    0    0  0.22838245529E+03 -0.86618018068E+03 -0.93500692272E+03  0.12973714208E+04  0.80672216961E+02 0.  0.
        254    2    1    2    0    0 -0.22838245529E+03  0.86618018068E+03 -0.15219789135E+04  0.19836383008E+04  0.90331303752E+03 0.  0.
         23    2    4    4    0    0 -0.51795242375E+02 -0.17145854707E+03 -0.15026597966E+03  0.25217870980E+03  0.94516964288E+02 0.  0.
         23    2    4    4    0    0 -0.17658721292E+03  0.10376387278E+04 -0.13717129339E+04  0.17314595910E+04  0.92080231837E+02 0.  0.
          3    1    3    3  502    0  0.76192264974E+01 -0.33106637606E+01 -0.13008840979E+02  0.15435123925E+02  0.00000000000E+00 0. -1.
         -2    1    3    3    0  502  0.22076322880E+03 -0.86286951692E+03 -0.92199808174E+03  0.12819362968E+04  0.00000000000E+00 0.  1.
         13    1    5    5    0    0 -0.57922951587E+02 -0.15725999055E+03 -0.90536958829E+02  0.19048021909E+03  0.00000000000E+00 0. -1.
        -13    1    5    5    0    0  0.61277092122E+01 -0.14198556518E+02 -0.59729020828E+02  0.61698490714E+02  0.00000000000E+00 0.  1.
          1    1    6    6  503    0 -0.17309848596E+03  0.10383084369E+04 -0.13693847038E+04  0.17272121940E+04  0.00000000000E+00 0. -1.
         -1    1    6    6    0  503 -0.34887269610E+01 -0.66970911432E+00 -0.23282300359E+01  0.42473969918E+01  0.00000000000E+00 0.  1.
<mgrwt>
<rscale>  0 0.21744529E+04</rscale>
<asrwt>0</asrwt>
<pdfrwt beam="1">  1        1 0.44138428E+00 0.21744529E+04</pdfrwt>
<pdfrwt beam="2">  1       -2 0.63386452E-01 0.21744529E+04</pdfrwt>
<totfact> 0.13771103E+00</totfact>
</mgrwt>
</event>
<event>
12    5  0.5197392E-008  0.1337365E+04  0.7818608E-02  0.9000448E-01
          1   -1    0    0  501    0  0.00000000000E+00  0.00000000000E+00  0.80955398129E+03  0.80955398129E+03  0.00000000000E+00 0. -1.
         -2   -1    0    0    0  501 -0.00000000000E+00 -0.00000000000E+00 -0.55232396003E+03  0.55232396003E+03  0.00000000000E+00 0.  1.
        -24    2    1    2    0    0  0.12569367856E+03  0.30811667453E+03  0.20465511533E+03  0.39881544055E+03  0.80220031404E+02 0.  0.
        254    2    1    2    0    0 -0.12569367856E+03 -0.30811667453E+03  0.52574905934E+02  0.96306250078E+03  0.90221420611E+03 0.  0.
         23    2    4    4    0    0  0.12055676024E+03 -0.57085618538E+03  0.36514416479E+02  0.59157106764E+03  0.90621788936E+02 0.  0.
         23    2    4    4    0    0 -0.24625043880E+03  0.26273951085E+03  0.16060489455E+02  0.37149143314E+03  0.89869997211E+02 0.  0.
          3    1    3    3  502    0  0.17086854687E+02  0.23950265239E+01  0.54215032792E+01  0.18085614531E+02  0.00000000000E+00 0. -1.
         -4    1    3    3    0  502  0.10860682388E+03  0.30572164800E+03  0.19923361205E+03  0.38072982602E+03  0.00000000000E+00 0.  1.
         13    1    5    5    0    0  0.13095229194E+03 -0.55652455622E+03  0.29365742177E+02  0.57247745044E+03  0.00000000000E+00 0.  1.
        -13    1    5    5    0    0 -0.10395531700E+02 -0.14331629157E+02  0.71486743020E+01  0.19093617203E+02  0.00000000000E+00 0. -1.
          2    1    6    6  503    0 -0.29977355331E+02  0.53166868315E+02  0.33881159749E+02  0.69808958630E+02  0.00000000000E+00 0. -1.
         -2    1    6    6    0  503 -0.21627308347E+03  0.20957264254E+03 -0.17820670294E+02  0.30168247451E+03  0.00000000000E+00 0.  1.
<mgrwt>
<rscale>  0 0.13373647E+04</rscale>
<asrwt>0</asrwt>
<pdfrwt beam="1">  1        1 0.12454677E+00 0.13373647E+04</pdfrwt>
<pdfrwt beam="2">  1       -2 0.84972917E-01 0.13373647E+04</pdfrwt>
<totfact> 0.22453207E+01</totfact>
</mgrwt>
</event>
<event>
12    5  0.5197392E-008  0.1033192E+04  0.7818608E-02  0.9272871E-01
         -2   -1    0    0    0  501 -0.00000000000E+00  0.00000000000E+00  0.87623427845E+03  0.87623427845E+03  0.00000000000E+00 0.  1.
          1   -1    0    0  501    0  0.00000000000E+00 -0.00000000000E+00 -0.30456637651E+03  0.30456637651E+03  0.00000000000E+00 0. -1.
        -24    2    1    2    0    0 -0.44871313504E+02 -0.78438504561E+02  0.20214501211E+02  0.11549059690E+03  0.69017520528E+02 0.  0.
        254    2    1    2    0    0  0.44871313504E+02  0.78438504561E+02  0.55145340073E+03  0.10653100581E+04  0.90698325941E+03 0.  0.
         23    2    4    4    0    0 -0.11476138459E+03  0.25716601200E+03 -0.14096358226E+03  0.32693002454E+03  0.87795081284E+02 0.  0.
         23    2    4    4    0    0  0.15963269810E+03 -0.17872750744E+03  0.69241698299E+03  0.73838003352E+03  0.91310872038E+02 0.  0.
          1    1    3    3  502    0 -0.30968210757E+02 -0.64042772915E+02  0.44585993905E+02  0.83954855087E+02  0.00000000000E+00 0. -1.
         -2    1    3    3    0  502 -0.13903102747E+02 -0.14395731645E+02 -0.24371492693E+02  0.31535741813E+02  0.00000000000E+00 0.  1.
         13    1    5    5    0    0 -0.43578733162E+01  0.62778083943E+01 -0.30433717279E+02  0.31378544987E+02  0.00000000000E+00 0. -1.
        -13    1    5    5    0    0 -0.11040351128E+03  0.25088820361E+03 -0.11052986498E+03  0.29555147955E+03  0.00000000000E+00 0.  1.
          1    1    6    6  503    0  0.73956556482E+02 -0.66954816193E+02  0.16805647556E+03  0.19543668702E+03  0.00000000000E+00 0. -1.
         -1    1    6    6    0  503  0.85676141614E+02 -0.11177269125E+03  0.52436050743E+03  0.54294334649E+03  0.00000000000E+00 0.  1.
<mgrwt>
<rscale>  0 0.10331921E+04</rscale>
<asrwt>0</asrwt>
<pdfrwt beam="1">  1        1 0.46856366E-01 0.10331921E+04</pdfrwt>
<pdfrwt beam="2">  1       -2 0.13480527E+00 0.10331921E+04</pdfrwt>
<totfact> 0.29697319E+01</totfact>
</mgrwt>
</event>
<event>
12    5  0.5197392E-008  0.1582884E+04  0.7818608E-02  0.8831132E-01
         -2   -1    0    0    0  501 -0.00000000000E+00  0.00000000000E+00  0.43343305202E+03  0.43343305202E+03  0.00000000000E+00 0.  1.
          1   -1    0    0  501    0  0.00000000000E+00 -0.00000000000E+00 -0.14451609622E+04  0.14451609622E+04  0.00000000000E+00 0. -1.
        -24    2    1    2    0    0  0.88188985420E+02  0.27087681404E+03  0.18858021768E+03  0.35079710320E+03  0.79652768776E+02 0.  0.
        254    2    1    2    0    0 -0.88188985420E+02 -0.27087681404E+03 -0.12003081278E+04  0.15277969110E+04  0.90126147924E+03 0.  0.
         23    2    4    4    0    0 -0.43686410034E+03 -0.35975085131E+03 -0.72425070958E+03  0.92367696697E+03  0.91482959091E+02 0.  0.
         23    2    4    4    0    0  0.34867511492E+03  0.88874037261E+02 -0.47605741827E+03  0.60411994404E+03  0.94113288288E+02 0.  0.
          1    1    3    3  502    0 -0.18383696856E+01  0.11548997294E+03  0.62056406486E+02  0.13111945332E+03  0.00000000000E+00 0. -1.
         -2    1    3    3    0  502  0.90027355106E+02  0.15538684110E+03  0.12652381120E+03  0.21967764987E+03  0.00000000000E+00 0.  1.
         13    1    5    5    0    0 -0.22891792305E+03 -0.12954125912E+03 -0.32851316377E+03  0.42083874831E+03  0.00000000000E+00 0.  1.
        -13    1    5    5    0    0 -0.20794617729E+03 -0.23020959218E+03 -0.39573754581E+03  0.50283821866E+03  0.00000000000E+00 0. -1.
          3    1    6    6  503    0  0.23265019497E+03  0.76874067858E+02 -0.25178701600E+03  0.35132952759E+03  0.00000000000E+00 0. -1.
         -3    1    6    6    0  503  0.11602491994E+03  0.11999969404E+02 -0.22427040227E+03  0.25279041645E+03  0.00000000000E+00 0.  1.
<mgrwt>
<rscale>  0 0.15828841E+04</rscale>
<asrwt>0</asrwt>
<pdfrwt beam="1">  1        1 0.22233246E+00 0.15828841E+04</pdfrwt>
<pdfrwt beam="2">  1       -2 0.66682008E-01 0.15828841E+04</pdfrwt>
<totfact> 0.12441443E+01</totfact>
</mgrwt>
</event>
<event>
12    5  0.5197392E-008  0.1220494E+04  0.7818608E-02  0.9095105E-01
          1   -1    0    0  501    0  0.00000000000E+00  0.00000000000E+00  0.48084601297E+03  0.48084601297E+03  0.00000000000E+00 0. -1.
         -2   -1    0    0    0  501 -0.00000000000E+00 -0.00000000000E+00 -0.77447092944E+03  0.77447092944E+03  0.00000000000E+00 0.  1.
        -24    2    1    2    0    0 -0.54513946766E+02  0.62507253526E+02 -0.31090922377E+03  0.32980761801E+03  0.72315920327E+02 0.  0.
        254    2    1    2    0    0  0.54513946766E+02 -0.62507253526E+02  0.17284307301E+02  0.92550932440E+03  0.92162347797E+03 0.  0.
         23    2    4    4    0    0  0.39510977169E+03  0.12230619797E+02  0.26784586243E+03  0.48600831106E+03  0.90561319835E+02 0.  0.
         23    2    4    4    0    0 -0.34059582493E+03 -0.74737873324E+02 -0.25056155513E+03  0.43950101334E+03  0.93748504785E+02 0.  0.
          3    1    3    3  502    0 -0.35479372492E+02  0.33841730478E+02 -0.64566588772E+02  0.81073380217E+02  0.00000000000E+00 0. -1.
         -2    1    3    3    0  502 -0.19034574274E+02  0.28665523048E+02 -0.24634263500E+03  0.24873423779E+03  0.00000000000E+00 0.  1.
         13    1    5    5    0    0  0.83302668997E+02  0.13067660340E+02  0.17456674782E+02  0.86109429816E+02  0.00000000000E+00 0.  1.
        -13    1    5    5    0    0  0.31180710270E+03 -0.83704054232E+00  0.25038918765E+03  0.39989888125E+03  0.00000000000E+00 0. -1.
          4    1    6    6  503    0 -0.16389822429E+03 -0.36360473952E+02 -0.63931238923E+02  0.17964385685E+03  0.00000000000E+00 0.  1.
         -4    1    6    6    0  503 -0.17669760064E+03 -0.38377399372E+02 -0.18663031621E+03  0.25985715650E+03  0.00000000000E+00 0. -1.
<mgrwt>
<rscale>  0 0.12204938E+04</rscale>
<asrwt>0</asrwt>
<pdfrwt beam="1">  1        1 0.73976310E-01 0.12204938E+04</pdfrwt>
<pdfrwt beam="2">  1       -2 0.11914937E+00 0.12204938E+04</pdfrwt>
<totfact> 0.21837068E+01</totfact>
</mgrwt>
</event>
<event>
12    5  0.5197392E-008  0.2246320E+04  0.7818608E-02  0.8499392E-01
          1   -1    0    0  501    0  0.00000000000E+00  0.00000000000E+00  0.18543147913E+04  0.18543147913E+04  0.00000000000E+00 0. -1.
         -2   -1    0    0    0  501 -0.00000000000E+00 -0.00000000000E+00 -0.68029873835E+03  0.68029873835E+03  0.00000000000E+00 0.  1.
        -24    2    1    2    0    0  0.46954422288E+03 -0.53377506428E+03  0.11919148508E+04  0.13899998302E+04  0.77787658522E+02 0.  0.
        254    2    1    2    0    0 -0.46954422288E+03  0.53377506428E+03 -0.17898797805E+02  0.11446136995E+04  0.89690164326E+03 0.  0.
         23    2    4    4    0    0 -0.24052363182E+03  0.54364882595E+03 -0.37596990661E+03  0.70918898518E+03  0.90498522604E+02 0.  0.
         23    2    4    4    0    0 -0.22902059105E+03 -0.98737616743E+01  0.35807110880E+03  0.43542471435E+03  0.93977872973E+02 0.  0.
          1    1    3    3  502    0  0.35722958998E+03 -0.38987915803E+03  0.94572827669E+03  0.10835223630E+04  0.00000000000E+00 0. -1.
         -2    1    3    3    0  502  0.11231463289E+03 -0.14389590625E+03  0.24618657410E+03  0.30647746714E+03  0.00000000000E+00 0.  1.
         13    1    5    5    0    0 -0.71220407978E+02  0.85264894892E+02 -0.50265395063E+02  0.12193875001E+03  0.00000000000E+00 0. -1.
        -13    1    5    5    0    0 -0.16930322385E+03  0.45838393106E+03 -0.32570451155E+03  0.58725023516E+03  0.00000000000E+00 0.  1.
          1    1    6    6  503    0 -0.33476921235E+02  0.26434157188E+02  0.10655406536E+03  0.11477472617E+03  0.00000000000E+00 0.  1.
         -1    1    6    6    0  503 -0.19554366982E+03 -0.36307918862E+02  0.25151704344E+03  0.32064998818E+03  0.00000000000E+00 0. -1.
<mgrwt>
<rscale>  0 0.22463197E+04</rscale>
<asrwt>0</asrwt>
<pdfrwt beam="1">  1        1 0.28527920E+00 0.22463197E+04</pdfrwt>
<pdfrwt beam="2">  1       -2 0.10466135E+00 0.22463197E+04</pdfrwt>
<totfact> 0.22110366E+00</totfact>
</mgrwt>
</event>
<event>
12    5  0.5197392E-008  0.2586411E+04  0.7818608E-02  0.8372832E-01
         -2   -1    0    0    0  501 -0.00000000000E+00  0.00000000000E+00  0.14764588287E+04  0.14764588287E+04  0.00000000000E+00 0.  1.
          1   -1    0    0  501    0  0.00000000000E+00 -0.00000000000E+00 -0.11326969917E+04  0.11326969917E+04  0.00000000000E+00 0. -1.
        -24    2    1    2    0    0  0.26894209780E+03  0.60043442846E+03  0.10787917992E+04  0.12660833572E+04  0.79523371223E+02 0.  0.
        254    2    1    2    0    0 -0.26894209780E+03 -0.60043442846E+03 -0.73502996222E+03  0.13430724631E+04  0.91144020158E+03 0.  0.
         23    2    4    4    0    0 -0.57646958475E+03 -0.26746694815E+03 -0.54785311504E+03  0.84393293842E+03  0.90686373790E+02 0.  0.
         23    2    4    4    0    0  0.30752748694E+03 -0.33296748031E+03 -0.18717684718E+03  0.49913952473E+03  0.93083805565E+02 0.  0.
          3    1    3    3  502    0  0.14919755168E+03  0.29937566995E+03  0.47664013958E+03  0.58229848346E+03  0.00000000000E+00 0. -1.
         -4    1    3    3    0  502  0.11974454612E+03  0.30105875851E+03  0.60215165961E+03  0.68378487375E+03  0.00000000000E+00 0.  1.
         13    1    5    5    0    0 -0.53021985667E+03 -0.23176908771E+03 -0.46392183073E+03  0.74166938150E+03  0.00000000000E+00 0. -1.
        -13    1    5    5    0    0 -0.46249728077E+02 -0.35697860435E+02 -0.83931284310E+02  0.10226355691E+03  0.00000000000E+00 0.  1.
          4    1    6    6  503    0  0.12738968776E+03 -0.18487494289E+03 -0.12844455582E+03  0.25865977843E+03  0.00000000000E+00 0. -1.
         -4    1    6    6    0  503  0.18013779918E+03 -0.14809253742E+03 -0.58732291359E+02  0.24047974631E+03  0.00000000000E+00 0.  1.
<mgrwt>
<rscale>  0 0.25864110E+04</rscale>
<asrwt>0</asrwt>
<pdfrwt beam="1">  1        1 0.17426107E+00 0.25864110E+04</pdfrwt>
<pdfrwt beam="2">  1       -2 0.22714751E+00 0.25864110E+04</pdfrwt>
<totfact> 0.82587186E-01</totfact>
</mgrwt>
</event>
<event>
12    5  0.5197392E-008  0.2356587E+04  0.7818608E-02  0.8455938E-01
          1   -1    0    0  501    0  0.00000000000E+00  0.00000000000E+00  0.12602151450E+04  0.12602151450E+04  0.00000000000E+00 0. -1.
         -2   -1    0    0    0  501 -0.00000000000E+00 -0.00000000000E+00 -0.11016968270E+04  0.11016968270E+04  0.00000000000E+00 0.  1.
        -24    2    1    2    0    0  0.44998358008E+03 -0.50506514613E+03 -0.66890882476E+03  0.95450613187E+03  0.77890408589E+02 0.  0.
        254    2    1    2    0    0 -0.44998358008E+03  0.50506514613E+03  0.82742714273E+03  0.14074058401E+04  0.91573986376E+03 0.  0.
         23    2    4    4    0    0 -0.16945432192E+03  0.33871698931E+03  0.96624763814E+03  0.10420201443E+04  0.93421179678E+02 0.  0.
         23    2    4    4    0    0 -0.28052925816E+03  0.16634815682E+03 -0.13882049541E+03  0.36538569583E+03  0.88697253694E+02 0.  0.
          1    1    3    3  502    0  0.10824903094E+03 -0.93555983094E+02 -0.10662906374E+03  0.17843859422E+03  0.00000000000E+00 0. -1.
         -2    1    3    3    0  502  0.34173454914E+03 -0.41150916304E+03 -0.56227976102E+03  0.77606753765E+03  0.00000000000E+00 0.  1.
         13    1    5    5    0    0  0.67417268430E+01 -0.10574779966E+01  0.25398571304E+02  0.26299364343E+02  0.00000000000E+00 0.  1.
        -13    1    5    5    0    0 -0.17619604877E+03  0.33977446730E+03  0.94084906683E+03  0.10157207799E+04  0.00000000000E+00 0. -1.
          3    1    6    6  503    0 -0.21741832183E+03  0.16777744198E+03 -0.11810962676E+03  0.29894795641E+03  0.00000000000E+00 0. -1.
         -3    1    6    6    0  503 -0.63110936325E+02 -0.14292851588E+01 -0.20710868653E+02  0.66437739428E+02  0.00000000000E+00 0.  1.
<mgrwt>
<rscale>  0 0.23565865E+04</rscale>
<asrwt>0</asrwt>
<pdfrwt beam="1">  1        1 0.19387925E+00 0.23565865E+04</pdfrwt>
<pdfrwt beam="2">  1       -2 0.16949182E+00 0.23565865E+04</pdfrwt>
<totfact> 0.16388926E+00</totfact>
</mgrwt>
</event>
<event>
12    5  0.5302697E-008  0.1879042E+04  0.7818608E-02  0.8665359E-01
         -2   -1    0    0    0  501 -0.00000000000E+00  0.00000000000E+00  0.39438578712E+03  0.39438578712E+03  0.00000000000E+00 0.  1.
          1   -1    0    0  501    0  0.00000000000E+00 -0.00000000000E+00 -0.22381632137E+04  0.22381632137E+04  0.00000000000E+00 0. -1.
        -24    2    1    2    0    0 -0.20809662857E+03  0.47517766015E+03 -0.12629007789E+02  0.52510211215E+03  0.80465649899E+02 0.  0.
        254    2    1    2    0    0  0.20809662857E+03 -0.47517766015E+03 -0.18311484188E+04  0.21074468886E+04  0.90505792155E+03 0.  0.
         23    2    4    4    0    0  0.87410572792E+01 -0.68644529624E+03 -0.95278564770E+03  0.11780263646E+04  0.93070265861E+02 0.  0.
         23    2    4    4    0    0  0.19935557130E+03  0.21126763608E+03 -0.87836277107E+03  0.92942052406E+03  0.89020756455E+02 0.  0.
          3    1    3    3  502    0 -0.32447322560E+02  0.12757767964E+03  0.24418472151E+02  0.13388485674E+03  0.00000000000E+00 0. -1.
         -4    1    3    3    0  502 -0.17564930601E+03  0.34759998052E+03 -0.37047479940E+02  0.39121725541E+03  0.00000000000E+00 0.  1.
         13    1    5    5    0    0  0.57199392985E+01 -0.48111356311E+01 -0.29187154852E+02  0.30128968452E+02  0.00000000000E+00 0. -1.
        -13    1    5    5    0    0  0.30211179807E+01 -0.68163416061E+03 -0.92359849284E+03  0.11478973961E+04  0.00000000000E+00 0.  1.
          1    1    6    6  503    0  0.15387715098E+02  0.28397662173E+02 -0.37677612805E+02  0.49626721627E+02  0.00000000000E+00 0. -1.
         -1    1    6    6    0  503  0.18396785620E+03  0.18286997391E+03 -0.84068515826E+03  0.87979380243E+03  0.00000000000E+00 0.  1.
<mgrwt>
<rscale>  0 0.18790421E+04</rscale>
<asrwt>0</asrwt>
<pdfrwt beam="1">  1        1 0.34433280E+00 0.18790421E+04</pdfrwt>
<pdfrwt beam="2">  1       -2 0.60674738E-01 0.18790421E+04</pdfrwt>
<totfact> 0.42729305E+00</totfact>
</mgrwt>
</event>
<event>
12    5  0.5197392E-008  0.1504021E+04  0.7818608E-02  0.8881784E-01
         -2   -1    0    0    0  501 -0.00000000000E+00  0.00000000000E+00  0.67730905065E+03  0.67730905065E+03  0.00000000000E+00 0.  1.
          1   -1    0    0  501    0  0.00000000000E+00 -0.00000000000E+00 -0.83495064901E+03  0.83495064901E+03  0.00000000000E+00 0. -1.
        -24    2    1    2    0    0 -0.14152771932E+03  0.30487665626E+03  0.27032983461E+03  0.43879604420E+03  0.80522531386E+02 0.  0.
        254    2    1    2    0    0  0.14152771932E+03 -0.30487665626E+03 -0.42797143297E+03  0.10734636555E+04  0.92530254580E+03 0.  0.
         23    2    4    4    0    0 -0.16107387864E+03  0.25134797999E+03 -0.27389322551E+03  0.41531114714E+03  0.91352331863E+02 0.  0.
         23    2    4    4    0    0  0.30260159796E+03 -0.55622463624E+03 -0.15407820746E+03  0.65815250831E+03  0.92038346006E+02 0.  0.
          1    1    3    3  502    0 -0.55635380860E+02  0.44623057996E+02  0.62756379478E+02  0.94999347753E+02  0.00000000000E+00 0. -1.
         -2    1    3    3    0  502 -0.85892338460E+02  0.26025359826E+03  0.20757345514E+03  0.34379669645E+03  0.00000000000E+00 0.  1.
         13    1    5    5    0    0 -0.16336882567E+03  0.21771553614E+03 -0.21268434767E+03  0.34543314784E+03  0.00000000000E+00 0. -1.
        -13    1    5    5    0    0  0.22949470336E+01  0.33632443843E+02 -0.61208877837E+02  0.69877999304E+02  0.00000000000E+00 0.  1.
          4    1    6    6  503    0  0.27252752261E+03 -0.42234502701E+03 -0.11972874894E+03  0.51670256990E+03  0.00000000000E+00 0. -1.
         -4    1    6    6    0  503  0.30074075347E+02 -0.13387960923E+03 -0.34349458516E+02  0.14144993841E+03  0.00000000000E+00 0.  1.
<mgrwt>
<rscale>  0 0.15040208E+04</rscale>
<asrwt>0</asrwt>
<pdfrwt beam="1">  1        1 0.12845395E+00 0.15040208E+04</pdfrwt>
<pdfrwt beam="2">  1       -2 0.10420139E+00 0.15040208E+04</pdfrwt>
<totfact> 0.13083766E+01</totfact>
</mgrwt>
</event>
<event>
12    5  0.5197392E-008  0.4748326E+04  0.7818608E-02  0.7868548E-01
          1   -1    0    0  501    0  0.00000000000E+00  0.00000000000E+00  0.14132006450E+04  0.14132006450E+04  0.00000000000E+00 0. -1.
         -2   -1    0    0    0  501 -0.00000000000E+00 -0.00000000000E+00 -0.39885703700E+04  0.39885703700E+04  0.00000000000E+00 0.  1.
        -24    2    1    2    0    0  0.18134618801E+04  0.11759272848E+04 -0.20979074484E+04  0.30131296215E+04  0.79281045669E+02 0.  0.
        254    2    1    2    0    0 -0.18134618801E+04 -0.11759272848E+04 -0.47746227665E+03  0.23886413935E+04  0.89788000947E+03 0.  0.
         23    2    4    4    0    0 -0.59930311494E+03 -0.32419986045E+03  0.25370064161E+03  0.73271547650E+03  0.90764425014E+02 0.  0.
         23    2    4    4    0    0 -0.12141587652E+04 -0.85172742431E+03 -0.73116291826E+03  0.16559259170E+04  0.88714808081E+02 0.  0.
          1    1    3    3  502    0  0.17939138122E+04  0.11582835829E+04 -0.20605621723E+04  0.29674339234E+04  0.00000000000E+00 0. -1.
         -2    1    3    3    0  502  0.19548067893E+02  0.17643701854E+02 -0.37345276064E+02  0.45695698023E+02  0.00000000000E+00 0.  1.
         13    1    5    5    0    0 -0.41971304896E+03 -0.24101237752E+03  0.13723466156E+03  0.50306993741E+03  0.00000000000E+00 0. -1.
        -13    1    5    5    0    0 -0.17959006598E+03 -0.83187482932E+02  0.11646598006E+03  0.22964553909E+03  0.00000000000E+00 0.  1.
          4    1    6    6  503    0 -0.59413538078E+03 -0.44499381585E+03 -0.40798123050E+03  0.84703307566E+03  0.00000000000E+00 0. -1.
         -4    1    6    6    0  503 -0.62002338440E+03 -0.40673360846E+03 -0.32318168776E+03  0.80889284133E+03  0.00000000000E+00 0.  1.
<mgrwt>
<rscale>  0 0.47483261E+04</rscale>
<asrwt>0</asrwt>
<pdfrwt beam="1">  1        1 0.21741549E+00 0.47483261E+04</pdfrwt>
<pdfrwt beam="2">  1       -2 0.61362620E+00 0.47483261E+04</pdfrwt>
<totfact> 0.22041178E-03</totfact>
</mgrwt>
</event>
<event>
12    5  0.5197392E-008  0.1395017E+04  0.7818608E-02  0.8957434E-01
          1   -1    0    0  501    0  0.00000000000E+00  0.00000000000E+00  0.33735303261E+03  0.33735303261E+03  0.00000000000E+00 0. -1.
         -2   -1    0    0    0  501 -0.00000000000E+00 -0.00000000000E+00 -0.14421624757E+04  0.14421624757E+04  0.00000000000E+00 0.  1.
        -24    2    1    2    0    0 -0.21850488845E+03  0.29753791178E+03 -0.48453385518E+03  0.61579684234E+03  0.90329945227E+02 0.  0.
        254    2    1    2    0    0  0.21850488845E+03 -0.29753791178E+03 -0.62027558787E+03  0.11637186659E+04  0.91281221142E+03 0.  0.
         23    2    4    4    0    0  0.25973389109E+03 -0.59299297803E+03 -0.51892241278E+03  0.83459143621E+03  0.90332877405E+02 0.  0.
         23    2    4    4    0    0 -0.41229002642E+02  0.29545506625E+03 -0.10135317509E+03  0.32912722972E+03  0.95177415432E+02 0.  0.
          3    1    3    3  502    0 -0.10347551420E+03  0.10030683455E+03 -0.12989248474E+03  0.19401211479E+03  0.00000000000E+00 0. -1.
         -4    1    3    3    0  502 -0.11502937425E+03  0.19723107723E+03 -0.35464137044E+03  0.42178472755E+03  0.00000000000E+00 0.  1.
         13    1    5    5    0    0  0.39084587335E+02 -0.31163620067E+02 -0.42757279973E+02  0.65779641026E+02  0.00000000000E+00 0.  1.
        -13    1    5    5    0    0  0.22064930375E+03 -0.56182935797E+03 -0.47616513281E+03  0.76881179519E+03  0.00000000000E+00 0. -1.
          3    1    6    6  503    0 -0.66176864936E+02  0.24697961863E+03 -0.10011990364E+03  0.27459480071E+03  0.00000000000E+00 0. -1.
         -3    1    6    6    0  503  0.24947862294E+02  0.48475447625E+02 -0.12332714500E+01  0.54532429012E+02  0.00000000000E+00 0.  1.
<mgrwt>
<rscale>  0 0.13950167E+04</rscale>
<asrwt>0</asrwt>
<pdfrwt beam="1">  1        1 0.51900467E-01 0.13950167E+04</pdfrwt>
<pdfrwt beam="2">  1       -2 0.22187115E+00 0.13950167E+04</pdfrwt>
<totfact> 0.61580242E+00</totfact>
</mgrwt>
</event>
<event>
12    5  0.5197392E-008  0.2206639E+04  0.7818608E-02  0.8515670E-01
         -2   -1    0    0    0  501 -0.00000000000E+00  0.00000000000E+00  0.75565634822E+03  0.75565634822E+03  0.00000000000E+00 0.  1.
          1   -1    0    0  501    0  0.00000000000E+00 -0.00000000000E+00 -0.16109365577E+04  0.16109365577E+04  0.00000000000E+00 0. -1.
        -24    2    1    2    0    0  0.19998897003E+03  0.77805675280E+03 -0.84124533456E+03  0.11659860038E+04  0.80385007179E+02 0.  0.
        254    2    1    2    0    0 -0.19998897003E+03 -0.77805675280E+03 -0.14034874880E+02  0.12006069021E+04  0.89212782544E+03 0.  0.
         23    2    4    4    0    0 -0.25339838843E+03  0.12020038552E+03  0.22289761312E+02  0.29512647345E+03  0.89128704311E+02 0.  0.
         23    2    4    4    0    0  0.53409418396E+02 -0.89825713832E+03 -0.36324636192E+02  0.90548042865E+03  0.94110971461E+02 0.  0.
          3    1    3    3  502    0  0.11859703628E+03  0.59373124341E+03 -0.64693810685E+03  0.88606487376E+03  0.00000000000E+00 0. -1.
         -4    1    3    3    0  502  0.81391933750E+02  0.18432550939E+03 -0.19430722771E+03  0.27992113002E+03  0.00000000000E+00 0.  1.
         13    1    5    5    0    0 -0.81703335180E+01 -0.88676315629E+01  0.13170951075E+02  0.17856740787E+02  0.00000000000E+00 0.  1.
        -13    1    5    5    0    0 -0.24522805491E+03  0.12906801708E+03  0.91188102377E+01  0.27726973266E+03  0.00000000000E+00 0. -1.
          1    1    6    6  503    0  0.30823128650E+02 -0.84357604359E+03 -0.21153246674E+02  0.84440397111E+03  0.00000000000E+00 0. -1.
         -1    1    6    6    0  503  0.22586289746E+02 -0.54681094730E+02 -0.15171389518E+02  0.61076457538E+02  0.00000000000E+00 0.  1.
<mgrwt>
<rscale>  0 0.22066395E+04</rscale>
<asrwt>0</asrwt>
<pdfrwt beam="1">  1        1 0.24783639E+00 0.22066395E+04</pdfrwt>
<pdfrwt beam="2">  1       -2 0.11625483E+00 0.22066395E+04</pdfrwt>
<totfact> 0.25195969E+00</totfact>
</mgrwt>
</event>
<event>
12    5  0.5197392E-008  0.1319342E+04  0.7818608E-02  0.9014366E-01
         -2   -1    0    0    0  501 -0.00000000000E+00  0.00000000000E+00  0.14596397039E+03  0.14596397039E+03  0.00000000000E+00 0.  1.
          1   -1    0    0  501    0  0.00000000000E+00 -0.00000000000E+00 -0.29813236855E+04  0.29813236855E+04  0.00000000000E+00 0. -1.
        -24    2    1    2    0    0  0.14037085994E+03  0.26508392955E+03 -0.36108246022E+03  0.47562411312E+03  0.76578625447E+02 0.  0.
        254    2    1    2    0    0 -0.14037085994E+03 -0.26508392955E+03 -0.24742772548E+04  0.26516635427E+04  0.90515089457E+03 0.  0.
         23    2    4    4    0    0  0.17390404095E+03 -0.46459779727E+02 -0.20969871977E+04  0.21063886021E+04  0.84359403003E+02 0.  0.
         23    2    4    4    0    0 -0.31427490090E+03 -0.21862414982E+03 -0.37729005711E+03  0.54527494065E+03  0.91715546627E+02 0.  0.
          3    1    3    3  502    0  0.70713213868E+01  0.63822694610E+02 -0.10962689697E+03  0.12704879564E+03  0.00000000000E+00 0. -1.
         -4    1    3    3    0  502  0.13329953856E+03  0.20126123494E+03 -0.25145556325E+03  0.34857531748E+03  0.00000000000E+00 0.  1.
         13    1    5    5    0    0  0.68843880493E+02 -0.61768356949E+02 -0.93861498802E+03  0.94316112385E+03  0.00000000000E+00 0.  1.
        -13    1    5    5    0    0  0.10506016046E+03  0.15308577222E+02 -0.11583722097E+04  0.11632274782E+04  0.00000000000E+00 0. -1.
          1    1    6    6  503    0 -0.27850665369E+03 -0.22159859955E+03 -0.35672365998E+03  0.50390838955E+03  0.00000000000E+00 0. -1.
         -1    1    6    6    0  503 -0.35768247203E+02  0.29744497267E+01 -0.20566397135E+02  0.41366551104E+02  0.00000000000E+00 0.  1.
<mgrwt>
<rscale>  0 0.13193420E+04</rscale>
<asrwt>0</asrwt>
<pdfrwt beam="1">  1        1 0.45866518E+00 0.13193420E+04</pdfrwt>
<pdfrwt beam="2">  1       -2 0.22455996E-01 0.13193420E+04</pdfrwt>
<totfact> 0.93359633E+00</totfact>
</mgrwt>
</event>
<event>
12    5  0.5197392E-008  0.1240596E+04  0.7818608E-02  0.9078047E-01
          1   -1    0    0  501    0  0.00000000000E+00  0.00000000000E+00  0.18941809690E+03  0.18941809690E+03  0.00000000000E+00 0. -1.
         -2   -1    0    0    0  501 -0.00000000000E+00 -0.00000000000E+00 -0.20313242290E+04  0.20313242290E+04  0.00000000000E+00 0.  1.
        -24    2    1    2    0    0 -0.68768731951E+02 -0.19435646466E+01  0.54547268209E+02  0.11541050572E+03  0.74908373529E+02 0.  0.
        254    2    1    2    0    0  0.68768731951E+02  0.19435646466E+01 -0.18964534004E+04  0.21053318202E+04  0.91167628992E+03 0.  0.
         23    2    4    4    0    0 -0.39423207524E+03 -0.12302298435E+03 -0.80074665929E+03  0.90574030988E+03  0.92826250292E+02 0.  0.
         23    2    4    4    0    0  0.46300080719E+03  0.12496654900E+03 -0.10957067411E+04  0.11995915104E+04  0.91979038207E+02 0.  0.
          3    1    3    3  502    0 -0.80088304286E+02 -0.73966103887E+01  0.61318472560E+02  0.10113753708E+03  0.00000000000E+00 0. -1.
         -4    1    3    3    0  502  0.11319572334E+02  0.54530457421E+01 -0.67712043505E+01  0.14272968649E+02  0.00000000000E+00 0.  1.
         13    1    5    5    0    0 -0.35583496771E+03 -0.13246342937E+03 -0.68181673702E+03  0.78040960222E+03  0.00000000000E+00 0.  1.
        -13    1    5    5    0    0 -0.38397107527E+02  0.94404450176E+01 -0.11892992227E+03  0.12533070765E+03  0.00000000000E+00 0. -1.
          3    1    6    6  503    0  0.23326745708E+03  0.77429976195E+02 -0.45258691006E+03  0.51501846463E+03  0.00000000000E+00 0. -1.
         -3    1    6    6    0  503  0.22973335011E+03  0.47536572803E+02 -0.64311983100E+03  0.68457304572E+03  0.00000000000E+00 0.  1.
<mgrwt>
<rscale>  0 0.12405959E+04</rscale>
<asrwt>0</asrwt>
<pdfrwt beam="1">  1        1 0.29141244E-01 0.12405959E+04</pdfrwt>
<pdfrwt beam="2">  1       -2 0.31251144E+00 0.12405959E+04</pdfrwt>
<totfact> 0.36912035E+00</totfact>
</mgrwt>
</event>
<event>
12    5  0.5197392E-008  0.1654889E+04  0.7818608E-02  0.8787519E-01
         -2   -1    0    0    0  501 -0.00000000000E+00  0.00000000000E+00  0.69125698004E+03  0.69125698004E+03  0.00000000000E+00 0.  1.
          1   -1    0    0  501    0  0.00000000000E+00 -0.00000000000E+00 -0.99046349510E+03  0.99046349510E+03  0.00000000000E+00 0. -1.
        -24    2    1    2    0    0  0.45851074280E+03  0.29422067087E+03 -0.30241901472E+03  0.62839699916E+03  0.81410218389E+02 0.  0.
        254    2    1    2    0    0 -0.45851074280E+03 -0.29422067087E+03  0.32124996558E+01  0.10533234760E+04  0.90148883546E+03 0.  0.
         23    2    4    4    0    0 -0.15771682846E+03  0.55100187030E+02  0.39680786064E+03  0.44031895047E+03  0.92269557750E+02 0.  0.
         23    2    4    4    0    0 -0.30079391434E+03 -0.34932085790E+03 -0.39359536098E+03  0.61300452551E+03  0.91406780068E+02 0.  0.
          1    1    3    3  502    0  0.29507519800E+03  0.19217092220E+03 -0.23886734527E+03  0.42550751398E+03  0.00000000000E+00 0. -1.
         -2    1    3    3    0  502  0.16343554480E+03  0.10204974866E+03 -0.63551669444E+02  0.20288948518E+03  0.00000000000E+00 0.  1.
         13    1    5    5    0    0 -0.63145237349E+02 -0.13548652194E+02  0.21239631859E+03  0.22199793496E+03  0.00000000000E+00 0. -1.
        -13    1    5    5    0    0 -0.94571591106E+02  0.68648839224E+02  0.18441154205E+03  0.21832101551E+03  0.00000000000E+00 0.  1.
          1    1    6    6  503    0 -0.11435180270E+03 -0.89676333026E+02 -0.83227112665E+02  0.16746621082E+03  0.00000000000E+00 0. -1.
         -1    1    6    6    0  503 -0.18644211165E+03 -0.25964452487E+03 -0.31036824832E+03  0.44553831469E+03  0.00000000000E+00 0.  1.
<mgrwt>
<rscale>  0 0.16548895E+04</rscale>
<asrwt>0</asrwt>
<pdfrwt beam="1">  1        1 0.15237900E+00 0.16548895E+04</pdfrwt>
<pdfrwt beam="2">  1       -2 0.10634723E+00 0.16548895E+04</pdfrwt>
<totfact> 0.91889828E+00</totfact>
</mgrwt>
</event>
<event>
12    5  0.5197392E-008  0.1376351E+04  0.7818608E-02  0.8971117E-01
         -2   -1    0    0    0  501 -0.00000000000E+00  0.00000000000E+00  0.73330088757E+03  0.73330088757E+03  0.00000000000E+00 0.  1.
          1   -1    0    0  501    0  0.00000000000E+00 -0.00000000000E+00 -0.64582735505E+03  0.64582735505E+03  0.00000000000E+00 0. -1.
        -24    2    1    2    0    0 -0.17799814142E+03 -0.32908935870E+03 -0.55873632212E+02  0.38717777457E+03  0.82471946663E+02 0.  0.
        254    2    1    2    0    0  0.17799814142E+03  0.32908935870E+03  0.14334716473E+03  0.99195046805E+03  0.90743273969E+03 0.  0.
         23    2    4    4    0    0  0.33444381033E+03 -0.14685761184E+03 -0.14747900578E+03  0.40466490507E+03  0.92648841459E+02 0.  0.
         23    2    4    4    0    0 -0.15644566891E+03  0.47594697054E+03  0.29082617051E+03  0.58728556298E+03  0.96559333808E+02 0.  0.
          3    1    3    3  502    0 -0.14714905203E+03 -0.29991605866E+03 -0.25634896386E+02  0.33505168805E+03  0.00000000000E+00 0. -1.
         -4    1    3    3    0  502 -0.30849089386E+02 -0.29173300047E+02 -0.30238735826E+02  0.52126086521E+02  0.00000000000E+00 0.  1.
         13    1    5    5    0    0  0.60085821062E+02 -0.68606520690E+02 -0.43115455706E+02  0.10087667270E+03  0.00000000000E+00 0. -1.
        -13    1    5    5    0    0  0.27435798927E+03 -0.78251091145E+02 -0.10436355007E+03  0.30378823237E+03  0.00000000000E+00 0.  1.
          4    1    6    6  503    0 -0.46863701786E+02  0.69251284189E+02  0.18265632488E+02  0.85589603557E+02  0.00000000000E+00 0. -1.
         -4    1    6    6    0  503 -0.10958196713E+03  0.40669568635E+03  0.27256053802E+03  0.50169595943E+03  0.00000000000E+00 0.  1.
<mgrwt>
<rscale>  0 0.13763514E+04</rscale>
<asrwt>0</asrwt>
<pdfrwt beam="1">  1        1 0.99358055E-01 0.13763514E+04</pdfrwt>
<pdfrwt beam="2">  1       -2 0.11281552E+00 0.13763514E+04</pdfrwt>
<totfact> 0.16244217E+01</totfact>
</mgrwt>
</event>
<event>
12    5  0.5197392E-008  0.1642210E+04  0.7818608E-02  0.8795028E-01
          1   -1    0    0  501    0  0.00000000000E+00  0.00000000000E+00  0.37423198544E+03  0.37423198544E+03  0.00000000000E+00 0. -1.
         -2   -1    0    0    0  501 -0.00000000000E+00 -0.00000000000E+00 -0.18015929570E+04  0.18015929570E+04  0.00000000000E+00 0.  1.
        -24    2    1    2    0    0 -0.60289618264E+02  0.15194186110E+03  0.23229941835E+03  0.29542897749E+03  0.81204025459E+02 0.  0.
        254    2    1    2    0    0  0.60289618264E+02 -0.15194186110E+03 -0.16596603899E+04  0.18803959650E+04  0.86873195402E+03 0.  0.
         23    2    4    4    0    0 -0.11902237359E+03 -0.60939946633E+02  0.41291349031E+02  0.16517092572E+03  0.87729451648E+02 0.  0.
         23    2    4    4    0    0  0.17931199186E+03 -0.91001914470E+02 -0.17009517389E+04  0.17152250392E+04  0.91246797942E+02 0.  0.
          3    1    3    3  502    0 -0.33764247258E+02  0.44779576080E+02  0.14244383783E+03  0.15308651725E+03  0.00000000000E+00 0. -1.
         -4    1    3    3    0  502 -0.26525371005E+02  0.10716228502E+03  0.89855580520E+02  0.14234246025E+03  0.00000000000E+00 0.  1.
         13    1    5    5    0    0 -0.82500519877E+02 -0.76042470588E+02  0.52807813580E+02  0.12400588006E+03  0.00000000000E+00 0. -1.
        -13    1    5    5    0    0 -0.36521853717E+02  0.15102523956E+02 -0.11516464549E+02  0.41165045663E+02  0.00000000000E+00 0.  1.
          4    1    6    6  503    0  0.11900811535E+03 -0.50909997074E+02 -0.13871510163E+04  0.13931771967E+04  0.00000000000E+00 0. -1.
         -4    1    6    6    0  503  0.60303876508E+02 -0.40091917396E+02 -0.31380072263E+03  0.32204784254E+03  0.00000000000E+00 0.  1.
<mgrwt>
<rscale>  0 0.16422104E+04</rscale>
<asrwt>0</asrwt>
<pdfrwt beam="1">  1        1 0.57574151E-01 0.16422104E+04</pdfrwt>
<pdfrwt beam="2">  1       -2 0.27716815E+00 0.16422104E+04</pdfrwt>
<totfact> 0.24044970E+00</totfact>
</mgrwt>
</event>
<event>
12    5  0.5197392E-008  0.1346072E+04  0.7818608E-02  0.8993807E-01
          1   -1    0    0  501    0  0.00000000000E+00  0.00000000000E+00  0.12876333872E+04  0.12876333872E+04  0.00000000000E+00 0. -1.
         -2   -1    0    0    0  501 -0.00000000000E+00 -0.00000000000E+00 -0.35179044500E+03  0.35179044500E+03  0.00000000000E+00 0.  1.
        -24    2    1    2    0    0  0.11574041256E+03 -0.29106245252E+03  0.25409413621E+02  0.32423971909E+03  0.79828333091E+02 0.  0.
        254    2    1    2    0    0 -0.11574041256E+03  0.29106245252E+03  0.91043352858E+03  0.13151841131E+04  0.89593908669E+03 0.  0.
         23    2    4    4    0    0  0.17410920531E+03 -0.23052557124E+03  0.50301488109E+03  0.58680731274E+03  0.88672415729E+02 0.  0.
         23    2    4    4    0    0 -0.28984961787E+03  0.52158802376E+03  0.40741864749E+03  0.72837680038E+03  0.92064876561E+02 0.  0.
          1    1    3    3  502    0 -0.67931489403E+01 -0.16897956049E+02 -0.11711975082E+02  0.21653132602E+02  0.00000000000E+00 0. -1.
         -2    1    3    3    0  502  0.12253356150E+03 -0.27416449647E+03  0.37121388703E+02  0.30258658648E+03  0.00000000000E+00 0.  1.
         13    1    5    5    0    0  0.73041059973E+02 -0.75375056041E+02  0.10828373219E+03  0.15080372068E+03  0.00000000000E+00 0. -1.
        -13    1    5    5    0    0  0.10106814534E+03 -0.15515051520E+03  0.39473114891E+03  0.43600359206E+03  0.00000000000E+00 0.  1.
          1    1    6    6  503    0 -0.27740865502E+03  0.43281535710E+03  0.34365991701E+03  0.61837434761E+03  0.00000000000E+00 0. -1.
         -1    1    6    6    0  503 -0.12440962850E+02  0.88772666661E+02  0.63758730483E+02  0.11000245277E+03  0.00000000000E+00 0.  1.
<mgrwt>
<rscale>  0 0.13460715E+04</rscale>
<asrwt>0</asrwt>
<pdfrwt beam="1">  1        1 0.19809744E+00 0.13460715E+04</pdfrwt>
<pdfrwt beam="2">  1       -2 0.54121608E-01 0.13460715E+04</pdfrwt>
<totfact> 0.25488596E+01</totfact>
</mgrwt>
</event>
<event>
12    5  0.5197392E-008  0.1249372E+04  0.7818608E-02  0.9070706E-01
         -2   -1    0    0    0  501 -0.00000000000E+00  0.00000000000E+00  0.11647291057E+03  0.11647291057E+03  0.00000000000E+00 0.  1.
          1   -1    0    0  501    0  0.00000000000E+00 -0.00000000000E+00 -0.33504132326E+04  0.33504132326E+04  0.00000000000E+00 0. -1.
        -24    2    1    2    0    0 -0.12477551424E+03 -0.53839248810E+02 -0.66927493843E+02  0.17135828333E+03  0.80104794905E+02 0.  0.
        254    2    1    2    0    0  0.12477551424E+03  0.53839248810E+02 -0.31670128282E+04  0.32955278599E+04  0.90114706201E+03 0.  0.
         23    2    4    4    0    0 -0.27881692838E+03  0.27554049425E+03 -0.10058446971E+04  0.10839185174E+04  0.97438976340E+02 0.  0.
         23    2    4    4    0    0  0.40359244262E+03 -0.22170124544E+03 -0.21611681311E+04  0.22116093425E+04  0.92357408161E+02 0.  0.
          3    1    3    3  502    0 -0.37724139068E+02 -0.45667937263E+02 -0.58937115204E+02  0.83559886972E+02  0.00000000000E+00 0. -1.
         -4    1    3    3    0  502 -0.87051375176E+02 -0.81713115473E+01 -0.79903786397E+01  0.87798396360E+02  0.00000000000E+00 0.  1.
         13    1    5    5    0    0 -0.18118966739E+03  0.13460928778E+03 -0.47150786107E+03  0.52275139309E+03  0.00000000000E+00 0. -1.
        -13    1    5    5    0    0 -0.97627260990E+02  0.14093120648E+03 -0.53433683605E+03  0.56116712431E+03  0.00000000000E+00 0.  1.
          1    1    6    6  503    0  0.39286810385E+03 -0.19348854290E+03 -0.19713703276E+04  0.20194266840E+04  0.00000000000E+00 0. -1.
         -1    1    6    6    0  503  0.10724338770E+02 -0.28212702546E+02 -0.18979780349E+03  0.19218265852E+03  0.00000000000E+00 0.  1.
<mgrwt>
<rscale>  0 0.12493717E+04</rscale>
<asrwt>0</asrwt>
<pdfrwt beam="1">  1        1 0.51544816E+00 0.12493717E+04</pdfrwt>
<pdfrwt beam="2">  1       -2 0.17918910E-01 0.12493717E+04</pdfrwt>
<totfact> 0.74538399E+00</totfact>
</mgrwt>
</event>
<event>
12    5  0.5197392E-008  0.1558607E+04  0.7818608E-02  0.8846389E-01
          1   -1    0    0  501    0  0.00000000000E+00  0.00000000000E+00  0.96521698797E+03  0.96521698797E+03  0.00000000000E+00 0. -1.
         -2   -1    0    0    0  501 -0.00000000000E+00 -0.00000000000E+00 -0.62919958758E+03  0.62919958758E+03  0.00000000000E+00 0.  1.
        -24    2    1    2    0    0  0.48178856032E+03 -0.18103116232E+02  0.36353078774E+03  0.60923196530E+03  0.81000087925E+02 0.  0.
        254    2    1    2    0    0 -0.48178856032E+03  0.18103116232E+02 -0.27513387346E+02  0.98518461025E+03  0.85871053919E+03 0.  0.
         23    2    4    4    0    0  0.12519318123E+03  0.28046928677E+02 -0.28014169324E+03  0.32133802199E+03  0.91207418824E+02 0.  0.
         23    2    4    4    0    0 -0.60698174155E+03 -0.99438124449E+01  0.25262830589E+03  0.66384658826E+03  0.91353805772E+02 0.  0.
          3    1    3    3  502    0  0.28207783983E+03 -0.28215248725E+02  0.25709515015E+03  0.38270344160E+03  0.00000000000E+00 0. -1.
         -2    1    3    3    0  502  0.19971072049E+03  0.10112132492E+02  0.10643563759E+03  0.22652852370E+03  0.00000000000E+00 0.  1.
         13    1    5    5    0    0  0.87874410756E+02 -0.24141575231E+02 -0.13783285221E+03  0.16523505339E+03  0.00000000000E+00 0.  1.
        -13    1    5    5    0    0  0.37318770478E+02  0.52188503908E+02 -0.14230884103E+03  0.15610296860E+03  0.00000000000E+00 0. -1.
          4    1    6    6  503    0 -0.39306500773E+03 -0.50078355875E+02  0.16457346972E+03  0.42905986641E+03  0.00000000000E+00 0. -1.
         -4    1    6    6    0  503 -0.21391673382E+03  0.40134543430E+02  0.88054836169E+02  0.23478672185E+03  0.00000000000E+00 0.  1.
<mgrwt>
<rscale>  0 0.15586072E+04</rscale>
<asrwt>0</asrwt>
<pdfrwt beam="1">  1        1 0.14849492E+00 0.15586072E+04</pdfrwt>
<pdfrwt beam="2">  1       -2 0.96799937E-01 0.15586072E+04</pdfrwt>
<totfact> 0.12132037E+01</totfact>
</mgrwt>
</event>
<event>
12    5  0.5197392E-008  0.1831110E+04  0.7818608E-02  0.8689928E-01
          1   -1    0    0  501    0  0.00000000000E+00  0.00000000000E+00  0.33444768638E+04  0.33444768638E+04  0.00000000000E+00 0. -1.
         -2   -1    0    0    0  501 -0.00000000000E+00 -0.00000000000E+00 -0.25063435183E+03  0.25063435183E+03  0.00000000000E+00 0.  1.
        -24    2    1    2    0    0  0.64020789066E+03  0.25529275069E+03  0.11714578014E+04  0.13614918953E+04  0.79412018421E+02 0.  0.
        254    2    1    2    0    0 -0.64020789066E+03 -0.25529275069E+03  0.19223847106E+04  0.22336193204E+04  0.90468323792E+03 0.  0.
         23    2    4    4    0    0  0.66209896975E+02  0.75370735646E+01 -0.46992095029E+02  0.12301127718E+03  0.92102982483E+02 0.  0.
         23    2    4    4    0    0 -0.70641778764E+03 -0.26282982426E+03  0.19693768056E+04  0.21106080432E+04  0.90087192496E+02 0.  0.
          3    1    3    3  502    0  0.49845873712E+03  0.17332191569E+03  0.84469193915E+03  0.99599501562E+03  0.00000000000E+00 0. -1.
         -4    1    3    3    0  502  0.14174915354E+03  0.81970835006E+02  0.32676586228E+03  0.36549687970E+03  0.00000000000E+00 0.  1.
         13    1    5    5    0    0  0.17689572337E+02  0.14291930034E+02 -0.66500470657E+02  0.70281525533E+02  0.00000000000E+00 0.  1.
        -13    1    5    5    0    0  0.48520324637E+02 -0.67548564696E+01  0.19508375628E+02  0.52729751645E+02  0.00000000000E+00 0. -1.
          3    1    6    6  503    0 -0.51448289791E+03 -0.17770873119E+03  0.13090557024E+04  0.14177093769E+04  0.00000000000E+00 0. -1.
         -3    1    6    6    0  503 -0.19193488973E+03 -0.85121093066E+02  0.66032110319E+03  0.69289866626E+03  0.00000000000E+00 0.  1.
<mgrwt>
<rscale>  0 0.18311098E+04</rscale>
<asrwt>0</asrwt>
<pdfrwt beam="1">  1        1 0.51453487E+00 0.18311098E+04</pdfrwt>
<pdfrwt beam="2">  1       -2 0.38559133E-01 0.18311098E+04</pdfrwt>
<totfact> 0.17431354E+00</totfact>
</mgrwt>
</event>
<event>
12    5  0.5197392E-008  0.1195405E+04  0.7818608E-02  0.9116888E-01
         -2   -1    0    0    0  501 -0.00000000000E+00  0.00000000000E+00  0.29328332211E+03  0.29328332211E+03  0.00000000000E+00 0.  1.
          1   -1    0    0  501    0  0.00000000000E+00 -0.00000000000E+00 -0.12180998882E+04  0.12180998882E+04  0.00000000000E+00 0. -1.
        -24    2    1    2    0    0  0.21918757776E+02 -0.94886700492E+00  0.11758397100E+03  0.14383085742E+03  0.79874858482E+02 0.  0.
        254    2    1    2    0    0 -0.21918757776E+02  0.94886700492E+00 -0.10424005371E+04  0.13675523529E+04  0.88494023858E+03 0.  0.
         23    2    4    4    0    0  0.22324264655E+02  0.19646784360E+03  0.72747044013E+02  0.23079399988E+03  0.94211207436E+02 0.  0.
         23    2    4    4    0    0 -0.44243022431E+02 -0.19551897660E+03 -0.11151475811E+04  0.11367583530E+04  0.92088599894E+02 0.  0.
          1    1    3    3  502    0  0.24674980068E+02 -0.38732414131E+01 -0.11742082436E+01  0.25004707665E+02  0.00000000000E+00 0. -1.
         -2    1    3    3    0  502 -0.27562222919E+01  0.29243744082E+01  0.11875817925E+03  0.11882614975E+03  0.00000000000E+00 0.  1.
         13    1    5    5    0    0  0.27821298561E+01  0.19901904147E+03  0.62751228556E+02  0.20869603686E+03  0.00000000000E+00 0.  1.
        -13    1    5    5    0    0  0.19542134799E+02 -0.25511978709E+01  0.99958154574E+01  0.22097963023E+02  0.00000000000E+00 0. -1.
          1    1    6    6  503    0 -0.18017124571E+02 -0.27783032281E+02 -0.64718234839E+02  0.72697754994E+02  0.00000000000E+00 0. -1.
         -1    1    6    6    0  503 -0.26225897860E+02 -0.16773594432E+03 -0.10504293463E+04  0.10640605980E+04  0.00000000000E+00 0.  1.
<mgrwt>
<rscale>  0 0.11954052E+04</rscale>
<asrwt>0</asrwt>
<pdfrwt beam="1">  1        1 0.18739998E+00 0.11954052E+04</pdfrwt>
<pdfrwt beam="2">  1       -2 0.45120511E-01 0.11954052E+04</pdfrwt>
<totfact> 0.41916232E+01</totfact>
</mgrwt>
</event>
<event>
12    5  0.5197392E-008  0.2039893E+04  0.7818608E-02  0.8588193E-01
         -2   -1    0    0    0  501 -0.00000000000E+00  0.00000000000E+00  0.10206034090E+04  0.10206034090E+04  0.00000000000E+00 0.  1.
          1   -1    0    0  501    0  0.00000000000E+00 -0.00000000000E+00 -0.10192900527E+04  0.10192900527E+04  0.00000000000E+00 0. -1.
        -24    2    1    2    0    0 -0.78880917225E+03  0.17699092460E+03  0.51768126240E+02  0.81403111722E+03  0.80131287868E+02 0.  0.
        254    2    1    2    0    0  0.78880917225E+03 -0.17699092460E+03 -0.50454770019E+02  0.12258623445E+04  0.92013428702E+03 0.  0.
         23    2    4    4    0    0  0.63141314895E+03  0.28306634684E+03 -0.16620208345E+03  0.71750989475E+03  0.91587090473E+02 0.  0.
         23    2    4    4    0    0  0.15739602330E+03 -0.46005727144E+03  0.11574731343E+03  0.50835244971E+03  0.92728482187E+02 0.  0.
          3    1    3    3  502    0 -0.43267442910E+03  0.10727263709E+03 -0.10161889099E+02  0.44588994635E+03  0.00000000000E+00 0. -1.
         -4    1    3    3    0  502 -0.35613474315E+03  0.69718287508E+02  0.61930015339E+02  0.36814117087E+03  0.00000000000E+00 0.  1.
         13    1    5    5    0    0  0.59853999339E+03  0.25307855882E+03 -0.17304526984E+03  0.67249055461E+03  0.00000000000E+00 0. -1.
        -13    1    5    5    0    0  0.32873155554E+02  0.29987788020E+02  0.68431863929E+01  0.45019340137E+02  0.00000000000E+00 0.  1.
          2    1    6    6  503    0  0.51510125634E+02 -0.69617886217E+02  0.45256326543E+02  0.97714268233E+02  0.00000000000E+00 0. -1.
         -2    1    6    6    0  503  0.10588589767E+03 -0.39043938522E+03  0.70490986886E+02  0.41063818148E+03  0.00000000000E+00 0.  1.
<mgrwt>
<rscale>  0 0.20398930E+04</rscale>
<asrwt>0</asrwt>
<pdfrwt beam="1">  1        1 0.15681385E+00 0.20398930E+04</pdfrwt>
<pdfrwt beam="2">  1       -2 0.15701591E+00 0.20398930E+04</pdfrwt>
<totfact> 0.31402559E+00</totfact>
</mgrwt>
</event>
<event>
12    5  0.5197392E-008  0.1772696E+04  0.7818608E-02  0.8720956E-01
          1   -1    0    0  501    0  0.00000000000E+00  0.00000000000E+00  0.89051003048E+03  0.89051003048E+03  0.00000000000E+00 0. -1.
         -2   -1    0    0    0  501 -0.00000000000E+00 -0.00000000000E+00 -0.88220512751E+03  0.88220512751E+03  0.00000000000E+00 0.  1.
        -24    2    1    2    0    0 -0.28386240949E+03  0.18612996399E+03 -0.56032321851E+03  0.65983610328E+03  0.78735906527E+02 0.  0.
        254    2    1    2    0    0  0.28386240949E+03 -0.18612996399E+03  0.56862812147E+03  0.11128790547E+04  0.89439343629E+03 0.  0.
         23    2    4    4    0    0 -0.29741010326E+03 -0.19402052685E+03  0.24669227913E+03  0.44193587648E+03  0.91397505346E+02 0.  0.
         23    2    4    4    0    0  0.58127251274E+03  0.78905628578E+01  0.32193584234E+03  0.67094317823E+03  0.92639445010E+02 0.  0.
          1    1    3    3  502    0  0.38546779508E+01 -0.29360583269E+00 -0.13343700023E+01  0.40896564394E+01  0.00000000000E+00 0. -1.
         -2    1    3    3    0  502 -0.28771708744E+03  0.18642356983E+03 -0.55898884850E+03  0.65574644684E+03  0.00000000000E+00 0.  1.
         13    1    5    5    0    0 -0.22469892671E+03 -0.18926627371E+03  0.19580569934E+03  0.35305977103E+03  0.00000000000E+00 0.  1.
        -13    1    5    5    0    0 -0.72711176546E+02 -0.47542531455E+01  0.50886579792E+02  0.88876105454E+02  0.00000000000E+00 0. -1.
          4    1    6    6  503    0  0.21178693473E+03  0.25403659451E+02  0.16247007721E+03  0.26813350709E+03  0.00000000000E+00 0. -1.
         -4    1    6    6    0  503  0.36948557802E+03 -0.17513096593E+02  0.15946576514E+03  0.40280967114E+03  0.00000000000E+00 0.  1.
<mgrwt>
<rscale>  0 0.17726957E+04</rscale>
<asrwt>0</asrwt>
<pdfrwt beam="1">  1        1 0.13700154E+00 0.17726957E+04</pdfrwt>
<pdfrwt beam="2">  1       -2 0.13572386E+00 0.17726957E+04</pdfrwt>
<totfact> 0.59744932E+00</totfact>
</mgrwt>
</event>
<event>
12    5  0.5197392E-008  0.1941915E+04  0.7818608E-02  0.8634269E-01
         -2   -1    0    0    0  501 -0.00000000000E+00  0.00000000000E+00  0.62577704364E+03  0.62577704364E+03  0.00000000000E+00 0.  1.
          1   -1    0    0  501    0  0.00000000000E+00 -0.00000000000E+00 -0.15065404685E+04  0.15065404685E+04  0.00000000000E+00 0. -1.
        -24    2    1    2    0    0  0.63141909368E+03  0.36347767825E+03 -0.11278291281E+03  0.74161156702E+03  0.80384304849E+02 0.  0.
        254    2    1    2    0    0 -0.63141909368E+03 -0.36347767825E+03 -0.76798051202E+03  0.13907059451E+04  0.90192176179E+03 0.  0.
         23    2    4    4    0    0  0.87325702941E+02 -0.21642855706E+03 -0.57204858116E+03  0.62592779175E+03  0.10039383733E+03 0.  0.
         23    2    4    4    0    0 -0.71874479662E+03 -0.14704912119E+03 -0.19593193086E+03  0.76477815333E+03  0.90987777025E+02 0.  0.
          3    1    3    3  502    0  0.21051963950E+03  0.13649997755E+03 -0.75247363186E+02  0.26194069587E+03  0.00000000000E+00 0. -1.
         -4    1    3    3    0  502  0.42089945418E+03  0.22697770070E+03 -0.37535549624E+02  0.47967087115E+03  0.00000000000E+00 0.  1.
         13    1    5    5    0    0  0.38963648591E+02 -0.19850988239E+03 -0.46523960542E+03  0.50731866689E+03  0.00000000000E+00 0. -1.
        -13    1    5    5    0    0  0.48362054350E+02 -0.17918674668E+02 -0.10680897574E+03  0.11860912486E+03  0.00000000000E+00 0.  1.
          3    1    6    6  503    0 -0.69794748961E+03 -0.15816292978E+03 -0.19087287859E+03  0.74066096589E+03  0.00000000000E+00 0. -1.
         -3    1    6    6    0  503 -0.20797307012E+02  0.11113808588E+02 -0.50590522680E+01  0.24117187443E+02  0.00000000000E+00 0.  1.
<mgrwt>
<rscale>  0 0.19419150E+04</rscale>
<asrwt>0</asrwt>
<pdfrwt beam="1">  1        1 0.23177545E+00 0.19419150E+04</pdfrwt>
<pdfrwt beam="2">  1       -2 0.96273393E-01 0.19419150E+04</pdfrwt>
<totfact> 0.47853164E+00</totfact>
</mgrwt>
</event>
<event>
12    5  0.5197392E-008  0.3118246E+04  0.7818608E-02  0.8210748E-01
         -2   -1    0    0    0  501 -0.00000000000E+00  0.00000000000E+00  0.19983797394E+04  0.19983797394E+04  0.00000000000E+00 0.  1.
          1   -1    0    0  501    0  0.00000000000E+00 -0.00000000000E+00 -0.12164174593E+04  0.12164174593E+04  0.00000000000E+00 0. -1.
        -24    2    1    2    0    0  0.11670337443E+03  0.12144296641E+04 -0.40948523153E+03  0.12893784188E+04  0.79746256467E+02 0.  0.
        254    2    1    2    0    0 -0.11670337443E+03 -0.12144296641E+04  0.11914475116E+04  0.19254187799E+04  0.89399732571E+03 0.  0.
         23    2    4    4    0    0 -0.49533358190E+03 -0.76522474418E+03  0.76366151714E+03  0.11927002283E+04  0.91818600934E+02 0.  0.
         23    2    4    4    0    0  0.37863020747E+03 -0.44920491991E+03  0.42778599446E+03  0.73271855153E+03  0.93432995353E+02 0.  0.
          3    1    3    3  502    0  0.11775704076E+03  0.10611828569E+04 -0.38009720788E+03  0.11333356360E+04  0.00000000000E+00 0. -1.
         -4    1    3    3    0  502 -0.10536663355E+01  0.15324680719E+03 -0.29388023645E+02  0.15604278279E+03  0.00000000000E+00 0.  1.
         13    1    5    5    0    0 -0.45987436133E+03 -0.70368692317E+03  0.73306473962E+03  0.11153670367E+04  0.00000000000E+00 0. -1.
        -13    1    5    5    0    0 -0.35459220564E+02 -0.61537821009E+02  0.30596777516E+02  0.77333191658E+02  0.00000000000E+00 0.  1.
          3    1    6    6  503    0  0.26650275131E+03 -0.28835113537E+03  0.23424078497E+03  0.45720765420E+03  0.00000000000E+00 0. -1.
         -3    1    6    6    0  503  0.11212745616E+03 -0.16085378455E+03  0.19354520949E+03  0.27551089733E+03  0.00000000000E+00 0.  1.
<mgrwt>
<rscale>  0 0.31182457E+04</rscale>
<asrwt>0</asrwt>
<pdfrwt beam="1">  1        1 0.18714115E+00 0.31182457E+04</pdfrwt>
<pdfrwt beam="2">  1       -2 0.30744304E+00 0.31182457E+04</pdfrwt>
<totfact> 0.21992957E-01</totfact>
</mgrwt>
</event>
<event>
12    5  0.5197392E-008  0.1606930E+04  0.7818608E-02  0.8816302E-01
         -2   -1    0    0    0  501 -0.00000000000E+00  0.00000000000E+00  0.11590534619E+04  0.11590534619E+04  0.00000000000E+00 0.  1.
          1   -1    0    0  501    0  0.00000000000E+00 -0.00000000000E+00 -0.55696794462E+03  0.55696794462E+03  0.00000000000E+00 0. -1.
        -24    2    1    2    0    0  0.46823623217E+03 -0.42505392232E+02  0.50968406309E+03  0.69798797865E+03  0.79733911779E+02 0.  0.
        254    2    1    2    0    0 -0.46823623217E+03  0.42505392232E+02  0.92401454163E+02  0.10180334279E+04  0.89822166196E+03 0.  0.
         23    2    4    4    0    0 -0.67685592231E+01  0.36755154493E+03  0.21069147143E+03  0.43386576303E+03  0.93320161934E+02 0.  0.
         23    2    4    4    0    0 -0.46146767294E+03 -0.32504615270E+03 -0.11829001726E+03  0.58416766482E+03  0.93015686238E+02 0.  0.
          1    1    3    3  502    0  0.57557924262E+02  0.20699830395E+02  0.72217315363E+02  0.94640045763E+02  0.00000000000E+00 0. -1.
         -2    1    3    3    0  502  0.41067830790E+03 -0.63205222627E+02  0.43746674772E+03  0.60334793288E+03  0.00000000000E+00 0.  1.
         13    1    5    5    0    0  0.26163937206E+01  0.20919276825E+03  0.66590259841E+02  0.21955118426E+03  0.00000000000E+00 0. -1.
        -13    1    5    5    0    0 -0.93849529437E+01  0.15835877668E+03  0.14410121159E+03  0.21431457877E+03  0.00000000000E+00 0.  1.
          2    1    6    6  503    0 -0.40311435589E+02 -0.18350895492E+02 -0.35230167572E+02  0.56594451245E+02  0.00000000000E+00 0.  1.
         -2    1    6    6    0  503 -0.42115623735E+03 -0.30669525721E+03 -0.83059849692E+02  0.52757321358E+03  0.00000000000E+00 0. -1.
<mgrwt>
<rscale>  0 0.16069295E+04</rscale>
<asrwt>0</asrwt>
<pdfrwt beam="1">  1        1 0.85687376E-01 0.16069295E+04</pdfrwt>
<pdfrwt beam="2">  1       -2 0.17831592E+00 0.16069295E+04</pdfrwt>
<totfact> 0.59502999E+00</totfact>
</mgrwt>
</event>
<event>
12    5  0.5197392E-008  0.1810861E+04  0.7818608E-02  0.8700545E-01
          1   -1    0    0  501    0  0.00000000000E+00  0.00000000000E+00  0.12013847517E+04  0.12013847517E+04  0.00000000000E+00 0. -1.
         -2   -1    0    0    0  501 -0.00000000000E+00 -0.00000000000E+00 -0.68238308707E+03  0.68238308707E+03  0.00000000000E+00 0.  1.
        -24    2    1    2    0    0  0.63769695486E+02 -0.82872426645E+02 -0.49852503488E+03  0.51560229861E+03  0.79900605562E+02 0.  0.
        254    2    1    2    0    0 -0.63769695486E+02  0.82872426645E+02  0.10175266996E+04  0.13681655402E+04  0.90861540155E+03 0.  0.
         23    2    4    4    0    0 -0.31229244876E+03  0.27248499398E+03  0.94375326602E+03  0.10344826048E+04  0.87803115297E+02 0.  0.
         23    2    4    4    0    0  0.24852275328E+03 -0.18961256734E+03  0.73773433534E+02  0.33368293538E+03  0.90472632770E+02 0.  0.
          1    1    3    3  502    0  0.68496940659E+02 -0.36200647225E+02 -0.22209509499E+03  0.23522021375E+03  0.00000000000E+00 0. -1.
         -2    1    3    3    0  502 -0.47272451737E+01 -0.46671779420E+02 -0.27642993990E+03  0.28038208486E+03  0.00000000000E+00 0.  1.
         13    1    5    5    0    0 -0.31371491119E+03  0.25053668143E+03  0.88763694452E+03  0.97420994633E+03  0.00000000000E+00 0.  1.
        -13    1    5    5    0    0  0.14224624307E+01  0.21948312552E+02  0.56116321502E+02  0.60272658496E+02  0.00000000000E+00 0. -1.
          1    1    6    6  503    0  0.21943670674E+02 -0.55263994059E+02 -0.22907123160E+01  0.59505302998E+02  0.00000000000E+00 0. -1.
         -1    1    6    6    0  503  0.22657908260E+03 -0.13434857328E+03  0.76064145850E+02  0.27417763238E+03  0.00000000000E+00 0.  1.
<mgrwt>
<rscale>  0 0.18108613E+04</rscale>
<asrwt>0</asrwt>
<pdfrwt beam="1">  1        1 0.18482842E+00 0.18108613E+04</pdfrwt>
<pdfrwt beam="2">  1       -2 0.10498201E+00 0.18108613E+04</pdfrwt>
<totfact> 0.64829248E+00</totfact>
</mgrwt>
</event>
<event>
12    5  0.5197392E-008  0.1371494E+04  0.7818608E-02  0.8974715E-01
          1   -1    0    0  501    0  0.00000000000E+00  0.00000000000E+00  0.84994585724E+03  0.84994585724E+03  0.00000000000E+00 0. -1.
         -2   -1    0    0    0  501 -0.00000000000E+00 -0.00000000000E+00 -0.55326967070E+03  0.55326967070E+03  0.00000000000E+00 0.  1.
        -24    2    1    2    0    0 -0.19061923758E+03 -0.19302265939E+03 -0.19226811872E+03  0.34117163126E+03  0.76404265099E+02 0.  0.
        254    2    1    2    0    0  0.19061923758E+03  0.19302265939E+03  0.48894430526E+03  0.10620438967E+04  0.90292705357E+03 0.  0.
         23    2    4    4    0    0  0.38295915147E+03 -0.11896540185E+03  0.54074183636E+03  0.68004388827E+03  0.96163807351E+02 0.  0.
         23    2    4    4    0    0 -0.19233991390E+03  0.31198806124E+03 -0.51797531100E+02  0.38200000842E+03  0.94391892524E+02 0.  0.
          3    1    3    3  502    0 -0.65697413421E+01 -0.43682613583E+02 -0.38918149688E+02  0.58872358590E+02  0.00000000000E+00 0. -1.
         -4    1    3    3    0  502 -0.18404949623E+03 -0.14934004581E+03 -0.15334996903E+03  0.28229927267E+03  0.00000000000E+00 0.  1.
         13    1    5    5    0    0  0.33009216173E+03 -0.11483404581E+03  0.51146433853E+03  0.61947030833E+03  0.00000000000E+00 0. -1.
        -13    1    5    5    0    0  0.52866989745E+02 -0.41313560330E+01  0.29277497832E+02  0.60573579940E+02  0.00000000000E+00 0.  1.
          3    1    6    6  503    0 -0.17404228102E+03  0.25760110643E+03 -0.10065569154E+02  0.31104720108E+03  0.00000000000E+00 0. -1.
         -3    1    6    6    0  503 -0.18297632876E+02  0.54386954807E+02 -0.41731961945E+02  0.70952807343E+02  0.00000000000E+00 0.  1.
<mgrwt>
<rscale>  0 0.13714945E+04</rscale>
<asrwt>0</asrwt>
<pdfrwt beam="1">  1        1 0.13076090E+00 0.13714945E+04</pdfrwt>
<pdfrwt beam="2">  1       -2 0.85118411E-01 0.13714945E+04</pdfrwt>
<totfact> 0.20602600E+01</totfact>
</mgrwt>
</event>
<event>
12    5  0.5197392E-008  0.2700525E+04  0.7818608E-02  0.8334835E-01
          1   -1    0    0  501    0  0.00000000000E+00  0.00000000000E+00  0.14759936238E+04  0.14759936238E+04  0.00000000000E+00 0. -1.
         -2   -1    0    0    0  501 -0.00000000000E+00 -0.00000000000E+00 -0.12352416314E+04  0.12352416314E+04  0.00000000000E+00 0.  1.
        -24    2    1    2    0    0  0.41480697377E+01  0.51961563022E+03  0.11929203922E+04  0.13036113695E+04  0.79535721886E+02 0.  0.
        254    2    1    2    0    0 -0.41480697377E+01 -0.51961563022E+03 -0.95216839975E+03  0.14076238856E+04  0.89708568835E+03 0.  0.
         23    2    4    4    0    0 -0.24995923159E+02 -0.24741902861E+03 -0.10661137126E+04  0.10986178579E+04  0.92313473953E+02 0.  0.
         23    2    4    4    0    0  0.20847853421E+02 -0.27219660161E+03  0.11394531286E+03  0.30900602777E+03  0.89306035373E+02 0.  0.
          3    1    3    3  502    0  0.37107000036E+02  0.14829244624E+03  0.33999665950E+03  0.37278050852E+03  0.00000000000E+00 0. -1.
         -4    1    3    3    0  502 -0.32958930298E+02  0.37132318398E+03  0.85292373267E+03  0.93083086101E+03  0.00000000000E+00 0.  1.
         13    1    5    5    0    0 -0.15112597259E+02 -0.25160298094E+03 -0.98244409226E+03  0.10142627101E+04  0.00000000000E+00 0. -1.
        -13    1    5    5    0    0 -0.98833259001E+01  0.41839523251E+01 -0.83669620352E+02  0.84355147785E+02  0.00000000000E+00 0.  1.
          3    1    6    6  503    0  0.50866709202E+02 -0.15400452369E+03  0.87276427852E+02  0.18417923412E+03  0.00000000000E+00 0. -1.
         -3    1    6    6    0  503 -0.30018855781E+02 -0.11819207792E+03  0.26668885013E+02  0.12482679365E+03  0.00000000000E+00 0.  1.
<mgrwt>
<rscale>  0 0.27005250E+04</rscale>
<asrwt>0</asrwt>
<pdfrwt beam="1">  1        1 0.22707594E+00 0.27005250E+04</pdfrwt>
<pdfrwt beam="2">  1       -2 0.19003717E+00 0.27005250E+04</pdfrwt>
<totfact> 0.80742733E-01</totfact>
</mgrwt>
</event>
<event>
12    5  0.5197392E-008  0.1459064E+04  0.7818608E-02  0.8912141E-01
          1   -1    0    0  501    0  0.00000000000E+00  0.00000000000E+00  0.22868878228E+04  0.22868878228E+04  0.00000000000E+00 0. -1.
         -2   -1    0    0    0  501 -0.00000000000E+00 -0.00000000000E+00 -0.23272541222E+03  0.23272541222E+03  0.00000000000E+00 0.  1.
        -24    2    1    2    0    0 -0.24183791760E+03  0.29386936332E+03  0.23039952932E+03  0.45198043720E+03  0.79734505761E+02 0.  0.
        254    2    1    2    0    0  0.24183791760E+03 -0.29386936332E+03  0.18237628812E+04  0.20676327978E+04  0.89674386446E+03 0.  0.
         23    2    4    4    0    0  0.39351278452E+03  0.57093781946E+02  0.33488866609E+03  0.52772592381E+03  0.90731584727E+02 0.  0.
         23    2    4    4    0    0 -0.15167486692E+03 -0.35096314527E+03  0.14888742151E+04  0.15399068740E+04  0.91577057271E+02 0.  0.
          1    1    3    3  502    0 -0.81807228848E+01  0.34324122524E+02  0.33726032585E+01  0.35446354773E+02  0.00000000000E+00 0. -1.
         -2    1    3    3    0  502 -0.23365719472E+03  0.25954524080E+03  0.22702692606E+03  0.41653408242E+03  0.00000000000E+00 0.  1.
         13    1    5    5    0    0  0.13399962110E+03  0.61906609726E+02  0.13627859698E+03  0.20089843897E+03  0.00000000000E+00 0.  1.
        -13    1    5    5    0    0  0.25951316342E+03 -0.48128277801E+01  0.19861006911E+03  0.32682748484E+03  0.00000000000E+00 0. -1.
          1    1    6    6  503    0 -0.13975139923E+03 -0.29378498833E+03  0.11148154336E+04  0.11613154283E+04  0.00000000000E+00 0. -1.
         -1    1    6    6    0  503 -0.11923467688E+02 -0.57178156939E+02  0.37405878149E+03  0.37859144565E+03  0.00000000000E+00 0.  1.
<mgrwt>
<rscale>  0 0.14590640E+04</rscale>
<asrwt>0</asrwt>
<pdfrwt beam="1">  1        1 0.35182888E+00 0.14590640E+04</pdfrwt>
<pdfrwt beam="2">  1       -2 0.35803911E-01 0.14590640E+04</pdfrwt>
<totfact> 0.11896383E+01</totfact>
</mgrwt>
</event>
<event>
12    5  0.5197392E-008  0.1778585E+04  0.7818608E-02  0.8717771E-01
          1   -1    0    0  501    0  0.00000000000E+00  0.00000000000E+00  0.18086787013E+04  0.18086787013E+04  0.00000000000E+00 0. -1.
         -2   -1    0    0    0  501 -0.00000000000E+00 -0.00000000000E+00 -0.43724803807E+03  0.43724803807E+03  0.00000000000E+00 0.  1.
        -24    2    1    2    0    0  0.66240312939E+03 -0.11180785786E+02  0.53474197489E+03  0.85505221891E+03  0.79135336942E+02 0.  0.
        254    2    1    2    0    0 -0.66240312939E+03  0.11180785786E+02  0.83668868835E+03  0.13908745205E+04  0.89195350477E+03 0.  0.
         23    2    4    4    0    0  0.18230369352E+02  0.27788523097E+03  0.50203719021E+03  0.58142492206E+03  0.91983975123E+02 0.  0.
         23    2    4    4    0    0 -0.68063349874E+03 -0.26670444519E+03  0.33465149814E+03  0.80944959840E+03  0.93935118318E+02 0.  0.
          3    1    3    3  502    0  0.15274376964E+03 -0.12319957171E+02  0.16646126108E+03  0.22625603185E+03  0.00000000000E+00 0. -1.
         -4    1    3    3    0  502  0.50965935975E+03  0.11391713850E+01  0.36828071381E+03  0.62879618706E+03  0.00000000000E+00 0.  1.
         13    1    5    5    0    0 -0.26468325301E+02  0.13849626627E+03  0.18851193885E+03  0.23541142518E+03  0.00000000000E+00 0. -1.
        -13    1    5    5    0    0  0.44698694653E+02  0.13938896470E+03  0.31352525136E+03  0.34601349688E+03  0.00000000000E+00 0.  1.
          2    1    6    6  503    0 -0.55494302369E+03 -0.23175456103E+03  0.23663548267E+03  0.64627261102E+03  0.00000000000E+00 0. -1.
         -2    1    6    6    0  503 -0.12569047505E+03 -0.34949884153E+02  0.98016015467E+02  0.16317698738E+03  0.00000000000E+00 0.  1.
<mgrwt>
<rscale>  0 0.17785851E+04</rscale>
<asrwt>0</asrwt>
<pdfrwt beam="1">  1        1 0.27825826E+00 0.17785851E+04</pdfrwt>
<pdfrwt beam="2">  1       -2 0.67268930E-01 0.17785851E+04</pdfrwt>
<totfact> 0.67615339E+00</totfact>
</mgrwt>
</event>
<event>
12    5  0.5197392E-008  0.1659905E+04  0.7818608E-02  0.8784568E-01
         -2   -1    0    0    0  501 -0.00000000000E+00  0.00000000000E+00  0.71964743686E+03  0.71964743686E+03  0.00000000000E+00 0.  1.
          1   -1    0    0  501    0  0.00000000000E+00 -0.00000000000E+00 -0.95716468518E+03  0.95716468518E+03  0.00000000000E+00 0. -1.
        -24    2    1    2    0    0  0.49181432510E+03  0.13528884442E+03 -0.36886890570E+03  0.63481927453E+03  0.82139149821E+02 0.  0.
        254    2    1    2    0    0 -0.49181432510E+03 -0.13528884442E+03  0.13135165738E+03  0.10419928475E+04  0.89906141868E+03 0.  0.
         23    2    4    4    0    0 -0.22017472722E+02 -0.61501571300E+02 -0.34458636526E+03  0.36303897737E+03  0.93756725566E+02 0.  0.
         23    2    4    4    0    0 -0.46979685237E+03 -0.73787273119E+02  0.47593802264E+03  0.67895387013E+03  0.91146652149E+02 0.  0.
          1    1    3    3  502    0  0.44244050280E+03  0.95101242259E+02 -0.33182090872E+03  0.56116215148E+03  0.00000000000E+00 0. -1.
         -2    1    3    3    0  502  0.49373822300E+02  0.40187602159E+02 -0.37047996982E+02  0.73657123051E+02  0.00000000000E+00 0.  1.
         13    1    5    5    0    0 -0.28554839206E+02 -0.39521326178E+02 -0.59027513083E+02  0.76560834411E+02  0.00000000000E+00 0. -1.
        -13    1    5    5    0    0  0.65373664831E+01 -0.21980245121E+02 -0.28555885218E+03  0.28647814296E+03  0.00000000000E+00 0.  1.
          1    1    6    6  503    0 -0.17257938341E+03 -0.20740665676E+02  0.11512911833E+03  0.20849108537E+03  0.00000000000E+00 0. -1.
         -1    1    6    6    0  503 -0.29721746897E+03 -0.53046607442E+02  0.36080890431E+03  0.47046278476E+03  0.00000000000E+00 0.  1.
<mgrwt>
<rscale>  0 0.16599050E+04</rscale>
<asrwt>0</asrwt>
<pdfrwt beam="1">  1        1 0.14725610E+00 0.16599050E+04</pdfrwt>
<pdfrwt beam="2">  1       -2 0.11071499E+00 0.16599050E+04</pdfrwt>
<totfact> 0.88539434E+00</totfact>
</mgrwt>
</event>
<event>
12    5  0.5197392E-008  0.1129596E+04  0.7818608E-02  0.9176817E-01
         -4   -1    0    0    0  501 -0.00000000000E+00  0.00000000000E+00  0.11189783335E+03  0.11189783335E+03  0.00000000000E+00 0.  1.
          1   -1    0    0  501    0  0.00000000000E+00 -0.00000000000E+00 -0.28507844512E+04  0.28507844512E+04  0.00000000000E+00 0. -1.
        -24    2    1    2    0    0  0.61414512800E+02 -0.12325940493E+03 -0.85676953667E+03  0.87134065228E+03  0.78840789353E+02 0.  0.
        254    2    1    2    0    0 -0.61414512800E+02  0.12325940493E+03 -0.18821170811E+04  0.20913416322E+04  0.90132152548E+03 0.  0.
         23    2    4    4    0    0  0.81656774972E+02  0.98145890867E+02 -0.19111671549E+04  0.19174878168E+04  0.88877382298E+02 0.  0.
         23    2    4    4    0    0 -0.14307128777E+03  0.25113514064E+02  0.29050073719E+02  0.17385381540E+03  0.91000881168E+02 0.  0.
          3    1    3    3  502    0  0.18273709619E+02 -0.68045556467E+02 -0.63167984305E+03  0.63559700308E+03  0.00000000000E+00 0. -1.
         -4    1    3    3    0  502  0.43140803181E+02 -0.55213848464E+02 -0.22508969362E+03  0.23574364920E+03  0.00000000000E+00 0.  1.
         13    1    5    5    0    0  0.96389829241E+02  0.77402072514E+02 -0.17461714875E+04  0.17505419000E+04  0.00000000000E+00 0. -1.
        -13    1    5    5    0    0 -0.14733054268E+02  0.20743818352E+02 -0.16499566734E+03  0.16694591678E+03  0.00000000000E+00 0.  1.
          1    1    6    6  503    0  0.10856908576E+02  0.58166489916E+01  0.12975034924E+02  0.17890148143E+02  0.00000000000E+00 0.  1.
         -1    1    6    6    0  503 -0.15392819635E+03  0.19296865073E+02  0.16075038795E+02  0.15596366726E+03  0.00000000000E+00 0. -1.
<mgrwt>
<rscale>  0 0.11295957E+04</rscale>
<asrwt>0</asrwt>
<pdfrwt beam="1">  1        1 0.43858222E+00 0.11295957E+04</pdfrwt>
<pdfrwt beam="2">  1       -4 0.17215051E-01 0.11295957E+04</pdfrwt>
<totfact> 0.11771007E+01</totfact>
</mgrwt>
</event>
<event>
12    5  0.5197392E-008  0.1525915E+04  0.7818608E-02  0.8867401E-01
          1   -1    0    0  501    0  0.00000000000E+00  0.00000000000E+00  0.26649330024E+04  0.26649330024E+04  0.00000000000E+00 0. -1.
         -2   -1    0    0    0  501 -0.00000000000E+00 -0.00000000000E+00 -0.21843096395E+03  0.21843096395E+03  0.00000000000E+00 0.  1.
        -24    2    1    2    0    0  0.30524256986E+03  0.18555725877E+03  0.15843280252E+03  0.39940291781E+03  0.82566428456E+02 0.  0.
        254    2    1    2    0    0 -0.30524256986E+03 -0.18555725877E+03  0.22880692360E+04  0.24839610486E+04  0.89844150593E+03 0.  0.
         23    2    4    4    0    0 -0.25356481019E+03 -0.17789829175E+03  0.17210760367E+03  0.36531585123E+03  0.88835402554E+02 0.  0.
         23    2    4    4    0    0 -0.51677759668E+02 -0.76589670194E+01  0.21159616323E+04  0.21186451973E+04  0.92922506967E+02 0.  0.
          1    1    3    3  502    0  0.54318015405E+02  0.97984448066E+01  0.49846965076E+02  0.74371878055E+02  0.00000000000E+00 0. -1.
         -2    1    3    3    0  502  0.25092455445E+03  0.17575881396E+03  0.10858583745E+03  0.32503103976E+03  0.00000000000E+00 0.  1.
         13    1    5    5    0    0 -0.12725905732E+03 -0.10884392712E+03  0.13894536840E+03  0.21759522867E+03  0.00000000000E+00 0. -1.
        -13    1    5    5    0    0 -0.12630575287E+03 -0.69054364633E+02  0.33162235278E+02  0.14772062257E+03  0.00000000000E+00 0.  1.
          2    1    6    6  503    0 -0.17984070524E+02 -0.35612644513E+02  0.37183546833E+03  0.37396965485E+03  0.00000000000E+00 0.  1.
         -2    1    6    6    0  503 -0.33693689144E+02  0.27953677493E+02  0.17441261640E+04  0.17446755425E+04  0.00000000000E+00 0. -1.
<mgrwt>
<rscale>  0 0.15259147E+04</rscale>
<asrwt>0</asrwt>
<pdfrwt beam="1">  1        1 0.40998967E+00 0.15259147E+04</pdfrwt>
<pdfrwt beam="2">  1       -2 0.33604765E-01 0.15259147E+04</pdfrwt>
<totfact> 0.73159445E+00</totfact>
</mgrwt>
</event>
<event>
12    5  0.5197392E-008  0.1423267E+04  0.7818608E-02  0.8937147E-01
          1   -1    0    0  501    0  0.00000000000E+00  0.00000000000E+00  0.31217222214E+04  0.31217222214E+04  0.00000000000E+00 0. -1.
         -2   -1    0    0    0  501 -0.00000000000E+00 -0.00000000000E+00 -0.16222533843E+03  0.16222533843E+03  0.00000000000E+00 0.  1.
        -24    2    1    2    0    0  0.24857395933E+02  0.13146453380E+01  0.18985187432E+04  0.19003296749E+04  0.79119127259E+02 0.  0.
        254    2    1    2    0    0 -0.24857395933E+02 -0.13146453380E+01  0.10609781397E+04  0.13836178850E+04  0.88775234172E+03 0.  0.
         23    2    4    4    0    0  0.20296123094E+03  0.37142144130E+03  0.61716275447E+03  0.75441752931E+03  0.95440005816E+02 0.  0.
         23    2    4    4    0    0 -0.22781862688E+03 -0.37273608664E+03  0.44381538528E+03  0.62920035568E+03  0.89930386072E+02 0.  0.
          1    1    3    3  502    0 -0.63403107887E+01  0.73996348981E+00  0.16287287818E+04  0.16287412906E+04  0.00000000000E+00 0. -1.
         -2    1    3    3    0  502  0.31197706722E+02  0.57468184819E+00  0.26978996140E+03  0.27158838420E+03  0.00000000000E+00 0.  1.
         13    1    5    5    0    0  0.17191447850E+03  0.25706279003E+03  0.49910449113E+03  0.58714662479E+03  0.00000000000E+00 0.  1.
        -13    1    5    5    0    0  0.31046752442E+02  0.11435865127E+03  0.11805826333E+03  0.16727090452E+03  0.00000000000E+00 0. -1.
          4    1    6    6  503    0 -0.40051303775E+02 -0.51018769729E+02  0.11642721639E+03  0.13327534849E+03  0.00000000000E+00 0. -1.
         -4    1    6    6    0  503 -0.18776732310E+03 -0.32171731691E+03  0.32738816889E+03  0.49592500719E+03  0.00000000000E+00 0.  1.
<mgrwt>
<rscale>  0 0.14232673E+04</rscale>
<asrwt>0</asrwt>
<pdfrwt beam="1">  1        1 0.48026491E+00 0.14232673E+04</pdfrwt>
<pdfrwt beam="2">  1       -2 0.24957747E-01 0.14232673E+04</pdfrwt>
<totfact> 0.60337992E+00</totfact>
</mgrwt>
</event>
<event>
12    5  0.5197392E-008  0.1462458E+04  0.7818608E-02  0.8909809E-01
         -2   -1    0    0    0  501 -0.00000000000E+00  0.00000000000E+00  0.10656078759E+04  0.10656078759E+04  0.00000000000E+00 0.  1.
          1   -1    0    0  501    0  0.00000000000E+00 -0.00000000000E+00 -0.50177567983E+03  0.50177567983E+03  0.00000000000E+00 0. -1.
        -24    2    1    2    0    0 -0.17962557852E+03 -0.13045651181E+03  0.59438175226E+03  0.64000078104E+03  0.83827694627E+02 0.  0.
        254    2    1    2    0    0  0.17962557852E+03  0.13045651181E+03 -0.30549556141E+02  0.92738277473E+03  0.89990070872E+03 0.  0.
         23    2    4    4    0    0  0.52995068340E+03  0.43347350304E+01  0.28827118172E+02  0.53855566079E+03  0.91349221483E+02 0.  0.
         23    2    4    4    0    0 -0.35032510488E+03  0.12612177678E+03 -0.59376674313E+02  0.38882711394E+03  0.95008175392E+02 0.  0.
          1    1    3    3  502    0 -0.40757763136E+01  0.25741556381E+01  0.83761855724E+02  0.83900457115E+02  0.00000000000E+00 0. -1.
         -2    1    3    3    0  502 -0.17554980221E+03 -0.13303066745E+03  0.51061989653E+03  0.55610032393E+03  0.00000000000E+00 0.  1.
         13    1    5    5    0    0  0.39883335098E+03  0.42830511843E+02  0.20451943694E+02  0.40164757760E+03  0.00000000000E+00 0. -1.
        -13    1    5    5    0    0  0.13111733243E+03 -0.38495776813E+02  0.83751744779E+01  0.13690808319E+03  0.00000000000E+00 0.  1.
          2    1    6    6  503    0 -0.73392989349E+02  0.59796121218E+02 -0.41902907698E+02  0.10352758411E+03  0.00000000000E+00 0.  1.
         -2    1    6    6    0  503 -0.27693211553E+03  0.66325655565E+02 -0.17473766614E+02  0.28529952983E+03  0.00000000000E+00 0. -1.
<mgrwt>
<rscale>  0 0.14624584E+04</rscale>
<asrwt>0</asrwt>
<pdfrwt beam="1">  1        1 0.77196258E-01 0.14624584E+04</pdfrwt>
<pdfrwt beam="2">  1       -2 0.16393967E+00 0.14624584E+04</pdfrwt>
<totfact> 0.88116245E+00</totfact>
</mgrwt>
</event>
<event>
12    5  0.5197392E-008  0.1732029E+04  0.7818608E-02  0.8743305E-01
          1   -1    0    0  501    0  0.00000000000E+00  0.00000000000E+00  0.21552082910E+04  0.21552082910E+04  0.00000000000E+00 0. -1.
         -2   -1    0    0    0  501 -0.00000000000E+00 -0.00000000000E+00 -0.34798548993E+03  0.34798548993E+03  0.00000000000E+00 0.  1.
        -24    2    1    2    0    0 -0.14496539597E+03 -0.12815217068E+03  0.15105962537E+04  0.15250372333E+04  0.79997352105E+02 0.  0.
        254    2    1    2    0    0  0.14496539597E+03  0.12815217068E+03  0.29662654742E+03  0.97815654770E+03  0.91179217933E+03 0.  0.
         23    2    4    4    0    0  0.34046607781E+03  0.43086652092E+03  0.13881177207E+03  0.57396090217E+03  0.92732411675E+02 0.  0.
         23    2    4    4    0    0 -0.19550068184E+03 -0.30271435024E+03  0.15781477535E+03  0.40419564552E+03  0.92801519908E+02 0.  0.
          3    1    3    3  502    0 -0.48191749942E+02 -0.95675094123E+02  0.80414906237E+03  0.81125327913E+03  0.00000000000E+00 0. -1.
         -4    1    3    3    0  502 -0.96773646026E+02 -0.32477076554E+02  0.70644719131E+03  0.71378395414E+03  0.00000000000E+00 0.  1.
         13    1    5    5    0    0  0.42630040426E+02  0.19845847474E+02  0.26934882424E+02  0.54191013091E+02  0.00000000000E+00 0. -1.
        -13    1    5    5    0    0  0.29783603738E+03  0.41102067344E+03  0.11187688964E+03  0.51976988908E+03  0.00000000000E+00 0.  1.
          3    1    6    6  503    0 -0.13943145669E+03 -0.13286783361E+03  0.93758138133E+02  0.21420919865E+03  0.00000000000E+00 0. -1.
         -3    1    6    6    0  503 -0.56069225151E+02 -0.16984651663E+03  0.64056637222E+02  0.18998644687E+03  0.00000000000E+00 0.  1.
<mgrwt>
<rscale>  0 0.17320291E+04</rscale>
<asrwt>0</asrwt>
<pdfrwt beam="1">  1        1 0.33157050E+00 0.17320291E+04</pdfrwt>
<pdfrwt beam="2">  1       -2 0.53536230E-01 0.17320291E+04</pdfrwt>
<totfact> 0.64073662E+00</totfact>
</mgrwt>
</event>
<event>
12    5  0.5197392E-008  0.1415324E+04  0.7818608E-02  0.8942800E-01
         -2   -1    0    0    0  501 -0.00000000000E+00  0.00000000000E+00  0.26892743677E+03  0.26892743677E+03  0.00000000000E+00 0.  1.
          1   -1    0    0  501    0  0.00000000000E+00 -0.00000000000E+00 -0.18621586069E+04  0.18621586069E+04  0.00000000000E+00 0. -1.
        -24    2    1    2    0    0 -0.47410674844E+02  0.36806141075E+03 -0.24131918014E+03  0.44937081711E+03  0.77344750255E+02 0.  0.
        254    2    1    2    0    0  0.47410674844E+02 -0.36806141075E+03 -0.13519119900E+04  0.16817152265E+04  0.92886118467E+03 0.  0.
         23    2    4    4    0    0 -0.42177472027E+02 -0.41424120695E+03 -0.12077377140E+03  0.44320058213E+03  0.92009431361E+02 0.  0.
         23    2    4    4    0    0  0.89588146871E+02  0.46179796196E+02 -0.12311382186E+04  0.12385146444E+04  0.89769714040E+02 0.  0.
          3    1    3    3  502    0 -0.29224955602E+02  0.29909529022E+03 -0.22701510945E+03  0.37662707096E+03  0.00000000000E+00 0. -1.
         -4    1    3    3    0  502 -0.18185719243E+02  0.68966120533E+02 -0.14304070693E+02  0.72743746151E+02  0.00000000000E+00 0.  1.
         13    1    5    5    0    0 -0.54431242656E+02 -0.16596190733E+03 -0.76625707752E+02  0.19072916387E+03  0.00000000000E+00 0.  1.
        -13    1    5    5    0    0  0.12253770629E+02 -0.24827929961E+03 -0.44148063643E+02  0.25247141825E+03  0.00000000000E+00 0. -1.
          4    1    6    6  503    0 -0.14845096403E+02 -0.82159531034E+01 -0.13154726415E+03  0.13263695366E+03  0.00000000000E+00 0. -1.
         -4    1    6    6    0  503  0.10443324327E+03  0.54395749299E+02 -0.10995909544E+04  0.11058776908E+04  0.00000000000E+00 0.  1.
<mgrwt>
<rscale>  0 0.14153240E+04</rscale>
<asrwt>0</asrwt>
<pdfrwt beam="1">  1        1 0.28648594E+00 0.14153240E+04</pdfrwt>
<pdfrwt beam="2">  1       -2 0.41373452E-01 0.14153240E+04</pdfrwt>
<totfact> 0.17496819E+01</totfact>
</mgrwt>
</event>
<event>
12    5  0.5197392E-008  0.1748491E+04  0.7818608E-02  0.8734181E-01
         -2   -1    0    0    0  501 -0.00000000000E+00  0.00000000000E+00  0.12849498768E+04  0.12849498768E+04  0.00000000000E+00 0.  1.
          1   -1    0    0  501    0  0.00000000000E+00 -0.00000000000E+00 -0.59481356594E+03  0.59481356594E+03  0.00000000000E+00 0. -1.
        -24    2    1    2    0    0 -0.18167286942E+03  0.26930553726E+03 -0.32794635826E+03  0.46978882473E+03  0.87305338098E+02 0.  0.
        254    2    1    2    0    0  0.18167286942E+03 -0.26930553726E+03  0.10180826691E+04  0.14099746180E+04  0.91978562633E+03 0.  0.
         23    2    4    4    0    0  0.18596905242E+03 -0.34374034032E+03  0.11587858882E+04  0.12263758775E+04  0.92038839865E+02 0.  0.
         23    2    4    4    0    0 -0.42961830068E+01  0.74434803063E+02 -0.14070321909E+03  0.18359874056E+03  0.91389849428E+02 0.  0.
          3    1    3    3  502    0 -0.14450164907E+03  0.23038391740E+03 -0.22239294952E+03  0.35130627660E+03  0.00000000000E+00 0. -1.
         -4    1    3    3    0  502 -0.37171220345E+02  0.38921619858E+02 -0.10555340873E+03  0.11848254812E+03  0.00000000000E+00 0.  1.
         13    1    5    5    0    0  0.33593898366E+02 -0.34659155811E+02  0.24638273136E+03  0.25106624106E+03  0.00000000000E+00 0.  1.
        -13    1    5    5    0    0  0.15237515406E+03 -0.30908118451E+03  0.91240315686E+03  0.97530963639E+03  0.00000000000E+00 0. -1.
          2    1    6    6  503    0  0.31977791558E+02  0.72744715498E+02 -0.11192535331E+03  0.13726491722E+03  0.00000000000E+00 0. -1.
         -2    1    6    6    0  503 -0.36273974565E+02  0.16900875658E+01 -0.28777865779E+02  0.46333823342E+02  0.00000000000E+00 0.  1.
<mgrwt>
<rscale>  0 0.17484915E+04</rscale>
<asrwt>0</asrwt>
<pdfrwt beam="1">  1        1 0.91509779E-01 0.17484915E+04</pdfrwt>
<pdfrwt beam="2">  1       -2 0.19768460E+00 0.17484915E+04</pdfrwt>
<totfact> 0.39600944E+00</totfact>
</mgrwt>
</event>
<event>
12    5  0.5197392E-008  0.2063215E+04  0.7818608E-02  0.8577623E-01
         -2   -1    0    0    0  501 -0.00000000000E+00  0.00000000000E+00  0.16211293700E+04  0.16211293700E+04  0.00000000000E+00 0.  1.
          1   -1    0    0  501    0  0.00000000000E+00 -0.00000000000E+00 -0.65646448939E+03  0.65646448939E+03  0.00000000000E+00 0. -1.
        -24    2    1    2    0    0 -0.49568526687E+01 -0.23906534694E+03  0.12734276426E+04  0.12981220093E+04  0.79536026798E+02 0.  0.
        254    2    1    2    0    0  0.49568526687E+01  0.23906534694E+03 -0.30876276197E+03  0.97947185012E+03  0.89825043919E+03 0.  0.
         23    2    4    4    0    0  0.33348309486E+03  0.40759523978E+03 -0.26090293567E+03  0.59601105254E+03  0.99065528121E+02 0.  0.
         23    2    4    4    0    0 -0.32852624219E+03 -0.16852989284E+03 -0.47859826303E+02  0.38346079758E+03  0.91759488459E+02 0.  0.
          3    1    3    3  502    0 -0.37013934977E+02 -0.14103182695E+03  0.64402651305E+03  0.66032579619E+03  0.00000000000E+00 0. -1.
         -4    1    3    3    0  502  0.32057082309E+02 -0.98033519991E+02  0.62940112956E+03  0.63779621311E+03  0.00000000000E+00 0.  1.
         13    1    5    5    0    0  0.14059269356E+03  0.16076500389E+03 -0.16015693201E+03  0.26694931135E+03  0.00000000000E+00 0.  1.
        -13    1    5    5    0    0  0.19289040130E+03  0.24683023589E+03 -0.10074600365E+03  0.32906174119E+03  0.00000000000E+00 0. -1.
          3    1    6    6  503    0 -0.17542462810E+03 -0.11253388635E+03 -0.67933541165E+02  0.21920912786E+03  0.00000000000E+00 0. -1.
         -3    1    6    6    0  503 -0.15310161409E+03 -0.55996006495E+02  0.20073714861E+02  0.16425166973E+03  0.00000000000E+00 0.  1.
<mgrwt>
<rscale>  0 0.20632148E+04</rscale>
<asrwt>0</asrwt>
<pdfrwt beam="1">  1        1 0.10099454E+00 0.20632148E+04</pdfrwt>
<pdfrwt beam="2">  1       -2 0.24940452E+00 0.20632148E+04</pdfrwt>
<totfact> 0.15714675E+00</totfact>
</mgrwt>
</event>
<event>
12    5  0.5197392E-008  0.2041407E+04  0.7818608E-02  0.8587503E-01
          1   -1    0    0  501    0  0.00000000000E+00  0.00000000000E+00  0.10243222626E+04  0.10243222626E+04  0.00000000000E+00 0. -1.
         -2   -1    0    0    0  501 -0.00000000000E+00 -0.00000000000E+00 -0.10170970999E+04  0.10170970999E+04  0.00000000000E+00 0.  1.
        -24    2    1    2    0    0 -0.60603099210E+03 -0.31428625839E+03 -0.44623875523E+03  0.81942332379E+03  0.79222101163E+02 0.  0.
        254    2    1    2    0    0  0.60603099210E+03  0.31428625839E+03  0.45346391795E+03  0.12219960387E+04  0.90641898591E+03 0.  0.
         23    2    4    4    0    0 -0.17371639651E+03 -0.34800424943E+02 -0.76052281022E+02  0.21282132065E+03  0.90113867312E+02 0.  0.
         23    2    4    4    0    0  0.77974738860E+03  0.34908668334E+03  0.52951619897E+03  0.10091747180E+04  0.90436187331E+02 0.  0.
          1    1    3    3  502    0 -0.81676983220E+01 -0.98826705594E+01  0.14017064611E+01  0.12897412697E+02  0.00000000000E+00 0. -1.
         -2    1    3    3    0  502 -0.59786329377E+03 -0.30440358783E+03 -0.44764046169E+03  0.80652591110E+03  0.00000000000E+00 0.  1.
         13    1    5    5    0    0 -0.48149978314E+02 -0.53152362130E+02 -0.31439366714E+02  0.78307265250E+02  0.00000000000E+00 0. -1.
        -13    1    5    5    0    0 -0.12556641819E+03  0.18351937187E+02 -0.44612914308E+02  0.13451405540E+03  0.00000000000E+00 0.  1.
          1    1    6    6  503    0  0.12331754598E+03  0.46462756573E+02  0.46180190672E+02  0.13963744092E+03  0.00000000000E+00 0. -1.
         -1    1    6    6    0  503  0.65642984262E+03  0.30262392676E+03  0.48333600830E+03  0.86953727709E+03  0.00000000000E+00 0.  1.
<mgrwt>
<rscale>  0 0.20414066E+04</rscale>
<asrwt>0</asrwt>
<pdfrwt beam="1">  1        1 0.15758804E+00 0.20414066E+04</pdfrwt>
<pdfrwt beam="2">  1       -2 0.15647648E+00 0.20414066E+04</pdfrwt>
<totfact> 0.31409158E+00</totfact>
</mgrwt>
</event>
<event>
12    5  0.5197392E-008  0.1231910E+04  0.7818608E-02  0.9085376E-01
         -2   -1    0    0    0  501 -0.00000000000E+00  0.00000000000E+00  0.27751770403E+03  0.27751770403E+03  0.00000000000E+00 0.  1.
          1   -1    0    0  501    0  0.00000000000E+00 -0.00000000000E+00 -0.13671212632E+04  0.13671212632E+04  0.00000000000E+00 0. -1.
        -24    2    1    2    0    0  0.17386378018E+03 -0.86669188270E+02 -0.51023298872E+03  0.55185390743E+03  0.80404416061E+02 0.  0.
        254    2    1    2    0    0 -0.17386378018E+03  0.86669188270E+02 -0.57937057044E+03  0.10927850598E+04  0.90596289480E+03 0.  0.
         23    2    4    4    0    0  0.66899394289E+02 -0.37214768979E+03 -0.32987242016E+03  0.51004739750E+03  0.91449998083E+02 0.  0.
         23    2    4    4    0    0 -0.24076317446E+03  0.45881687806E+03 -0.24949815029E+03  0.58273766229E+03  0.94095814380E+02 0.  0.
          1    1    3    3  502    0  0.14387455819E+03 -0.59297072803E+02 -0.46832745363E+03  0.49350444290E+03  0.00000000000E+00 0. -1.
         -2    1    3    3    0  502  0.29989221989E+02 -0.27372115467E+02 -0.41905535086E+02  0.58349464535E+02  0.00000000000E+00 0.  1.
         13    1    5    5    0    0  0.75173949780E+02 -0.34957021286E+03 -0.32914462854E+03  0.48599037330E+03  0.00000000000E+00 0. -1.
        -13    1    5    5    0    0 -0.82745554914E+01 -0.22577476927E+02 -0.72779162178E+00  0.24057024205E+02  0.00000000000E+00 0.  1.
          1    1    6    6  503    0 -0.22488353086E+03  0.45663191603E+03 -0.24913541301E+03  0.56670429962E+03  0.00000000000E+00 0. -1.
         -1    1    6    6    0  503 -0.15879643609E+02  0.21849620261E+01 -0.36273727512E+00  0.16033362670E+02  0.00000000000E+00 0.  1.
<mgrwt>
<rscale>  0 0.12319097E+04</rscale>
<asrwt>0</asrwt>
<pdfrwt beam="1">  1        1 0.21032635E+00 0.12319097E+04</pdfrwt>
<pdfrwt beam="2">  1       -2 0.42695031E-01 0.12319097E+04</pdfrwt>
<totfact> 0.36503891E+01</totfact>
</mgrwt>
</event>
<event>
12    5  0.8023095E-008  0.2014506E+04  0.7818608E-02  0.8599869E-01
          1   -1    0    0  501    0  0.00000000000E+00  0.00000000000E+00  0.10252154951E+04  0.10252154951E+04  0.00000000000E+00 0. -1.
         -2   -1    0    0    0  501 -0.00000000000E+00 -0.00000000000E+00 -0.98960500233E+03  0.98960500233E+03  0.00000000000E+00 0.  1.
        -24    2    1    2    0    0 -0.40807541024E+03 -0.51974372076E+03 -0.44270641986E+03  0.79906538115E+03  0.76533871323E+02 0.  0.
        254    2    1    2    0    0  0.40807541024E+03  0.51974372076E+03  0.47831691268E+03  0.12157551163E+04  0.90145125117E+03 0.  0.
         23    2    4    4    0    0  0.67249820676E+03  0.28977308813E+03  0.22082892746E+03  0.77015101320E+03  0.90249028953E+02 0.  0.
         23    2    4    4    0    0 -0.26442279653E+03  0.22997063263E+03  0.25748798522E+03  0.44560410313E+03  0.97247349582E+02 0.  0.
          1    1    3    3  502    0 -0.51072858153E+02 -0.84596521126E+02 -0.97294094171E+02  0.13867641828E+03  0.00000000000E+00 0. -1.
         -2    1    3    3    0  502 -0.35700255208E+03 -0.43514719963E+03 -0.34541232569E+03  0.66038896287E+03  0.00000000000E+00 0.  1.
         13    1    5    5    0    0  0.76636082065E+02  0.53962717933E+02  0.53153597168E+02  0.10775142177E+03  0.00000000000E+00 0. -1.
        -13    1    5    5    0    0  0.59586212470E+03  0.23581037019E+03  0.16767533029E+03  0.66239959143E+03  0.00000000000E+00 0.  1.
          2    1    6    6  503    0 -0.89672421361E+02  0.57528347638E+02  0.29464285177E+02  0.11053867213E+03  0.00000000000E+00 0. -1.
         -2    1    6    6    0  503 -0.17475037517E+03  0.17244228499E+03  0.22802370004E+03  0.33506543101E+03  0.00000000000E+00 0.  1.
<mgrwt>
<rscale>  0 0.20145058E+04</rscale>
<asrwt>0</asrwt>
<pdfrwt beam="1">  1        1 0.15772546E+00 0.20145058E+04</pdfrwt>
<pdfrwt beam="2">  1       -2 0.15224692E+00 0.20145058E+04</pdfrwt>
<totfact> 0.33829200E+00</totfact>
</mgrwt>
</event>
<event>
12    5  0.5197392E-008  0.2211940E+04  0.7818608E-02  0.8513475E-01
         -2   -1    0    0    0  501 -0.00000000000E+00  0.00000000000E+00  0.42527417193E+03  0.42527417193E+03  0.00000000000E+00 0.  1.
          1   -1    0    0  501    0  0.00000000000E+00 -0.00000000000E+00 -0.28761910601E+04  0.28761910601E+04  0.00000000000E+00 0. -1.
        -24    2    1    2    0    0 -0.80028016530E+02 -0.57191026888E+03  0.45901622346E+02  0.58469312456E+03  0.79203862920E+02 0.  0.
        254    2    1    2    0    0  0.80028016530E+02  0.57191026888E+03 -0.24968185106E+04  0.27167721075E+04  0.90181049582E+03 0.  0.
         23    2    4    4    0    0  0.28857319454E+03  0.40341767927E+03 -0.23388228791E+04  0.23926532505E+04  0.93149366992E+02 0.  0.
         23    2    4    4    0    0 -0.20854517801E+03  0.16849258960E+03 -0.15799563142E+03  0.32411885701E+03  0.90606676903E+02 0.  0.
          1    1    3    3  502    0 -0.94333006788E+02 -0.53571033691E+03  0.41889526840E+02  0.54556302450E+03  0.00000000000E+00 0. -1.
         -2    1    3    3    0  502  0.14304990258E+02 -0.36199931965E+02  0.40120955054E+01  0.39130100062E+02  0.00000000000E+00 0.  1.
         13    1    5    5    0    0  0.13108376967E+03  0.17807138900E+03 -0.82777548218E+03  0.85679905646E+03  0.00000000000E+00 0.  1.
        -13    1    5    5    0    0  0.15748942487E+03  0.22534629028E+03 -0.15110473970E+04  0.15358541940E+04  0.00000000000E+00 0. -1.
          1    1    6    6  503    0 -0.20560142375E+03  0.17513174064E+03 -0.13893240980E+03  0.30371909147E+03  0.00000000000E+00 0. -1.
         -1    1    6    6    0  503 -0.29437542580E+01 -0.66391510405E+01 -0.19063221618E+02  0.20399765541E+02  0.00000000000E+00 0.  1.
<mgrwt>
<rscale>  0 0.22119401E+04</rscale>
<asrwt>0</asrwt>
<pdfrwt beam="1">  1        1 0.44249092E+00 0.22119401E+04</pdfrwt>
<pdfrwt beam="2">  1       -2 0.65426797E-01 0.22119401E+04</pdfrwt>
<totfact> 0.12670429E+00</totfact>
</mgrwt>
</event>
<event>
12    5  0.5197392E-008  0.2315377E+04  0.7818608E-02  0.8471883E-01
         -2   -1    0    0    0  501 -0.00000000000E+00  0.00000000000E+00  0.54492275526E+03  0.54492275526E+03  0.00000000000E+00 0.  1.
          1   -1    0    0  501    0  0.00000000000E+00 -0.00000000000E+00 -0.24595099593E+04  0.24595099593E+04  0.00000000000E+00 0. -1.
        -24    2    1    2    0    0 -0.51293540743E+03  0.23057710840E+03  0.23252588757E+03  0.61387842144E+03  0.80683906686E+02 0.  0.
        254    2    1    2    0    0  0.51293540743E+03 -0.23057710840E+03 -0.21471130916E+04  0.23905542931E+04  0.88791140607E+03 0.  0.
         23    2    4    4    0    0 -0.69004929759E+02 -0.51198457142E+02  0.30757198844E+02  0.12729535138E+03  0.88741979121E+02 0.  0.
         23    2    4    4    0    0  0.58194033719E+03 -0.17937865126E+03 -0.21778702904E+04  0.22632589417E+04  0.91601193769E+02 0.  0.
          1    1    3    3  502    0  0.26103440909E+01  0.38300316284E+01  0.21135107758E+00  0.46397960974E+01  0.00000000000E+00 0. -1.
         -2    1    3    3    0  502 -0.51554575152E+03  0.22674707677E+03  0.23231453649E+03  0.60923862534E+03  0.00000000000E+00 0.  1.
         13    1    5    5    0    0  0.65432368904E+01  0.19169484963E+02  0.59966608593E+01  0.21124465537E+02  0.00000000000E+00 0.  1.
        -13    1    5    5    0    0 -0.75548166650E+02 -0.70367942104E+02  0.24760537985E+02  0.10617088585E+03  0.00000000000E+00 0. -1.
          3    1    6    6  503    0  0.21357842667E+03 -0.29892313425E+02 -0.86815067041E+03  0.89453612631E+03  0.00000000000E+00 0. -1.
         -3    1    6    6    0  503  0.36836191052E+03 -0.14948633784E+03 -0.13097196200E+04  0.13687228154E+04  0.00000000000E+00 0.  1.
<mgrwt>
<rscale>  0 0.23153772E+04</rscale>
<asrwt>0</asrwt>
<pdfrwt beam="1">  1        1 0.37838614E+00 0.23153772E+04</pdfrwt>
<pdfrwt beam="2">  1       -2 0.83834271E-01 0.23153772E+04</pdfrwt>
<totfact> 0.14254569E+00</totfact>
</mgrwt>
</event>
<event>
12    5  0.5197392E-008  0.2112451E+04  0.7818608E-02  0.8555778E-01
         -2   -1    0    0    0  501 -0.00000000000E+00  0.00000000000E+00  0.16736733841E+04  0.16736733841E+04  0.00000000000E+00 0.  1.
          1   -1    0    0  501    0  0.00000000000E+00 -0.00000000000E+00 -0.66656538339E+03  0.66656538339E+03  0.00000000000E+00 0. -1.
        -24    2    1    2    0    0 -0.52332162747E+03 -0.14310819093E+03  0.10864017729E+04  0.12167219292E+04  0.76144342653E+02 0.  0.
        254    2    1    2    0    0  0.52332162747E+03  0.14310819093E+03 -0.79293772151E+02  0.11235168383E+04  0.98064116958E+03 0.  0.
         23    2    4    4    0    0  0.47249821639E+03 -0.36338638534E+03 -0.26111549156E+02  0.60359746414E+03  0.91344710680E+02 0.  0.
         23    2    4    4    0    0  0.50823411075E+02  0.50649457627E+03 -0.53182222995E+02  0.51991937413E+03  0.91476947074E+02 0.  0.
          1    1    3    3  502    0 -0.33222871843E+03 -0.10441377762E+03  0.76968401750E+03  0.84480272555E+03  0.00000000000E+00 0. -1.
         -2    1    3    3    0  502 -0.19109290904E+03 -0.38694413310E+02  0.31671775536E+03  0.37191920368E+03  0.00000000000E+00 0.  1.
         13    1    5    5    0    0  0.81415372793E+02 -0.94352612879E+02  0.21749706460E+02  0.12650663309E+03  0.00000000000E+00 0.  1.
        -13    1    5    5    0    0  0.39108284360E+03 -0.26903377246E+03 -0.47861255616E+02  0.47709083105E+03  0.00000000000E+00 0. -1.
          3    1    6    6  503    0  0.32652578553E+02  0.30639587339E+03  0.12923959871E+02  0.30840176857E+03  0.00000000000E+00 0. -1.
         -3    1    6    6    0  503  0.18170832522E+02  0.20009870288E+03 -0.66106182866E+02  0.21151760556E+03  0.00000000000E+00 0.  1.
<mgrwt>
<rscale>  0 0.21124514E+04</rscale>
<asrwt>0</asrwt>
<pdfrwt beam="1">  1        1 0.10254852E+00 0.21124514E+04</pdfrwt>
<pdfrwt beam="2">  1       -2 0.25748821E+00 0.21124514E+04</pdfrwt>
<totfact> 0.13645339E+00</totfact>
</mgrwt>
</event>
<event>
12    5  0.5197392E-008  0.3299041E+04  0.7818608E-02  0.8163139E-01
         -2   -1    0    0    0  501 -0.00000000000E+00  0.00000000000E+00  0.10291550088E+04  0.10291550088E+04  0.00000000000E+00 0.  1.
          1   -1    0    0  501    0  0.00000000000E+00 -0.00000000000E+00 -0.26438365049E+04  0.26438365049E+04  0.00000000000E+00 0. -1.
        -24    2    1    2    0    0  0.77814311162E+03 -0.30618834022E+03  0.67144880572E+03  0.10754323990E+04  0.80332709324E+02 0.  0.
        254    2    1    2    0    0 -0.77814311162E+03  0.30618834022E+03 -0.22861303018E+04  0.25975591147E+04  0.90645661551E+03 0.  0.
         23    2    4    4    0    0 -0.38561562678E+03  0.38749543187E+03 -0.20499350419E+04  0.21232400525E+04  0.84038820394E+02 0.  0.
         23    2    4    4    0    0 -0.39252748484E+03 -0.81307091652E+02 -0.23619525992E+03  0.47431906221E+03  0.92204676967E+02 0.  0.
          3    1    3    3  502    0  0.16820400247E+03 -0.63297430153E+02  0.10384777173E+03  0.20756567829E+03  0.00000000000E+00 0. -1.
         -4    1    3    3    0  502  0.60993910915E+03 -0.24289091007E+03  0.56760103399E+03  0.86786672067E+03  0.00000000000E+00 0.  1.
         13    1    5    5    0    0 -0.21224405160E+03  0.22242966812E+03 -0.13078160118E+04  0.13434676087E+04  0.00000000000E+00 0. -1.
        -13    1    5    5    0    0 -0.17337157518E+03  0.16506576375E+03 -0.74211903006E+03  0.77977244387E+03  0.00000000000E+00 0.  1.
          3    1    6    6  503    0 -0.22676230095E+03 -0.20371918348E+01 -0.14524198638E+03  0.26929635328E+03  0.00000000000E+00 0. -1.
         -3    1    6    6    0  503 -0.16576518389E+03 -0.79269899817E+02 -0.90953273544E+02  0.20502270893E+03  0.00000000000E+00 0.  1.
<mgrwt>
<rscale>  0 0.32990408E+04</rscale>
<asrwt>0</asrwt>
<pdfrwt beam="1">  1        1 0.40674407E+00 0.32990408E+04</pdfrwt>
<pdfrwt beam="2">  1       -2 0.15833154E+00 0.32990408E+04</pdfrwt>
<totfact> 0.20336878E-01</totfact>
</mgrwt>
</event>
<event>
12    5  0.5286283E-008  0.1497524E+04  0.7818608E-02  0.8886101E-01
          1   -1    0    0  501    0  0.00000000000E+00  0.00000000000E+00  0.12471511539E+04  0.12471511539E+04  0.00000000000E+00 0. -1.
         -2   -1    0    0    0  501 -0.00000000000E+00 -0.00000000000E+00 -0.44953992224E+03  0.44953992224E+03  0.00000000000E+00 0.  1.
        -24    2    1    2    0    0 -0.19263293859E+03 -0.11935105245E+03  0.73115516629E+03  0.76969167881E+03  0.80531239204E+02 0.  0.
        254    2    1    2    0    0  0.19263293859E+03  0.11935105245E+03  0.66456065374E+02  0.92699939733E+03  0.89641472058E+03 0.  0.
         23    2    4    4    0    0  0.22419742526E+03 -0.12192294912E+03  0.41298798260E+03  0.49374863648E+03  0.89994173384E+02 0.  0.
         23    2    4    4    0    0 -0.31564486670E+02  0.24127400156E+03 -0.34653191722E+03  0.43325076085E+03  0.91719090010E+02 0.  0.
          1    1    3    3  502    0 -0.19263426016E+03 -0.10755104263E+03  0.62332908411E+03  0.66122184784E+03  0.00000000000E+00 0. -1.
         -2    1    3    3    0  502  0.13215682088E-02 -0.11800009814E+02  0.10782608218E+03  0.10846983098E+03  0.00000000000E+00 0.  1.
         13    1    5    5    0    0  0.18126650962E+03 -0.63751956255E+02  0.24891182354E+03  0.31445024302E+03  0.00000000000E+00 0.  1.
        -13    1    5    5    0    0  0.42930915645E+02 -0.58170992862E+02  0.16407615906E+03  0.17929839347E+03  0.00000000000E+00 0. -1.
          3    1    6    6  503    0 -0.53166637979E+02  0.10662997482E+03 -0.20214837436E+03  0.23464996949E+03  0.00000000000E+00 0.  1.
         -3    1    6    6    0  503  0.21602151310E+02  0.13464402675E+03 -0.14438354286E+03  0.19860079136E+03  0.00000000000E+00 0. -1.
<mgrwt>
<rscale>  0 0.14975236E+04</rscale>
<asrwt>0</asrwt>
<pdfrwt beam="1">  1        1 0.19186941E+00 0.14975236E+04</pdfrwt>
<pdfrwt beam="2">  1       -2 0.69159989E-01 0.14975236E+04</pdfrwt>
<totfact> 0.15992627E+01</totfact>
</mgrwt>
</event>
<event>
12    5  0.5197392E-008  0.1647397E+04  0.7818608E-02  0.8791948E-01
          1   -1    0    0  501    0  0.00000000000E+00  0.00000000000E+00  0.36052301884E+03  0.36052301884E+03  0.00000000000E+00 0. -1.
         -2   -1    0    0    0  501 -0.00000000000E+00 -0.00000000000E+00 -0.18819301503E+04  0.18819301503E+04  0.00000000000E+00 0.  1.
        -24    2    1    2    0    0 -0.49338143072E+03 -0.28505324619E+03 -0.65193084528E+03  0.86955240889E+03  0.80168419243E+02 0.  0.
        254    2    1    2    0    0  0.49338143072E+03  0.28505324619E+03 -0.86947628613E+03  0.13729007602E+04  0.89676468256E+03 0.  0.
         23    2    4    4    0    0  0.15416460885E+03  0.43817495052E+03 -0.57352522287E+02  0.47486363701E+03  0.80262993084E+02 0.  0.
         23    2    4    4    0    0  0.33921682187E+03 -0.15312170433E+03 -0.81212376385E+03  0.89803712319E+03  0.91713457322E+02 0.  0.
          1    1    3    3  502    0 -0.27581740093E+03 -0.12368316054E+03 -0.38214899151E+03  0.48724800109E+03  0.00000000000E+00 0. -1.
         -2    1    3    3    0  502 -0.21756402979E+03 -0.16137008565E+03 -0.26978185377E+03  0.38230440780E+03  0.00000000000E+00 0.  1.
         13    1    5    5    0    0  0.38267174370E+02  0.10947058308E+03 -0.49898259386E+02  0.12624587709E+03  0.00000000000E+00 0.  1.
        -13    1    5    5    0    0  0.11589743448E+03  0.32870436744E+03 -0.74542629015E+01  0.34861775992E+03  0.00000000000E+00 0. -1.
          4    1    6    6  503    0  0.21082019752E+03 -0.49682923573E+02 -0.41711590642E+03  0.46999917868E+03  0.00000000000E+00 0. -1.
         -4    1    6    6    0  503  0.12839662434E+03 -0.10343878076E+03 -0.39500785743E+03  0.42803794451E+03  0.00000000000E+00 0.  1.
<mgrwt>
<rscale>  0 0.16473969E+04</rscale>
<asrwt>0</asrwt>
<pdfrwt beam="1">  1        1 0.55465082E-01 0.16473969E+04</pdfrwt>
<pdfrwt beam="2">  1       -2 0.28952771E+00 0.16473969E+04</pdfrwt>
<totfact> 0.21236129E+00</totfact>
</mgrwt>
</event>
<event>
12    5  0.5197392E-008  0.1268203E+04  0.7818608E-02  0.9055168E-01
          1   -1    0    0  501    0  0.00000000000E+00  0.00000000000E+00  0.19373979341E+04  0.19373979341E+04  0.00000000000E+00 0. -1.
         -2   -1    0    0    0  501 -0.00000000000E+00 -0.00000000000E+00 -0.20753839823E+03  0.20753839823E+03  0.00000000000E+00 0.  1.
        -24    2    1    2    0    0 -0.11189757616E+03  0.28476099371E+03  0.52698938484E+03  0.61332593344E+03  0.69577279413E+02 0.  0.
        254    2    1    2    0    0  0.11189757616E+03 -0.28476099371E+03  0.12028701510E+04  0.15316103989E+04  0.89739841912E+03 0.  0.
         23    2    4    4    0    0  0.14674250128E+03 -0.28569255698E+03  0.13301381894E+04  0.13714226576E+04  0.91536353085E+02 0.  0.
         23    2    4    4    0    0 -0.34844925121E+02  0.93156327114E+00 -0.12726803845E+03  0.16018774126E+03  0.90818072113E+02 0.  0.
          1    1    3    3  502    0 -0.90450571041E+02  0.17466337038E+03  0.38539630056E+03  0.43268800219E+03  0.00000000000E+00 0. -1.
         -2    1    3    3    0  502 -0.21447005120E+02  0.11009762333E+03  0.14159308429E+03  0.18063793126E+03  0.00000000000E+00 0.  1.
         13    1    5    5    0    0  0.10010066365E+03 -0.22726243251E+03  0.85121704262E+03  0.88670108252E+03  0.00000000000E+00 0.  1.
        -13    1    5    5    0    0  0.46641837632E+02 -0.58430124466E+02  0.47892114682E+03  0.48472157506E+03  0.00000000000E+00 0. -1.
          3    1    6    6  503    0 -0.12499011645E+02 -0.33807747997E+01  0.12844875409E+02  0.18238578744E+02  0.00000000000E+00 0. -1.
         -3    1    6    6    0  503 -0.22345913476E+02  0.43123380709E+01 -0.14011291386E+03  0.14194916252E+03  0.00000000000E+00 0.  1.
<mgrwt>
<rscale>  0 0.12682026E+04</rscale>
<asrwt>0</asrwt>
<pdfrwt beam="1">  1        1 0.29806121E+00 0.12682026E+04</pdfrwt>
<pdfrwt beam="2">  1       -2 0.31928986E-01 0.12682026E+04</pdfrwt>
<totfact> 0.25946032E+01</totfact>
</mgrwt>
</event>
<event>
12    5  0.5197392E-008  0.1556119E+04  0.7818608E-02  0.8847969E-01
         -2   -1    0    0    0  501 -0.00000000000E+00  0.00000000000E+00  0.46706256971E+03  0.46706256971E+03  0.00000000000E+00 0.  1.
          1   -1    0    0  501    0  0.00000000000E+00 -0.00000000000E+00 -0.12961357126E+04  0.12961357126E+04  0.00000000000E+00 0. -1.
        -24    2    1    2    0    0  0.48444071345E+03  0.15654004457E+03 -0.30208990158E+03  0.59741012193E+03  0.80330285420E+02 0.  0.
        254    2    1    2    0    0 -0.48444071345E+03 -0.15654004457E+03 -0.52698324131E+03  0.11657881604E+04  0.90673210369E+03 0.  0.
         23    2    4    4    0    0 -0.50246190131E+03  0.15207550189E+03 -0.63131316162E+03  0.82679577785E+03  0.97159815175E+02 0.  0.
         23    2    4    4    0    0  0.18021187867E+02 -0.30861554645E+03  0.10432992032E+03  0.33899238253E+03  0.91993393326E+02 0.  0.
          3    1    3    3  502    0  0.43367346512E+03  0.13237263524E+03 -0.29450668548E+03  0.54067492702E+03  0.00000000000E+00 0. -1.
         -4    1    3    3    0  502  0.50767248322E+02  0.24167409327E+02 -0.75832160993E+01  0.56735194916E+02  0.00000000000E+00 0.  1.
         13    1    5    5    0    0 -0.22747852499E+03  0.11632010694E+03 -0.27634891083E+03  0.37635829621E+03  0.00000000000E+00 0. -1.
        -13    1    5    5    0    0 -0.27498337633E+03  0.35755394940E+02 -0.35496425079E+03  0.45043748164E+03  0.00000000000E+00 0.  1.
          2    1    6    6  503    0  0.41138840692E+02 -0.63198867366E+02  0.15595683236E+02  0.77004716644E+02  0.00000000000E+00 0. -1.
         -2    1    6    6    0  503 -0.23117652825E+02 -0.24541667908E+03  0.88734237080E+02  0.26198766588E+03  0.00000000000E+00 0.  1.
<mgrwt>
<rscale>  0 0.15561189E+04</rscale>
<asrwt>0</asrwt>
<pdfrwt beam="1">  1        1 0.19940549E+00 0.15561189E+04</pdfrwt>
<pdfrwt beam="2">  1       -2 0.71855782E-01 0.15561189E+04</pdfrwt>
<totfact> 0.13497818E+01</totfact>
</mgrwt>
</event>
<event>
12    5  0.5197392E-008  0.2521569E+04  0.7818608E-02  0.8395342E-01
         -2   -1    0    0    0  501 -0.00000000000E+00  0.00000000000E+00  0.62567721273E+03  0.62567721273E+03  0.00000000000E+00 0.  1.
          1   -1    0    0  501    0  0.00000000000E+00 -0.00000000000E+00 -0.25405709905E+04  0.25405709905E+04  0.00000000000E+00 0. -1.
        -24    2    1    2    0    0 -0.48666907194E+03 -0.41040079635E+02 -0.20696756728E+04  0.21278839066E+04  0.76167287406E+02 0.  0.
        254    2    1    2    0    0  0.48666907194E+03  0.41040079635E+02  0.15478189497E+03  0.10383642967E+04  0.90316770530E+03 0.  0.
         23    2    4    4    0    0  0.22539352087E+03  0.20693663310E+03 -0.32796351344E+03  0.45770332426E+03  0.91144157934E+02 0.  0.
         23    2    4    4    0    0  0.26127555108E+03 -0.16589655346E+03  0.48274540841E+03  0.58066097242E+03  0.91309668221E+02 0.  0.
          1    1    3    3  502    0 -0.34004758338E+03 -0.61833995940E+02 -0.14003533516E+04  0.14423748858E+04  0.00000000000E+00 0. -1.
         -2    1    3    3    0  502 -0.14662148856E+03  0.20793916305E+02 -0.66932232124E+03  0.68550902078E+03  0.00000000000E+00 0.  1.
         13    1    5    5    0    0  0.99138120212E+02  0.33957461444E+02 -0.11750891484E+03  0.15744783623E+03  0.00000000000E+00 0. -1.
        -13    1    5    5    0    0  0.12625540065E+03  0.17297917165E+03 -0.21045459860E+03  0.30025548803E+03  0.00000000000E+00 0.  1.
          4    1    6    6  503    0  0.18863468811E+03 -0.16324477898E+03  0.35946939246E+03  0.43755016574E+03  0.00000000000E+00 0.  1.
         -4    1    6    6    0  503  0.72640862962E+02 -0.26517744802E+01  0.12327601596E+03  0.14311080669E+03  0.00000000000E+00 0. -1.
<mgrwt>
<rscale>  0 0.25215689E+04</rscale>
<asrwt>0</asrwt>
<pdfrwt beam="1">  1        1 0.39085707E+00 0.25215689E+04</pdfrwt>
<pdfrwt beam="2">  1       -2 0.96258033E-01 0.25215689E+04</pdfrwt>
<totfact> 0.89424314E-01</totfact>
</mgrwt>
</event>
<event>
12    5  0.5197392E-008  0.1678965E+04  0.7818608E-02  0.8773453E-01
         -2   -1    0    0    0  501 -0.00000000000E+00  0.00000000000E+00  0.58726355684E+03  0.58726355684E+03  0.00000000000E+00 0.  1.
          1   -1    0    0  501    0  0.00000000000E+00 -0.00000000000E+00 -0.12000242925E+04  0.12000242925E+04  0.00000000000E+00 0. -1.
        -24    2    1    2    0    0  0.51466726285E+03  0.25210253427E+03 -0.67968031084E+02  0.58261360568E+03  0.79880417112E+02 0.  0.
        254    2    1    2    0    0 -0.51466726285E+03 -0.25210253427E+03 -0.54479270454E+03  0.12046742436E+04  0.90884699652E+03 0.  0.
         23    2    4    4    0    0 -0.60129145739E+03 -0.40510368587E+03 -0.12628410461E+03  0.74161062297E+03  0.91532660749E+02 0.  0.
         23    2    4    4    0    0  0.86624194538E+02  0.15300115160E+03 -0.41850859993E+03  0.46306362065E+03  0.91462369752E+02 0.  0.
          1    1    3    3  502    0  0.28214011802E+02  0.33591158536E+02 -0.16463438474E+02  0.46855535427E+02  0.00000000000E+00 0. -1.
         -2    1    3    3    0  502  0.48645325105E+03  0.21851137573E+03 -0.51504592610E+02  0.53575807025E+03  0.00000000000E+00 0.  1.
         13    1    5    5    0    0 -0.45288964296E+03 -0.25965568681E+03 -0.10724843166E+03  0.53294683646E+03  0.00000000000E+00 0. -1.
        -13    1    5    5    0    0 -0.14840181443E+03 -0.14544799906E+03 -0.19035672948E+02  0.20866378651E+03  0.00000000000E+00 0.  1.
          4    1    6    6  503    0  0.87922989626E+02  0.13486963205E+03 -0.27697648459E+03  0.32036891667E+03  0.00000000000E+00 0. -1.
         -4    1    6    6    0  503 -0.12987950877E+01  0.18131519555E+02 -0.14153211534E+03  0.14269470398E+03  0.00000000000E+00 0.  1.
<mgrwt>
<rscale>  0 0.16789646E+04</rscale>
<asrwt>0</asrwt>
<pdfrwt beam="1">  1        1 0.18461912E+00 0.16789646E+04</pdfrwt>
<pdfrwt beam="2">  1       -2 0.90348240E-01 0.16789646E+04</pdfrwt>
<totfact> 0.93579689E+00</totfact>
</mgrwt>
</event>
<event>
12    5  0.5197392E-008  0.1527923E+04  0.7818608E-02  0.8866094E-01
         -2   -1    0    0    0  501 -0.00000000000E+00  0.00000000000E+00  0.43005060631E+03  0.43005060631E+03  0.00000000000E+00 0.  1.
          1   -1    0    0  501    0  0.00000000000E+00 -0.00000000000E+00 -0.13571366955E+04  0.13571366955E+04  0.00000000000E+00 0. -1.
        -24    2    1    2    0    0  0.18600050376E+03  0.42264550684E+03 -0.95600885744E+02  0.47816948928E+03  0.79253512682E+02 0.  0.
        254    2    1    2    0    0 -0.18600050376E+03 -0.42264550684E+03 -0.83148520349E+03  0.13090178126E+04  0.89940790421E+03 0.  0.
         23    2    4    4    0    0 -0.16079937741E+03  0.19310797252E+03  0.40676867638E+01  0.26670394222E+03  0.89259833592E+02 0.  0.
         23    2    4    4    0    0 -0.25201126353E+02 -0.61575347936E+03 -0.83555289025E+03  0.10423138703E+04  0.92098467953E+02 0.  0.
          1    1    3    3  502    0  0.70032455195E+02  0.14019614916E+03 -0.70400963937E+02  0.17180163196E+03  0.00000000000E+00 0. -1.
         -2    1    3    3    0  502  0.11596804857E+03  0.28244935767E+03 -0.25199921807E+02  0.30636785732E+03  0.00000000000E+00 0.  1.
         13    1    5    5    0    0  0.87403960286E+01 -0.71414481181E+00  0.27542225212E+01  0.91918587482E+01  0.00000000000E+00 0.  1.
        -13    1    5    5    0    0 -0.16953977344E+03  0.19382211733E+03  0.13134642425E+01  0.25751208347E+03  0.00000000000E+00 0. -1.
          4    1    6    6  503    0 -0.27482089203E+02 -0.22966026800E+03 -0.38314846815E+03  0.44755094969E+03  0.00000000000E+00 0. -1.
         -4    1    6    6    0  503  0.22809628496E+01 -0.38609321136E+03 -0.45240442210E+03  0.59476292066E+03  0.00000000000E+00 0.  1.
<mgrwt>
<rscale>  0 0.15279234E+04</rscale>
<asrwt>0</asrwt>
<pdfrwt beam="1">  1        1 0.20879026E+00 0.15279234E+04</pdfrwt>
<pdfrwt beam="2">  1       -2 0.66161632E-01 0.15279234E+04</pdfrwt>
<totfact> 0.14655422E+01</totfact>
</mgrwt>
</event>
<event>
12    5  0.5197392E-008  0.2139249E+04  0.7818608E-02  0.8544148E-01
          1   -1    0    0  501    0  0.00000000000E+00  0.00000000000E+00  0.10770583081E+04  0.10770583081E+04  0.00000000000E+00 0. -1.
         -2   -1    0    0    0  501 -0.00000000000E+00 -0.00000000000E+00 -0.10622418332E+04  0.10622418332E+04  0.00000000000E+00 0.  1.
        -24    2    1    2    0    0  0.42710414322E+03  0.72029065997E+03 -0.34204439949E+03  0.90843848363E+03  0.83842252629E+02 0.  0.
        254    2    1    2    0    0 -0.42710414322E+03 -0.72029065997E+03  0.35686087441E+03  0.12308616577E+04  0.82851321820E+03 0.  0.
         23    2    4    4    0    0 -0.76042920161E+00  0.13248513733E+03  0.20585151417E+03  0.26224903953E+03  0.94057551432E+02 0.  0.
         23    2    4    4    0    0 -0.42634371401E+03 -0.85277579730E+03  0.15100936023E+03  0.96861261818E+03  0.80069059427E+02 0.  0.
          1    1    3    3  502    0  0.11993683090E+02  0.42274797126E+02 -0.35108857277E+02  0.56246233344E+02  0.00000000000E+00 0. -1.
         -2    1    3    3    0  502  0.41511046013E+03  0.67801586284E+03 -0.30693554221E+03  0.85219225029E+03  0.00000000000E+00 0.  1.
         13    1    5    5    0    0  0.30817171201E+02  0.11926835327E+03  0.13034181038E+03  0.17934220269E+03  0.00000000000E+00 0.  1.
        -13    1    5    5    0    0 -0.31577600403E+02  0.13216784060E+02  0.75509703794E+02  0.82906836842E+02  0.00000000000E+00 0. -1.
          2    1    6    6  503    0 -0.21515887794E+02 -0.75000617423E+02 -0.42833661509E+01  0.78143286768E+02  0.00000000000E+00 0. -1.
         -2    1    6    6    0  503 -0.40482782622E+03 -0.77777517988E+03  0.15529272638E+03  0.89046933141E+03  0.00000000000E+00 0.  1.
<mgrwt>
<rscale>  0 0.21392488E+04</rscale>
<asrwt>0</asrwt>
<pdfrwt beam="1">  1        1 0.16570128E+00 0.21392488E+04</pdfrwt>
<pdfrwt beam="2">  1       -2 0.16342182E+00 0.21392488E+04</pdfrwt>
<totfact> 0.25212226E+00</totfact>
</mgrwt>
</event>
<event>
12    5  0.5197392E-008  0.2728859E+04  0.7818608E-02  0.8325702E-01
          1   -1    0    0  501    0  0.00000000000E+00  0.00000000000E+00  0.73550572375E+03  0.73550572375E+03  0.00000000000E+00 0. -1.
         -2   -1    0    0    0  501 -0.00000000000E+00 -0.00000000000E+00 -0.25311391049E+04  0.25311391049E+04  0.00000000000E+00 0.  1.
        -24    2    1    2    0    0  0.59133556801E+03 -0.37084120292E+03 -0.20023523575E+04  0.21219990305E+04  0.79145244317E+02 0.  0.
        254    2    1    2    0    0 -0.59133556801E+03  0.37084120292E+03  0.20671897639E+03  0.11446457982E+04  0.88333477027E+03 0.  0.
         23    2    4    4    0    0  0.11612823058E+03  0.16278244862E+03 -0.19974928704E+03  0.29663131481E+03  0.90035924724E+02 0.  0.
         23    2    4    4    0    0 -0.70746379859E+03  0.20805875430E+03  0.40646826343E+03  0.84801448339E+03  0.10059146740E+03 0.  0.
          3    1    3    3  502    0  0.68491407646E+02 -0.29823891626E+02 -0.28821014728E+03  0.29773415395E+03  0.00000000000E+00 0. -1.
         -4    1    3    3    0  502  0.52284416036E+03 -0.34101731130E+03 -0.17141422103E+04  0.18242648765E+04  0.00000000000E+00 0.  1.
         13    1    5    5    0    0  0.48353344188E+02  0.12586373318E+03 -0.16183756183E+03  0.21064453860E+03  0.00000000000E+00 0. -1.
        -13    1    5    5    0    0  0.67774886392E+02  0.36918715436E+02 -0.37911725208E+02  0.85986776210E+02  0.00000000000E+00 0.  1.
          3    1    6    6  503    0 -0.21167012815E+03  0.10338266879E+03  0.15803443177E+03  0.28366723635E+03  0.00000000000E+00 0. -1.
         -3    1    6    6    0  503 -0.49579367044E+03  0.10467608551E+03  0.24843383166E+03  0.56434724704E+03  0.00000000000E+00 0.  1.
<mgrwt>
<rscale>  0 0.27288586E+04</rscale>
<asrwt>0</asrwt>
<pdfrwt beam="1">  1        1 0.11315473E+00 0.27288586E+04</pdfrwt>
<pdfrwt beam="2">  1       -2 0.38940602E+00 0.27288586E+04</pdfrwt>
<totfact> 0.16777951E-01</totfact>
</mgrwt>
</event>
<event>
12    5  0.5197392E-008  0.1737544E+04  0.7818608E-02  0.8740237E-01
         -2   -1    0    0    0  501 -0.00000000000E+00  0.00000000000E+00  0.70606285290E+03  0.70606285290E+03  0.00000000000E+00 0.  1.
          1   -1    0    0  501    0  0.00000000000E+00 -0.00000000000E+00 -0.10689770529E+04  0.10689770529E+04  0.00000000000E+00 0. -1.
        -24    2    1    2    0    0 -0.44938934766E+03 -0.98031538640E+01  0.31703955265E+03  0.55594876783E+03  0.80734545827E+02 0.  0.
        254    2    1    2    0    0  0.44938934766E+03  0.98031538640E+01 -0.67995375264E+03  0.12190911380E+04  0.90653141661E+03 0.  0.
         23    2    4    4    0    0  0.35169065512E+03  0.17134894320E+03 -0.85570629634E+03  0.94536815354E+03  0.91874386446E+02 0.  0.
         23    2    4    4    0    0  0.97698692533E+02 -0.16154578934E+03  0.17575254371E+03  0.27372298442E+03  0.91614622227E+02 0.  0.
          3    1    3    3  502    0 -0.37722775778E+03 -0.47169331448E+01  0.22638874581E+03  0.43997147058E+03  0.00000000000E+00 0. -1.
         -4    1    3    3    0  502 -0.72161589875E+02 -0.50862207192E+01  0.90650806843E+02  0.11597729724E+03  0.00000000000E+00 0.  1.
         13    1    5    5    0    0  0.94646945063E+02  0.90088165537E+02 -0.32014961521E+03  0.34578851615E+03  0.00000000000E+00 0. -1.
        -13    1    5    5    0    0  0.25704371006E+03  0.81260777665E+02 -0.53555668113E+03  0.59957963739E+03  0.00000000000E+00 0.  1.
          3    1    6    6  503    0  0.11360996127E+03 -0.13978998889E+03  0.16629623376E+03  0.24515893142E+03  0.00000000000E+00 0. -1.
         -3    1    6    6    0  503 -0.15911268735E+02 -0.21755800448E+02  0.94563099435E+01  0.28564052998E+02  0.00000000000E+00 0.  1.
<mgrwt>
<rscale>  0 0.17375442E+04</rscale>
<asrwt>0</asrwt>
<pdfrwt beam="1">  1        1 0.16445801E+00 0.17375442E+04</pdfrwt>
<pdfrwt beam="2">  1       -2 0.10862505E+00 0.17375442E+04</pdfrwt>
<totfact> 0.75405723E+00</totfact>
</mgrwt>
</event>
<event>
12    5  0.5197392E-008  0.1943704E+04  0.7818608E-02  0.8633403E-01
         -2   -1    0    0    0  501 -0.00000000000E+00  0.00000000000E+00  0.17136936766E+04  0.17136936766E+04  0.00000000000E+00 0.  1.
          1   -1    0    0  501    0  0.00000000000E+00 -0.00000000000E+00 -0.55114637764E+03  0.55114637764E+03  0.00000000000E+00 0. -1.
        -24    2    1    2    0    0 -0.15292053206E+03  0.38323667445E+03 -0.29118450925E+03  0.51157082876E+03  0.81616521880E+02 0.  0.
        254    2    1    2    0    0  0.15292053206E+03 -0.38323667445E+03  0.14537318082E+04  0.17532692255E+04  0.88902292943E+03 0.  0.
         23    2    4    4    0    0  0.64049485133E+02  0.54404206212E+02 -0.83587155306E+02  0.15014744590E+03  0.92169890841E+02 0.  0.
         23    2    4    4    0    0  0.88871046929E+02 -0.43764088066E+03  0.15373189635E+04  0.16031217796E+04  0.84983770182E+02 0.  0.
          1    1    3    3  502    0 -0.11717301645E+03  0.35369292093E+03 -0.24381798676E+03  0.44528126927E+03  0.00000000000E+00 0. -1.
         -2    1    3    3    0  502 -0.35747515610E+02  0.29543753525E+02 -0.47366522488E+02  0.66289559489E+02  0.00000000000E+00 0.  1.
         13    1    5    5    0    0  0.28307608968E+02  0.18884742429E+02  0.16705261184E+02  0.37908046287E+02  0.00000000000E+00 0.  1.
        -13    1    5    5    0    0  0.35741876165E+02  0.35519463782E+02 -0.10029241649E+03  0.11223939961E+03  0.00000000000E+00 0. -1.
          4    1    6    6  503    0  0.77259420636E+02 -0.32182326986E+03  0.12511712804E+04  0.12942058599E+04  0.00000000000E+00 0. -1.
         -4    1    6    6    0  503  0.11611626293E+02 -0.11581761081E+03  0.28614768315E+03  0.30891591965E+03  0.00000000000E+00 0.  1.
<mgrwt>
<rscale>  0 0.19437037E+04</rscale>
<asrwt>0</asrwt>
<pdfrwt beam="1">  1        1 0.84791751E-01 0.19437037E+04</pdfrwt>
<pdfrwt beam="2">  1       -2 0.26364518E+00 0.19437037E+04</pdfrwt>
<totfact> 0.16730555E+00</totfact>
</mgrwt>
</event>
<event>
12    5  0.5197392E-008  0.2371682E+04  0.7818608E-02  0.8450182E-01
         -2   -1    0    0    0  501 -0.00000000000E+00  0.00000000000E+00  0.12303329284E+04  0.12303329284E+04  0.00000000000E+00 0.  1.
          1   -1    0    0  501    0  0.00000000000E+00 -0.00000000000E+00 -0.11429575700E+04  0.11429575700E+04  0.00000000000E+00 0. -1.
        -24    2    1    2    0    0  0.20895453243E+03  0.97427091319E+03 -0.15292056517E+03  0.10113235721E+04  0.80776600727E+02 0.  0.
        254    2    1    2    0    0 -0.20895453243E+03 -0.97427091319E+03  0.24029592360E+03  0.13619669263E+04  0.89685337067E+03 0.  0.
         23    2    4    4    0    0  0.31443917780E+03 -0.50629554107E+03 -0.23826350576E+02  0.60533098828E+03  0.10320241740E+03 0.  0.
         23    2    4    4    0    0 -0.52339371023E+03 -0.46797537213E+03  0.26412227417E+03  0.75663593800E+03  0.98971925988E+02 0.  0.
          3    1    3    3  502    0  0.17588634697E+03  0.79320994284E+03 -0.93113952873E+02  0.81779473506E+03  0.00000000000E+00 0. -1.
         -2    1    3    3    0  502  0.33068185465E+02  0.18106097035E+03 -0.59806612293E+02  0.19352883699E+03  0.00000000000E+00 0.  1.
         13    1    5    5    0    0  0.82672920679E+01 -0.56937857209E+02  0.17158601880E+02  0.60039031639E+02  0.00000000000E+00 0. -1.
        -13    1    5    5    0    0  0.30617188573E+03 -0.44935768386E+03 -0.40984952456E+02  0.54529195664E+03  0.00000000000E+00 0.  1.
          1    1    6    6  503    0 -0.33925270481E+03 -0.26413416373E+03  0.11979070731E+03  0.44632843034E+03  0.00000000000E+00 0. -1.
         -1    1    6    6    0  503 -0.18414100542E+03 -0.20384120839E+03  0.14433156687E+03  0.31030750766E+03  0.00000000000E+00 0.  1.
<mgrwt>
<rscale>  0 0.23716815E+04</rscale>
<asrwt>0</asrwt>
<pdfrwt beam="1">  1        1 0.17583963E+00 0.23716815E+04</pdfrwt>
<pdfrwt beam="2">  1       -2 0.18928199E+00 0.23716815E+04</pdfrwt>
<totfact> 0.14540731E+00</totfact>
</mgrwt>
</event>
<event>
12    5  0.5197392E-008  0.1155549E+04  0.7818608E-02  0.9152679E-01
          1   -1    0    0  501    0  0.00000000000E+00  0.00000000000E+00  0.23439373571E+04  0.23439373571E+04  0.00000000000E+00 0. -1.
         -2   -1    0    0    0  501 -0.00000000000E+00 -0.00000000000E+00 -0.14242003388E+03  0.14242003388E+03  0.00000000000E+00 0.  1.
        -24    2    1    2    0    0 -0.47343452436E+02 -0.10767067229E+03  0.85577882605E+03  0.86753098750E+03  0.80113912623E+02 0.  0.
        254    2    1    2    0    0  0.47343452436E+02  0.10767067229E+03  0.13457384971E+04  0.16188264034E+04  0.89204957577E+03 0.  0.
         23    2    4    4    0    0  0.35169831181E+03 -0.17116176873E+03  0.33364545958E+03  0.52200328473E+03  0.90443811124E+02 0.  0.
         23    2    4    4    0    0 -0.30435485937E+03  0.27883244102E+03  0.10120930376E+04  0.10968231187E+04  0.91154958552E+02 0.  0.
          1    1    3    3  502    0 -0.44669882876E+02 -0.92110735596E+02  0.45217117302E+03  0.46361466301E+03  0.00000000000E+00 0. -1.
         -4    1    3    3    0  502 -0.26735695597E+01 -0.15559936698E+02  0.40360765303E+03  0.40391632449E+03  0.00000000000E+00 0.  1.
         13    1    5    5    0    0  0.14946714691E+03 -0.98391758542E+02  0.10185486645E+03  0.20590235544E+03  0.00000000000E+00 0. -1.
        -13    1    5    5    0    0  0.20223116490E+03 -0.72770010185E+02  0.23179059313E+03  0.31610092930E+03  0.00000000000E+00 0.  1.
          1    1    6    6  503    0 -0.11086614080E+02  0.14095993065E+01  0.83903307101E+02  0.84644343724E+02  0.00000000000E+00 0. -1.
         -1    1    6    6    0  503 -0.29326824529E+03  0.27742284171E+03  0.92818973046E+03  0.10121787750E+04  0.00000000000E+00 0.  1.
<mgrwt>
<rscale>  0 0.11555495E+04</rscale>
<asrwt>0</asrwt>
<pdfrwt beam="1">  1        1 0.36060572E+00 0.11555495E+04</pdfrwt>
<pdfrwt beam="2">  1       -2 0.21910776E-01 0.11555495E+04</pdfrwt>
<totfact> 0.27675163E+01</totfact>
</mgrwt>
</event>
<event>
12    5  0.5197392E-008  0.1119551E+04  0.7818608E-02  0.9186343E-01
          1   -1    0    0  501    0  0.00000000000E+00  0.00000000000E+00  0.17307139872E+03  0.17307139872E+03  0.00000000000E+00 0. -1.
         -2   -1    0    0    0  501 -0.00000000000E+00 -0.00000000000E+00 -0.18105173617E+04  0.18105173617E+04  0.00000000000E+00 0.  1.
        -24    2    1    2    0    0  0.60984758671E+02 -0.17607024292E+03 -0.36019717723E+03  0.41419115371E+03  0.84216590362E+02 0.  0.
        254    2    1    2    0    0 -0.60984758671E+02  0.17607024292E+03 -0.12772487857E+04  0.15693976067E+04  0.89270628767E+03 0.  0.
         23    2    4    4    0    0  0.18901206249E+03 -0.27831940537E+03 -0.73554046267E+03  0.81384855122E+03  0.90235474835E+02 0.  0.
         23    2    4    4    0    0 -0.24999682116E+03  0.45438964829E+03 -0.54170832306E+03  0.75554905549E+03  0.91859158033E+02 0.  0.
          3    1    3    3  502    0  0.46447183971E+02 -0.85663058596E+02 -0.10590333971E+03  0.14391323035E+03  0.00000000000E+00 0. -1.
         -4    1    3    3    0  502  0.14537574699E+02 -0.90407184319E+02 -0.25429383752E+03  0.27027792336E+03  0.00000000000E+00 0.  1.
         13    1    5    5    0    0  0.10863048751E+02  0.18050714547E+01 -0.65118223292E+01  0.12793277187E+02  0.00000000000E+00 0. -1.
        -13    1    5    5    0    0  0.17814901374E+03 -0.28012447683E+03 -0.72902864034E+03  0.80105527403E+03  0.00000000000E+00 0.  1.
          3    1    6    6  503    0 -0.12593748431E+03  0.13793634041E+03 -0.19455859963E+03  0.26970304531E+03  0.00000000000E+00 0. -1.
         -3    1    6    6    0  503 -0.12405933685E+03  0.31645330788E+03 -0.34714972343E+03  0.48584601018E+03  0.00000000000E+00 0.  1.
<mgrwt>
<rscale>  0 0.11195513E+04</rscale>
<asrwt>0</asrwt>
<pdfrwt beam="1">  1        1 0.26626369E-01 0.11195513E+04</pdfrwt>
<pdfrwt beam="2">  1       -2 0.27854113E+00 0.11195513E+04</pdfrwt>
<totfact> 0.67497426E+00</totfact>
</mgrwt>
</event>
<event>
12    5  0.5197392E-008  0.3413870E+04  0.7818608E-02  0.8134511E-01
          1   -1    0    0  501    0  0.00000000000E+00  0.00000000000E+00  0.16151481198E+04  0.16151481198E+04  0.00000000000E+00 0. -1.
         -2   -1    0    0    0  501 -0.00000000000E+00 -0.00000000000E+00 -0.18039381557E+04  0.18039381557E+04  0.00000000000E+00 0.  1.
        -24    2    1    2    0    0  0.84635303629E+03 -0.13226084828E+04 -0.33333753825E+03  0.16070772701E+04  0.77309616869E+02 0.  0.
        254    2    1    2    0    0 -0.84635303629E+03  0.13226084828E+04  0.14454750230E+03  0.18120090054E+04  0.89267911053E+03 0.  0.
         23    2    4    4    0    0 -0.36146021067E+03  0.82733693232E+03  0.49082802492E+03  0.10317066526E+04  0.91469030189E+02 0.  0.
         23    2    4    4    0    0 -0.48489282561E+03  0.49527155049E+03 -0.34628052262E+03  0.78030235280E+03  0.92447825198E+02 0.  0.
          3    1    3    3  502    0  0.76283318661E+02 -0.83908014727E+02 -0.17957744843E+02  0.11481367619E+03  0.00000000000E+00 0. -1.
         -4    1    3    3    0  502  0.77006971763E+03 -0.12387004681E+04 -0.31537979341E+03  0.14922635939E+04  0.00000000000E+00 0.  1.
         13    1    5    5    0    0 -0.13970641844E+02  0.64173772333E+02  0.59990265171E+02  0.88951019130E+02  0.00000000000E+00 0. -1.
        -13    1    5    5    0    0 -0.34748956883E+03  0.76316315999E+03  0.43083775975E+03  0.94275563347E+03  0.00000000000E+00 0.  1.
          1    1    6    6  503    0 -0.12877574375E+03  0.18894572445E+03 -0.95336645467E+02  0.24773525170E+03  0.00000000000E+00 0. -1.
         -1    1    6    6    0  503 -0.35611708186E+03  0.30632582604E+03 -0.25094387715E+03  0.53256710110E+03  0.00000000000E+00 0.  1.
<mgrwt>
<rscale>  0 0.34138701E+04</rscale>
<asrwt>0</asrwt>
<pdfrwt beam="1">  1        1 0.24848433E+00 0.34138701E+04</pdfrwt>
<pdfrwt beam="2">  1       -2 0.27752895E+00 0.34138701E+04</pdfrwt>
<totfact> 0.17147533E-01</totfact>
</mgrwt>
</event>
<event>
12    5  0.5197392E-008  0.1189240E+04  0.7818608E-02  0.9122327E-01
         -2   -1    0    0    0  501 -0.00000000000E+00  0.00000000000E+00  0.32034513382E+03  0.32034513382E+03  0.00000000000E+00 0.  1.
          1   -1    0    0  501    0  0.00000000000E+00 -0.00000000000E+00 -0.11037251600E+04  0.11037251600E+04  0.00000000000E+00 0. -1.
        -24    2    1    2    0    0 -0.13676961743E+03 -0.15659474016E+03 -0.20516229649E+02  0.22334802453E+03  0.78965710812E+02 0.  0.
        254    2    1    2    0    0  0.13676961743E+03  0.15659474016E+03 -0.76286379655E+03  0.12007222693E+04  0.90362877059E+03 0.  0.
         23    2    4    4    0    0  0.68827546404E+02 -0.36978941572E+03 -0.35340189615E+03  0.52409690640E+03  0.91122027868E+02 0.  0.
         23    2    4    4    0    0  0.67942071027E+02  0.52638415588E+03 -0.40946190040E+03  0.67662536292E+03  0.92013201704E+02 0.  0.
          1    1    3    3  502    0 -0.36024441702E+02 -0.44274744724E+00  0.24142259622E+01  0.36107961895E+02  0.00000000000E+00 0. -1.
         -2    1    3    3    0  502 -0.10074517573E+03 -0.15615199271E+03 -0.22930455612E+02  0.18724006263E+03  0.00000000000E+00 0.  1.
         13    1    5    5    0    0 -0.10084056481E+02 -0.91136732656E+02 -0.49110828074E+02  0.10401666053E+03  0.00000000000E+00 0. -1.
        -13    1    5    5    0    0  0.78911602885E+02 -0.27865268307E+03 -0.30429106808E+03  0.42008024586E+03  0.00000000000E+00 0.  1.
          3    1    6    6  503    0  0.36111784743E+02  0.97274702637E+02 -0.11684876506E+03  0.15626919935E+03  0.00000000000E+00 0. -1.
         -3    1    6    6    0  503  0.31830286284E+02  0.42910945324E+03 -0.29261313534E+03  0.52035616357E+03  0.00000000000E+00 0.  1.
<mgrwt>
<rscale>  0 0.11892401E+04</rscale>
<asrwt>0</asrwt>
<pdfrwt beam="1">  1        1 0.16980387E+00 0.11892401E+04</pdfrwt>
<pdfrwt beam="2">  1       -2 0.49283867E-01 0.11892401E+04</pdfrwt>
<totfact> 0.42633394E+01</totfact>
</mgrwt>
</event>
<event>
12    5  0.5197392E-008  0.3067768E+04  0.7818608E-02  0.8224640E-01
          1   -1    0    0  501    0  0.00000000000E+00  0.00000000000E+00  0.13232464054E+04  0.13232464054E+04  0.00000000000E+00 0. -1.
         -4   -1    0    0    0  501 -0.00000000000E+00 -0.00000000000E+00 -0.17780509280E+04  0.17780509280E+04  0.00000000000E+00 0.  1.
        -24    2    1    2    0    0 -0.10379859606E+04  0.58710059135E+03 -0.93265867644E+03  0.15161041715E+04  0.81349206904E+02 0.  0.
        254    2    1    2    0    0  0.10379859606E+04 -0.58710059135E+03  0.47785415380E+03  0.15851931618E+04  0.92864999292E+03 0.  0.
         23    2    4    4    0    0  0.11941736022E+04 -0.55004050175E+03  0.47478478106E+03  0.14009217541E+04  0.92552833485E+02 0.  0.
         23    2    4    4    0    0 -0.15618764161E+03 -0.37060089595E+02  0.30693727366E+01  0.18427140778E+03  0.90435065351E+02 0.  0.
          1    1    3    3  502    0 -0.15080522544E+03  0.83506429045E+02 -0.10003281065E+03  0.19930404641E+03  0.00000000000E+00 0. -1.
         -2    1    3    3    0  502 -0.88718073513E+03  0.50359416230E+03 -0.83262586579E+03  0.13168001251E+04  0.00000000000E+00 0.  1.
         13    1    5    5    0    0  0.10029677919E+04 -0.42422252460E+03  0.38480210563E+03  0.11549812996E+04  0.00000000000E+00 0. -1.
        -13    1    5    5    0    0  0.19120581029E+03 -0.12581797715E+03  0.89982675436E+02  0.24594045446E+03  0.00000000000E+00 0.  1.
          3    1    6    6  503    0 -0.24717172276E+02 -0.40072757654E+02  0.20992860823E+02  0.51550603458E+02  0.00000000000E+00 0. -1.
         -3    1    6    6    0  503 -0.13147046933E+03  0.30126680590E+01 -0.17923488086E+02  0.13272080432E+03  0.00000000000E+00 0.  1.
<mgrwt>
<rscale>  0 0.30677676E+04</rscale>
<asrwt>0</asrwt>
<pdfrwt beam="1">  1        1 0.20357637E+00 0.30677676E+04</pdfrwt>
<pdfrwt beam="2">  1       -4 0.27354630E+00 0.30677676E+04</pdfrwt>
<totfact> 0.16014695E-01</totfact>
</mgrwt>
</event>
<event>
12    5  0.5197392E-008  0.1276921E+04  0.7818608E-02  0.9048070E-01
          1   -1    0    0  501    0  0.00000000000E+00  0.00000000000E+00  0.67985827389E+03  0.67985827389E+03  0.00000000000E+00 0. -1.
         -2   -1    0    0    0  501 -0.00000000000E+00 -0.00000000000E+00 -0.59958331310E+03  0.59958331310E+03  0.00000000000E+00 0.  1.
        -24    2    1    2    0    0 -0.31031528416E+03  0.28299089526E+02  0.45586822336E+02  0.32479986651E+03  0.79500823055E+02 0.  0.
        254    2    1    2    0    0  0.31031528416E+03 -0.28299089526E+02  0.34688138448E+02  0.95464172048E+03  0.90168793575E+03 0.  0.
         23    2    4    4    0    0  0.20931465658E+03 -0.19387203899E+03  0.41849955229E+03  0.51472853705E+03  0.91676598041E+02 0.  0.
         23    2    4    4    0    0  0.10100062757E+03  0.16557294947E+03 -0.38381141384E+03  0.43991318342E+03  0.92719357162E+02 0.  0.
          3    1    3    3  502    0 -0.11128766615E+03  0.81455106522E+00  0.54016188426E+02  0.12370673685E+03  0.00000000000E+00 0. -1.
         -4    1    3    3    0  502 -0.19902761801E+03  0.27484538461E+02 -0.84293660892E+01  0.20109312966E+03  0.00000000000E+00 0.  1.
         13    1    5    5    0    0  0.10666671143E+02 -0.22074998394E+02  0.94634443555E+02  0.97758689304E+02  0.00000000000E+00 0.  1.
        -13    1    5    5    0    0  0.19864798544E+03 -0.17179704060E+03  0.32386510873E+03  0.41696984775E+03  0.00000000000E+00 0. -1.
          4    1    6    6  503    0  0.11001606323E+03  0.17138991169E+03 -0.37079432147E+03  0.42304428235E+03  0.00000000000E+00 0. -1.
         -4    1    6    6    0  503 -0.90154356611E+01 -0.58169622198E+01 -0.13017092372E+02  0.16868901074E+02  0.00000000000E+00 0.  1.
<mgrwt>
<rscale>  0 0.12769208E+04</rscale>
<asrwt>0</asrwt>
<pdfrwt beam="1">  1        1 0.10459358E+00 0.12769208E+04</pdfrwt>
<pdfrwt beam="2">  1       -2 0.92243587E-01 0.12769208E+04</pdfrwt>
<totfact> 0.24500468E+01</totfact>
</mgrwt>
</event>
<event>
12    5  0.5197392E-008  0.1999178E+04  0.7818608E-02  0.8607005E-01
         -2   -1    0    0    0  501 -0.00000000000E+00  0.00000000000E+00  0.10990779670E+04  0.10990779670E+04  0.00000000000E+00 0.  1.
          1   -1    0    0  501    0  0.00000000000E+00 -0.00000000000E+00 -0.90910584222E+03  0.90910584222E+03  0.00000000000E+00 0. -1.
        -24    2    1    2    0    0  0.61619377976E+03 -0.11200109914E+03  0.56373451608E+03  0.84632170454E+03  0.78897417769E+02 0.  0.
        254    2    1    2    0    0 -0.61619377976E+03  0.11200109914E+03 -0.37376239127E+03  0.11618621047E+04  0.90442589791E+03 0.  0.
         23    2    4    4    0    0 -0.55571098160E+03 -0.32529464809E+03 -0.22854639098E+03  0.68927991356E+03  0.90785699634E+02 0.  0.
         23    2    4    4    0    0 -0.60482798167E+02  0.43729574723E+03 -0.14521600029E+03  0.47258219115E+03  0.85793363577E+02 0.  0.
          3    1    3    3  502    0  0.12994391057E+03 -0.56410650145E+02  0.13463813555E+03  0.19543543406E+03  0.00000000000E+00 0. -1.
         -4    1    3    3    0  502  0.48624986920E+03 -0.55590448995E+02  0.42909638053E+03  0.65088627048E+03  0.00000000000E+00 0.  1.
         13    1    5    5    0    0 -0.23094873260E+03 -0.86439264077E+02 -0.73013616509E+02  0.25717708230E+03  0.00000000000E+00 0. -1.
        -13    1    5    5    0    0 -0.32476224899E+03 -0.23885538401E+03 -0.15553277447E+03  0.43210283126E+03  0.00000000000E+00 0.  1.
          2    1    6    6  503    0  0.10381059597E+02  0.23175116300E+03 -0.83826010517E+02  0.24666407925E+03  0.00000000000E+00 0. -1.
         -2    1    6    6    0  503 -0.70863857763E+02  0.20554458423E+03 -0.61389989773E+02  0.22591811191E+03  0.00000000000E+00 0.  1.
<mgrwt>
<rscale>  0 0.19991780E+04</rscale>
<asrwt>0</asrwt>
<pdfrwt beam="1">  1        1 0.13986244E+00 0.19991780E+04</pdfrwt>
<pdfrwt beam="2">  1       -2 0.16908892E+00 0.19991780E+04</pdfrwt>
<totfact> 0.31455471E+00</totfact>
</mgrwt>
</event>
<event>
12    5  0.5197392E-008  0.2104275E+04  0.7818608E-02  0.8559363E-01
         -2   -1    0    0    0  501 -0.00000000000E+00  0.00000000000E+00  0.31515078067E+04  0.31515078067E+04  0.00000000000E+00 0.  1.
          1   -1    0    0  501    0  0.00000000000E+00 -0.00000000000E+00 -0.35125829508E+03  0.35125829508E+03  0.00000000000E+00 0. -1.
        -24    2    1    2    0    0 -0.38666789909E+03  0.47668755265E+03  0.20408805960E+04  0.21326795398E+04  0.79908228809E+02 0.  0.
        254    2    1    2    0    0  0.38666789909E+03 -0.47668755265E+03  0.75936891560E+03  0.13700865620E+04  0.96112067423E+03 0.  0.
         23    2    4    4    0    0  0.42103524351E+03 -0.58063566022E+03  0.91007087940E+03  0.11628487813E+04  0.97876639365E+02 0.  0.
         23    2    4    4    0    0 -0.34367344423E+02  0.10394810758E+03 -0.15070196380E+03  0.20723778069E+03  0.90830019383E+02 0.  0.
          3    1    3    3  502    0 -0.54634626026E+02  0.42891646952E+02  0.30783625757E+03  0.31557534317E+03  0.00000000000E+00 0. -1.
         -4    1    3    3    0  502 -0.33203327306E+03  0.43379590570E+03  0.17330443384E+04  0.18171041966E+04  0.00000000000E+00 0.  1.
         13    1    5    5    0    0  0.85501839915E+01 -0.18813075980E+01  0.81564038175E+00  0.87926238290E+01  0.00000000000E+00 0. -1.
        -13    1    5    5    0    0  0.41248505952E+03 -0.57875435263E+03  0.90925523902E+03  0.11540561575E+04  0.00000000000E+00 0.  1.
          2    1    6    6  503    0  0.30154740167E+02  0.44335566939E+02 -0.46730046586E+02  0.71124173839E+02  0.00000000000E+00 0. -1.
         -2    1    6    6    0  503 -0.64522084590E+02  0.59612540636E+02 -0.10397191721E+03  0.13611360685E+03  0.00000000000E+00 0.  1.
<mgrwt>
<rscale>  0 0.21042749E+04</rscale>
<asrwt>0</asrwt>
<pdfrwt beam="1">  1        1 0.54039740E-01 0.21042749E+04</pdfrwt>
<pdfrwt beam="2">  1       -2 0.48484734E+00 0.21042749E+04</pdfrwt>
<totfact> 0.11763709E-01</totfact>
</mgrwt>
</event>
<event>
12    5  0.5197392E-008  0.3541653E+04  0.7818608E-02  0.8103989E-01
          1   -1    0    0  501    0  0.00000000000E+00  0.00000000000E+00  0.22612677751E+04  0.22612677751E+04  0.00000000000E+00 0. -1.
         -2   -1    0    0    0  501 -0.00000000000E+00 -0.00000000000E+00 -0.13867558554E+04  0.13867558554E+04  0.00000000000E+00 0.  1.
        -24    2    1    2    0    0  0.71339052867E+03 -0.58404737337E+03 -0.10080215262E+04  0.13684004782E+04  0.79844165275E+02 0.  0.
        254    2    1    2    0    0 -0.71339052867E+03  0.58404737337E+03  0.18825334459E+04  0.22796231522E+04  0.89594205198E+03 0.  0.
         23    2    4    4    0    0  0.66186297245E+02 -0.63835447573E+02 -0.10924953306E+02  0.12994884342E+03  0.91168837827E+02 0.  0.
         23    2    4    4    0    0 -0.77957682592E+03  0.64788282095E+03  0.18934583992E+04  0.21496743088E+04  0.91775526475E+02 0.  0.
          1    1    3    3  502    0  0.57528880322E+03 -0.46534506331E+03 -0.85336337724E+03  0.11294831954E+04  0.00000000000E+00 0. -1.
         -2    1    3    3    0  502  0.13810172545E+03 -0.11870231006E+03 -0.15465814895E+03  0.23891728280E+03  0.00000000000E+00 0.  1.
         13    1    5    5    0    0 -0.20286878513E+02 -0.29378548772E+02  0.29979815400E+01  0.35827984329E+02  0.00000000000E+00 0.  1.
        -13    1    5    5    0    0  0.86473175758E+02 -0.34456898800E+02 -0.13922934846E+02  0.94120859087E+02  0.00000000000E+00 0. -1.
          3    1    6    6  503    0 -0.48169969521E+03  0.45667816705E+03  0.12231726753E+04  0.13916684010E+04  0.00000000000E+00 0. -1.
         -3    1    6    6    0  503 -0.29787713070E+03  0.19120465390E+03  0.67028572390E+03  0.75800590785E+03  0.00000000000E+00 0.  1.
<mgrwt>
<rscale>  0 0.35416529E+04</rscale>
<asrwt>0</asrwt>
<pdfrwt beam="1">  1        1 0.34788735E+00 0.35416529E+04</pdfrwt>
<pdfrwt beam="2">  1       -2 0.21334706E+00 0.35416529E+04</pdfrwt>
<totfact> 0.15417650E-01</totfact>
</mgrwt>
</event>
<event>
12    5  0.5197392E-008  0.1597621E+04  0.7818608E-02  0.8822011E-01
          1   -1    0    0  501    0  0.00000000000E+00  0.00000000000E+00  0.88089969618E+03  0.88089969618E+03  0.00000000000E+00 0. -1.
         -2   -1    0    0    0  501 -0.00000000000E+00 -0.00000000000E+00 -0.72437146792E+03  0.72437146792E+03  0.00000000000E+00 0.  1.
        -24    2    1    2    0    0 -0.43471058144E+03  0.54327949128E+02 -0.26037858353E+03  0.51579353350E+03  0.79505639860E+02 0.  0.
        254    2    1    2    0    0  0.43471058144E+03 -0.54327949128E+02  0.41690681179E+03  0.10894776306E+04  0.90621487638E+03 0.  0.
         23    2    4    4    0    0  0.37966214452E+03  0.21405331006E+03  0.60119624370E+03  0.74741827073E+03  0.85058711815E+02 0.  0.
         23    2    4    4    0    0  0.55048436917E+02 -0.26838125918E+03 -0.18428943190E+03  0.34205935987E+03  0.89348644491E+02 0.  0.
          3    1    3    3  502    0 -0.68614174707E+02  0.60540034615E+01 -0.98935409836E+01  0.69587628799E+02  0.00000000000E+00 0. -1.
         -4    1    3    3    0  502 -0.36609640673E+03  0.48273945667E+02 -0.25048504255E+03  0.44620590470E+03  0.00000000000E+00 0.  1.
         13    1    5    5    0    0  0.18506419914E+03  0.96543236294E+02  0.21763958492E+03  0.30155653400E+03  0.00000000000E+00 0.  1.
        -13    1    5    5    0    0  0.19459794539E+03  0.11751007376E+03  0.38355665878E+03  0.44586173673E+03  0.00000000000E+00 0. -1.
          3    1    6    6  503    0  0.59078822214E+02 -0.19782605695E+03 -0.17525659906E+03  0.27081420117E+03  0.00000000000E+00 0. -1.
         -3    1    6    6    0  503 -0.40303852967E+01 -0.70555202236E+02 -0.90328328422E+01  0.71245158694E+02  0.00000000000E+00 0.  1.
<mgrwt>
<rscale>  0 0.15976215E+04</rscale>
<asrwt>0</asrwt>
<pdfrwt beam="1">  1        1 0.13552303E+00 0.15976215E+04</pdfrwt>
<pdfrwt beam="2">  1       -2 0.11144176E+00 0.15976215E+04</pdfrwt>
<totfact> 0.10101463E+01</totfact>
</mgrwt>
</event>
<event>
12    5  0.5197392E-008  0.1445804E+04  0.7818608E-02  0.8921315E-01
          1   -1    0    0  501    0  0.00000000000E+00  0.00000000000E+00  0.20923703427E+03  0.20923703427E+03  0.00000000000E+00 0. -1.
         -2   -1    0    0    0  501 -0.00000000000E+00 -0.00000000000E+00 -0.24975856207E+04  0.24975856207E+04  0.00000000000E+00 0.  1.
        -24    2    1    2    0    0 -0.23622324919E+03 -0.35883291290E+03 -0.90515146580E+03  0.10051450378E+04  0.80342317874E+02 0.  0.
        254    2    1    2    0    0  0.23622324919E+03  0.35883291290E+03 -0.13831971206E+04  0.17016776172E+04  0.89325805654E+03 0.  0.
         23    2    4    4    0    0  0.16759328333E+03 -0.24875531401E+03 -0.21613397920E+03  0.38092899994E+03  0.91794831927E+02 0.  0.
         23    2    4    4    0    0  0.68629965863E+02  0.60758822691E+03 -0.11670631414E+04  0.13207486173E+04  0.92016347845E+02 0.  0.
          3    1    3    3  502    0 -0.66639881154E+02 -0.16412576022E+03 -0.41263437634E+03  0.44904929291E+03  0.00000000000E+00 0. -1.
         -4    1    3    3    0  502 -0.16958336804E+03 -0.19470715268E+03 -0.49251708946E+03  0.55609574484E+03  0.00000000000E+00 0.  1.
         13    1    5    5    0    0  0.17733219943E+03 -0.24397268767E+03 -0.20156650628E+03  0.36276498968E+03  0.00000000000E+00 0. -1.
        -13    1    5    5    0    0 -0.97389161031E+01 -0.47826263406E+01 -0.14567472922E+02  0.18164010265E+02  0.00000000000E+00 0.  1.
          2    1    6    6  503    0  0.44532224868E+02  0.43394048680E+03 -0.91562626995E+03  0.10142282442E+04  0.00000000000E+00 0. -1.
         -2    1    6    6    0  503  0.24097740995E+02  0.17364774010E+03 -0.25143687147E+03  0.30652037306E+03  0.00000000000E+00 0.  1.
<mgrwt>
<rscale>  0 0.14458041E+04</rscale>
<asrwt>0</asrwt>
<pdfrwt beam="1">  1        1 0.32190313E-01 0.14458041E+04</pdfrwt>
<pdfrwt beam="2">  1       -2 0.38424394E+00 0.14458041E+04</pdfrwt>
<totfact> 0.11286942E+00</totfact>
</mgrwt>
</event>
<event>
12    5  0.5197392E-008  0.1268703E+04  0.7818608E-02  0.9054759E-01
          1   -1    0    0  501    0  0.00000000000E+00  0.00000000000E+00  0.46347296425E+03  0.46347296425E+03  0.00000000000E+00 0. -1.
         -2   -1    0    0    0  501 -0.00000000000E+00 -0.00000000000E+00 -0.86823181341E+03  0.86823181341E+03  0.00000000000E+00 0.  1.
        -24    2    1    2    0    0  0.27092619163E+03 -0.97725577382E+02 -0.25307203713E+03  0.39223160624E+03  0.82758003668E+02 0.  0.
        254    2    1    2    0    0 -0.27092619163E+03  0.97725577382E+02 -0.15168681203E+03  0.93947317142E+03  0.88127728955E+03 0.  0.
         23    2    4    4    0    0 -0.50430446029E+03  0.22869586198E+03 -0.28423985156E+03  0.62872474143E+03  0.88756528263E+02 0.  0.
         23    2    4    4    0    0  0.23337826866E+03 -0.13097028459E+03  0.13255303954E+03  0.31074842999E+03  0.85881585450E+02 0.  0.
          1    1    3    3  502    0  0.12064901109E+03 -0.35019587962E+02 -0.58701254703E+02  0.13866648016E+03  0.00000000000E+00 0. -1.
         -2    1    3    3    0  502  0.15027718054E+03 -0.62705989420E+02 -0.19437078243E+03  0.25356512608E+03  0.00000000000E+00 0.  1.
         13    1    5    5    0    0 -0.24984393940E+02  0.20610715302E+02 -0.41264154577E+02  0.52457144211E+02  0.00000000000E+00 0. -1.
        -13    1    5    5    0    0 -0.47932006635E+03  0.20808514668E+03 -0.24297569699E+03  0.57626759722E+03  0.00000000000E+00 0.  1.
          1    1    6    6  503    0  0.16552350287E+02 -0.14572960446E+02  0.43982884306E+02  0.49202089265E+02  0.00000000000E+00 0. -1.
         -1    1    6    6    0  503  0.21682591838E+03 -0.11639732415E+03  0.88570155232E+02  0.26154634072E+03  0.00000000000E+00 0.  1.
<mgrwt>
<rscale>  0 0.12687032E+04</rscale>
<asrwt>0</asrwt>
<pdfrwt beam="1">  1        1 0.71303533E-01 0.12687032E+04</pdfrwt>
<pdfrwt beam="2">  1       -2 0.13357413E+00 0.12687032E+04</pdfrwt>
<totfact> 0.17155572E+01</totfact>
</mgrwt>
</event>
<event>
12    5  0.5197392E-008  0.2104219E+04  0.7818608E-02  0.8559387E-01
         -2   -1    0    0    0  501 -0.00000000000E+00  0.00000000000E+00  0.11138673481E+04  0.11138673481E+04  0.00000000000E+00 0.  1.
          1   -1    0    0  501    0  0.00000000000E+00 -0.00000000000E+00 -0.99377584523E+03  0.99377584523E+03  0.00000000000E+00 0. -1.
        -24    2    1    2    0    0  0.34955054959E+03 -0.54782578477E+03 -0.49700865971E+03  0.82169525399E+03  0.76595074435E+02 0.  0.
        254    2    1    2    0    0 -0.34955054959E+03  0.54782578477E+03  0.61710016254E+03  0.12859479393E+04  0.92225311862E+03 0.  0.
         23    2    4    4    0    0  0.23438407608E+03  0.19964633469E+03 -0.55915606012E+02  0.32592166879E+03  0.91125326441E+02 0.  0.
         23    2    4    4    0    0 -0.58393462567E+03  0.34817945008E+03  0.67301576855E+03  0.96002627050E+03  0.80570706954E+02 0.  0.
          3    1    3    3  502    0  0.27735312243E+03 -0.48466093188E+03 -0.42292068094E+03  0.70048759859E+03  0.00000000000E+00 0. -1.
         -4    1    3    3    0  502  0.72197427167E+02 -0.63164852888E+02 -0.74087978761E+02  0.12120765540E+03  0.00000000000E+00 0.  1.
         13    1    5    5    0    0  0.18981914605E+02  0.48099492680E+02 -0.33467984978E+02  0.61595294436E+02  0.00000000000E+00 0. -1.
        -13    1    5    5    0    0  0.21540216148E+03  0.15154684201E+03 -0.22447621034E+02  0.26432637436E+03  0.00000000000E+00 0.  1.
          2    1    6    6  503    0 -0.57819050041E+03  0.33483788818E+03  0.66762219446E+03  0.94453166207E+03  0.00000000000E+00 0.  1.
         -2    1    6    6    0  503 -0.57441252640E+01  0.13341561897E+02  0.53935740939E+01  0.15494608430E+02  0.00000000000E+00 0. -1.
<mgrwt>
<rscale>  0 0.21042191E+04</rscale>
<asrwt>0</asrwt>
<pdfrwt beam="1">  1        1 0.15288859E+00 0.21042191E+04</pdfrwt>
<pdfrwt beam="2">  1       -2 0.17136421E+00 0.21042191E+04</pdfrwt>
<totfact> 0.25702360E+00</totfact>
</mgrwt>
</event>
<event>
12    5  0.5197392E-008  0.1381069E+04  0.7818608E-02  0.8967637E-01
         -2   -1    0    0    0  501 -0.00000000000E+00  0.00000000000E+00  0.37279454193E+03  0.37279454193E+03  0.00000000000E+00 0.  1.
          1   -1    0    0  501    0  0.00000000000E+00 -0.00000000000E+00 -0.12790896155E+04  0.12790896155E+04  0.00000000000E+00 0. -1.
        -24    2    1    2    0    0  0.33757054331E+02 -0.86886795242E+02 -0.71259726923E+03  0.72318278187E+03  0.80682178804E+02 0.  0.
        254    2    1    2    0    0 -0.33757054331E+02  0.86886795242E+02 -0.19369780435E+03  0.92870137556E+03  0.90348135103E+03 0.  0.
         23    2    4    4    0    0  0.83861713413E+02 -0.84091616230E+02  0.32767101460E+03  0.36014094102E+03  0.90713927782E+02 0.  0.
         23    2    4    4    0    0 -0.11761876774E+03  0.17097841147E+03 -0.52136881895E+03  0.56856043454E+03  0.91475300712E+02 0.  0.
          1    1    3    3  502    0  0.24748007609E+02 -0.10173848918E+03 -0.57062121236E+03  0.58014804322E+03  0.00000000000E+00 0. -1.
         -2    1    3    3    0  502  0.90090467219E+01  0.14851693937E+02 -0.14197605687E+03  0.14303473865E+03  0.00000000000E+00 0.  1.
         13    1    5    5    0    0 -0.19756252168E+02 -0.14000980843E+02  0.58897039797E+02  0.63680438607E+02  0.00000000000E+00 0.  1.
        -13    1    5    5    0    0  0.10361796558E+03 -0.70090635387E+02  0.26877397480E+03  0.29646050241E+03  0.00000000000E+00 0. -1.
          1    1    6    6  503    0 -0.12851248850E+03  0.13587583087E+03 -0.46572390343E+03  0.50187294741E+03  0.00000000000E+00 0. -1.
         -1    1    6    6    0  503  0.10893720760E+02  0.35102580602E+02 -0.55644915514E+02  0.66687487128E+02  0.00000000000E+00 0.  1.
<mgrwt>
<rscale>  0 0.13810686E+04</rscale>
<asrwt>0</asrwt>
<pdfrwt beam="1">  1        1 0.19678302E+00 0.13810686E+04</pdfrwt>
<pdfrwt beam="2">  1       -2 0.57353007E-01 0.13810686E+04</pdfrwt>
<totfact> 0.22843256E+01</totfact>
</mgrwt>
</event>
<event>
12    5  0.5197392E-008  0.3063084E+04  0.7818608E-02  0.8225943E-01
         -2   -1    0    0    0  501 -0.00000000000E+00  0.00000000000E+00  0.10804484595E+04  0.10804484595E+04  0.00000000000E+00 0.  1.
          1   -1    0    0  501    0  0.00000000000E+00 -0.00000000000E+00 -0.21709698543E+04  0.21709698543E+04  0.00000000000E+00 0. -1.
        -24    2    1    2    0    0 -0.10577335221E+04 -0.87451133531E+03 -0.79016165792E+03  0.15857058108E+04  0.80852912840E+02 0.  0.
        254    2    1    2    0    0  0.10577335221E+04  0.87451133531E+03 -0.30035973696E+03  0.16657125030E+04  0.89488093713E+03 0.  0.
         23    2    4    4    0    0  0.36325143765E+03 -0.10490821963E+03 -0.24204908181E+03  0.45988168742E+03  0.99729970010E+02 0.  0.
         23    2    4    4    0    0  0.69448208442E+03  0.97941955495E+03 -0.58310655152E+02  0.12058308155E+04  0.95182944974E+02 0.  0.
          1    1    3    3  502    0 -0.67268110769E+03 -0.52858872868E+03 -0.53003886981E+03  0.10064030605E+04  0.00000000000E+00 0. -1.
         -2    1    3    3    0  502 -0.38505241438E+03 -0.34592260663E+03 -0.26012278810E+03  0.57930275029E+03  0.00000000000E+00 0.  1.
         13    1    5    5    0    0  0.42859753015E+02  0.16536574245E+02 -0.46522314553E+02  0.65381514724E+02  0.00000000000E+00 0. -1.
        -13    1    5    5    0    0  0.32039168463E+03 -0.12144479388E+03 -0.19552676726E+03  0.39450017269E+03  0.00000000000E+00 0.  1.
          2    1    6    6  503    0  0.22757463427E+03  0.26831578493E+03  0.13734471357E+02  0.35209687631E+03  0.00000000000E+00 0. -1.
         -2    1    6    6    0  503  0.46690745015E+03  0.71110377002E+03 -0.72045126509E+02  0.85373393923E+03  0.00000000000E+00 0.  1.
<mgrwt>
<rscale>  0 0.30630841E+04</rscale>
<asrwt>0</asrwt>
<pdfrwt beam="1">  1        1 0.33399536E+00 0.30630841E+04</pdfrwt>
<pdfrwt beam="2">  1       -2 0.16622284E+00 0.30630841E+04</pdfrwt>
<totfact> 0.38501827E-01</totfact>
</mgrwt>
</event>
<event>
12    5  0.5197392E-008  0.1580422E+04  0.7818608E-02  0.8832667E-01
         -2   -1    0    0    0  501 -0.00000000000E+00  0.00000000000E+00  0.14114668009E+04  0.14114668009E+04  0.00000000000E+00 0.  1.
          1   -1    0    0  501    0  0.00000000000E+00 -0.00000000000E+00 -0.44240044357E+03  0.44240044357E+03  0.00000000000E+00 0. -1.
        -24    2    1    2    0    0 -0.45201083119E+03 -0.27105163162E+03  0.25147691870E+03  0.58936732477E+03  0.79563963860E+02 0.  0.
        254    2    1    2    0    0  0.45201083119E+03  0.27105163162E+03  0.71758943864E+03  0.12644999197E+04  0.89791016588E+03 0.  0.
         23    2    4    4    0    0  0.40489841023E+03  0.33824989149E+03  0.89865746136E+03  0.10459783600E+04  0.90165320929E+02 0.  0.
         23    2    4    4    0    0  0.47112420962E+02 -0.67198259868E+02 -0.18106802272E+03  0.21852155968E+03  0.90724069883E+02 0.  0.
          3    1    3    3  502    0 -0.35183085305E+03 -0.17632601503E+03  0.20593188639E+03  0.44416635911E+03  0.00000000000E+00 0. -1.
         -4    1    3    3    0  502 -0.10017997814E+03 -0.94725616593E+02  0.45545032314E+02  0.14520096565E+03  0.00000000000E+00 0.  1.
         13    1    5    5    0    0  0.22971253848E+02 -0.26080206190E+01  0.33134351623E+02  0.40402543638E+02  0.00000000000E+00 0. -1.
        -13    1    5    5    0    0  0.38192715638E+03  0.34085791211E+03  0.86552310973E+03  0.10055758164E+04  0.00000000000E+00 0.  1.
          3    1    6    6  503    0 -0.20326337350E+02  0.42399582206E+01 -0.15162587088E+02  0.25710723113E+02  0.00000000000E+00 0. -1.
         -3    1    6    6    0  503  0.67438758312E+02 -0.71438218089E+02 -0.16590543563E+03  0.19281083657E+03  0.00000000000E+00 0.  1.
<mgrwt>
<rscale>  0 0.15804221E+04</rscale>
<asrwt>0</asrwt>
<pdfrwt beam="1">  1        1 0.68061607E-01 0.15804221E+04</pdfrwt>
<pdfrwt beam="2">  1       -2 0.21714874E+00 0.15804221E+04</pdfrwt>
<totfact> 0.45345788E+00</totfact>
</mgrwt>
</event>
<event>
12    5  0.5197392E-008  0.1414800E+04  0.7818608E-02  0.8943175E-01
         -2   -1    0    0    0  501 -0.00000000000E+00  0.00000000000E+00  0.66646688632E+03  0.66646688632E+03  0.00000000000E+00 0.  1.
          1   -1    0    0  501    0  0.00000000000E+00 -0.00000000000E+00 -0.75084709972E+03  0.75084709972E+03  0.00000000000E+00 0. -1.
        -24    2    1    2    0    0  0.14856310987E+03  0.34499605524E+03  0.15473962179E+03  0.41320648239E+03  0.75511395132E+02 0.  0.
        254    2    1    2    0    0 -0.14856310987E+03 -0.34499605524E+03 -0.23911983520E+03  0.10041075036E+04  0.89997794837E+03 0.  0.
         23    2    4    4    0    0 -0.25909739136E+03 -0.37186813810E+03 -0.51485880935E+03  0.69319165003E+03  0.10008845968E+03 0.  0.
         23    2    4    4    0    0  0.11053428149E+03  0.26872082866E+02  0.27573897415E+03  0.31091585362E+03  0.87731123000E+02 0.  0.
          3    1    3    3  502    0  0.62454426329E+01  0.40707679785E+02 -0.45386045153E+01  0.41433316041E+02  0.00000000000E+00 0. -1.
         -4    1    3    3    0  502  0.14231766724E+03  0.30428837545E+03  0.15927822631E+03  0.37177316635E+03  0.00000000000E+00 0.  1.
         13    1    5    5    0    0 -0.55866140089E+02 -0.49247202563E+02 -0.41135580388E+02  0.85079072295E+02  0.00000000000E+00 0.  1.
        -13    1    5    5    0    0 -0.20323125127E+03 -0.32262093554E+03 -0.47372322896E+03  0.60811257773E+03  0.00000000000E+00 0. -1.
          4    1    6    6  503    0  0.96814093226E+01 -0.21674289852E+02  0.17586916831E+02  0.29543259311E+02  0.00000000000E+00 0.  1.
         -4    1    6    6    0  503  0.10085287216E+03  0.48546372718E+02  0.25815205732E+03  0.28137259430E+03  0.00000000000E+00 0. -1.
<mgrwt>
<rscale>  0 0.14148000E+04</rscale>
<asrwt>0</asrwt>
<pdfrwt beam="1">  1        1 0.11551494E+00 0.14148000E+04</pdfrwt>
<pdfrwt beam="2">  1       -2 0.10253337E+00 0.14148000E+04</pdfrwt>
<totfact> 0.16229841E+01</totfact>
</mgrwt>
</event>
<event>
12    5  0.5197392E-008  0.3087137E+04  0.7818608E-02  0.8219277E-01
         -2   -1    0    0    0  501 -0.00000000000E+00  0.00000000000E+00  0.11081803405E+04  0.11081803405E+04  0.00000000000E+00 0.  1.
          1   -1    0    0  501    0  0.00000000000E+00 -0.00000000000E+00 -0.21500140436E+04  0.21500140436E+04  0.00000000000E+00 0. -1.
        -24    2    1    2    0    0 -0.12344845330E+04 -0.39413724000E+03  0.98559380576E+02  0.13020750678E+04  0.79933125134E+02 0.  0.
        254    2    1    2    0    0  0.12344845330E+04  0.39413724000E+03 -0.11403930837E+04  0.19561193163E+04  0.92011421475E+03 0.  0.
         23    2    4    4    0    0  0.62195314028E+03  0.65363142033E+03 -0.76801797014E+03  0.11883468846E+04  0.90867889929E+02 0.  0.
         23    2    4    4    0    0  0.61253139271E+03 -0.25949418033E+03 -0.37237511353E+03  0.76777243167E+03  0.90990905958E+02 0.  0.
          1    1    3    3  502    0 -0.22633047485E+03 -0.45227411022E+02  0.34044921596E+02  0.23330250586E+03  0.00000000000E+00 0. -1.
         -2    1    3    3    0  502 -0.10081540581E+04 -0.34890982898E+03  0.64514458980E+02  0.10687725619E+04  0.00000000000E+00 0.  1.
         13    1    5    5    0    0  0.40447260692E+03  0.36571334817E+03 -0.48490301537E+03  0.72970903591E+03  0.00000000000E+00 0.  1.
        -13    1    5    5    0    0  0.21748053336E+03  0.28791807217E+03 -0.28311495477E+03  0.45863784873E+03  0.00000000000E+00 0. -1.
          4    1    6    6  503    0  0.32378440598E+03 -0.10393538065E+03 -0.22800482345E+03  0.40942044944E+03  0.00000000000E+00 0. -1.
         -4    1    6    6    0  503  0.28874698673E+03 -0.15555879968E+03 -0.14437029009E+03  0.35835198223E+03  0.00000000000E+00 0.  1.
<mgrwt>
<rscale>  0 0.30871367E+04</rscale>
<asrwt>0</asrwt>
<pdfrwt beam="1">  1        1 0.33077139E+00 0.30871367E+04</pdfrwt>
<pdfrwt beam="2">  1       -2 0.17048928E+00 0.30871367E+04</pdfrwt>
<totfact> 0.37008586E-01</totfact>
</mgrwt>
</event>
<event>
12    5  0.6570533E-008  0.2220367E+04  0.7818608E-02  0.8509998E-01
         -2   -1    0    0    0  501 -0.00000000000E+00  0.00000000000E+00  0.73084605025E+03  0.73084605025E+03  0.00000000000E+00 0.  1.
          1   -1    0    0  501    0  0.00000000000E+00 -0.00000000000E+00 -0.16864125098E+04  0.16864125098E+04  0.00000000000E+00 0. -1.
        -24    2    1    2    0    0 -0.27131367152E+03 -0.14926334915E+03  0.54703575215E+03  0.63361808143E+03  0.79580796862E+02 0.  0.
        254    2    1    2    0    0  0.27131367152E+03  0.14926334915E+03 -0.15026022117E+04  0.17836404786E+04  0.90976331791E+03 0.  0.
         23    2    4    4    0    0  0.47769157380E+03 -0.20784845680E+03 -0.95496655905E+03  0.10919649839E+04  0.95058804997E+02 0.  0.
         23    2    4    4    0    0 -0.20637790227E+03  0.35711180595E+03 -0.54763565268E+03  0.69167549478E+03  0.91594221992E+02 0.  0.
          3    1    3    3  502    0 -0.12941248887E+02 -0.17745105597E+02  0.87952848948E+02  0.90653562167E+02  0.00000000000E+00 0. -1.
         -4    1    3    3    0  502 -0.25837242264E+03 -0.13151824355E+03  0.45908290320E+03  0.54296451926E+03  0.00000000000E+00 0.  1.
         13    1    5    5    0    0  0.45276053089E+03 -0.21676627561E+03 -0.92081244051E+03  0.10487493824E+04  0.00000000000E+00 0.  1.
        -13    1    5    5    0    0  0.24931042905E+02  0.89178188149E+01 -0.34154118536E+02  0.43215601416E+02  0.00000000000E+00 0. -1.
          4    1    6    6  503    0 -0.21767039672E+02  0.26637113369E+01 -0.39856369986E+02  0.45490983751E+02  0.00000000000E+00 0. -1.
         -4    1    6    6    0  503 -0.18461086260E+03  0.35444809461E+03 -0.50777928269E+03  0.64618451103E+03  0.00000000000E+00 0.  1.
<mgrwt>
<rscale>  0 0.22203675E+04</rscale>
<asrwt>0</asrwt>
<pdfrwt beam="1">  1        1 0.25944808E+00 0.22203675E+04</pdfrwt>
<pdfrwt beam="2">  1       -2 0.11243785E+00 0.22203675E+04</pdfrwt>
<totfact> 0.24241298E+00</totfact>
</mgrwt>
</event>
<event>
12    5  0.5197392E-008  0.1827858E+04  0.7818608E-02  0.8691623E-01
          3   -1    0    0  501    0  0.00000000000E+00  0.00000000000E+00  0.80295634092E+03  0.80295634092E+03  0.00000000000E+00 0. -1.
         -2   -1    0    0    0  501 -0.00000000000E+00 -0.00000000000E+00 -0.10402392107E+04  0.10402392107E+04  0.00000000000E+00 0.  1.
        -24    2    1    2    0    0  0.22929079615E+03  0.50030127029E+03  0.32272375804E+03  0.64253361601E+03  0.76309851632E+02 0.  0.
        254    2    1    2    0    0 -0.22929079615E+03 -0.50030127029E+03 -0.56000662779E+03  0.12006619356E+04  0.90835347204E+03 0.  0.
         23    2    4    4    0    0 -0.11020760872E+03 -0.72649040504E+03 -0.23315115214E+03  0.77621416731E+03  0.90636351216E+02 0.  0.
         23    2    4    4    0    0 -0.11908318743E+03  0.22618913475E+03 -0.32685547565E+03  0.42444776828E+03  0.89325672832E+02 0.  0.
          1    1    3    3  502    0  0.17406239979E+03  0.38652074572E+03  0.20980310948E+03  0.47298345704E+03  0.00000000000E+00 0. -1.
         -2    1    3    3    0  502  0.55228396363E+02  0.11378052457E+03  0.11292064856E+03  0.16955015897E+03  0.00000000000E+00 0.  1.
         13    1    5    5    0    0 -0.76165529415E+02 -0.23312467404E+03 -0.91823912746E+02  0.26187770517E+03  0.00000000000E+00 0. -1.
        -13    1    5    5    0    0 -0.34042079301E+02 -0.49336573100E+03 -0.14132723939E+03  0.51433646214E+03  0.00000000000E+00 0.  1.
          4    1    6    6  503    0 -0.10024382940E+03  0.22363490877E+03 -0.27068070059E+03  0.36514303968E+03  0.00000000000E+00 0. -1.
         -4    1    6    6    0  503 -0.18839358036E+02  0.25542259790E+01 -0.56174775056E+02  0.59304728598E+02  0.00000000000E+00 0.  1.
<mgrwt>
<rscale>  0 0.18278585E+04</rscale>
<asrwt>0</asrwt>
<pdfrwt beam="1">  1        3 0.12353175E+00 0.18278585E+04</pdfrwt>
<pdfrwt beam="2">  1       -2 0.16003680E+00 0.18278585E+04</pdfrwt>
<totfact> 0.51935776E-01</totfact>
</mgrwt>
</event>
<event>
12    5  0.5197392E-008  0.1607872E+04  0.7818608E-02  0.8815727E-01
          1   -1    0    0  501    0  0.00000000000E+00  0.00000000000E+00  0.19807089932E+04  0.19807089932E+04  0.00000000000E+00 0. -1.
         -2   -1    0    0    0  501 -0.00000000000E+00 -0.00000000000E+00 -0.32630389286E+03  0.32630389286E+03  0.00000000000E+00 0.  1.
        -24    2    1    2    0    0 -0.27187123068E+03 -0.77215550439E+02 -0.11336348849E+03  0.31504874569E+03  0.80797427774E+02 0.  0.
        254    2    1    2    0    0  0.27187123068E+03  0.77215550439E+02  0.17677685888E+04  0.19919641404E+04  0.87352111912E+03 0.  0.
         23    2    4    4    0    0  0.39526975410E+03 -0.25502888836E+03  0.13713298158E+04  0.14524455428E+04  0.88174138510E+02 0.  0.
         23    2    4    4    0    0 -0.12339852342E+03  0.33224443880E+03  0.39643877303E+03  0.53951859757E+03  0.91121093396E+02 0.  0.
          3    1    3    3  502    0 -0.77126553891E+02  0.14838125846E+02 -0.30102559803E+02  0.84112064535E+02  0.00000000000E+00 0. -1.
         -4    1    3    3    0  502 -0.19474467679E+03 -0.92053676285E+02 -0.83260928690E+02  0.23093668116E+03  0.00000000000E+00 0.  1.
         13    1    5    5    0    0  0.18260580372E+02 -0.13421044391E+02  0.25687057542E+02  0.34254899697E+02  0.00000000000E+00 0.  1.
        -13    1    5    5    0    0  0.37700917373E+03 -0.24160784397E+03  0.13456427582E+04  0.14181906431E+04  0.00000000000E+00 0. -1.
          1    1    6    6  503    0 -0.10618258075E+03  0.27822980790E+03  0.37510130419E+03  0.47894420850E+03  0.00000000000E+00 0. -1.
         -1    1    6    6    0  503 -0.17215942667E+02  0.54014630904E+02  0.21337468846E+02  0.60574389063E+02  0.00000000000E+00 0.  1.
<mgrwt>
<rscale>  0 0.16078720E+04</rscale>
<asrwt>0</asrwt>
<pdfrwt beam="1">  1        1 0.30472445E+00 0.16078720E+04</pdfrwt>
<pdfrwt beam="2">  1       -2 0.50200600E-01 0.16078720E+04</pdfrwt>
<totfact> 0.97082259E+00</totfact>
</mgrwt>
</event>
<event>
12    5  0.5197392E-008  0.1419863E+04  0.7818608E-02  0.8939565E-01
          1   -1    0    0  501    0  0.00000000000E+00  0.00000000000E+00  0.23947526652E+04  0.23947526652E+04  0.00000000000E+00 0. -1.
         -2   -1    0    0    0  501 -0.00000000000E+00 -0.00000000000E+00 -0.21046122466E+03  0.21046122466E+03  0.00000000000E+00 0.  1.
        -24    2    1    2    0    0  0.36187449909E+03 -0.14404600421E+03  0.38554888371E+03  0.55744200448E+03  0.10193744264E+03 0.  0.
        254    2    1    2    0    0 -0.36187449909E+03  0.14404600421E+03  0.17987425569E+04  0.20477718854E+04  0.89788223301E+03 0.  0.
         23    2    4    4    0    0  0.22430485398E+03  0.62165568586E+02  0.10969799967E+04  0.11251173046E+04  0.91359786432E+02 0.  0.
         23    2    4    4    0    0 -0.58617935306E+03  0.81880435628E+02  0.70176256017E+03  0.92265458078E+03  0.92250446531E+02 0.  0.
          3    1    3    3  502    0  0.44043911411E+02  0.13460446313E+02  0.28585092842E+02  0.54204771747E+02  0.00000000000E+00 0. -1.
         -4    1    3    3    0  502  0.31783058768E+03 -0.15750645053E+03  0.35696379087E+03  0.50323723274E+03  0.00000000000E+00 0.  1.
         13    1    5    5    0    0  0.13130335095E+03  0.35403423975E+02  0.83152228132E+03  0.84256944920E+03  0.00000000000E+00 0.  1.
        -13    1    5    5    0    0  0.93001503031E+02  0.26762144610E+02  0.26545771538E+03  0.28254785543E+03  0.00000000000E+00 0. -1.
          1    1    6    6  503    0 -0.55084545960E+03  0.96699584068E+02  0.67104326661E+03  0.87354484463E+03  0.00000000000E+00 0.  1.
         -1    1    6    6    0  503 -0.35333893466E+02 -0.14819148440E+02  0.30719293555E+02  0.49109736148E+02  0.00000000000E+00 0. -1.
<mgrwt>
<rscale>  0 0.14198628E+04</rscale>
<asrwt>0</asrwt>
<pdfrwt beam="1">  1        1 0.36842347E+00 0.14198628E+04</pdfrwt>
<pdfrwt beam="2">  1       -2 0.32378651E-01 0.14198628E+04</pdfrwt>
<totfact> 0.12198435E+01</totfact>
</mgrwt>
</event>
<event>
12    5  0.5197392E-008  0.1849744E+04  0.7818608E-02  0.8680285E-01
         -2   -1    0    0    0  501 -0.00000000000E+00  0.00000000000E+00  0.78114219166E+03  0.78114219166E+03  0.00000000000E+00 0.  1.
          1   -1    0    0  501    0  0.00000000000E+00 -0.00000000000E+00 -0.10950474647E+04  0.10950474647E+04  0.00000000000E+00 0. -1.
        -24    2    1    2    0    0 -0.34511407725E+02 -0.50124802770E+03 -0.62632924464E+03  0.80699175706E+03  0.80664432899E+02 0.  0.
        254    2    1    2    0    0  0.34511407725E+02  0.50124802770E+03  0.31242397164E+03  0.10691978993E+04  0.89058115137E+03 0.  0.
         23    2    4    4    0    0 -0.25721446241E+03 -0.10579123667E+03  0.25277416846E+03  0.38700322938E+03  0.92334467448E+02 0.  0.
         23    2    4    4    0    0  0.29172587014E+03  0.60703926437E+03  0.59649803176E+02  0.68219466987E+03  0.90723849024E+02 0.  0.
          3    1    3    3  502    0  0.45069560519E+01 -0.29084668739E+03 -0.41001661186E+03  0.50271834084E+03  0.00000000000E+00 0. -1.
         -4    1    3    3    0  502 -0.39018363777E+02 -0.21040134031E+03 -0.21631263278E+03  0.30427341621E+03  0.00000000000E+00 0.  1.
         13    1    5    5    0    0 -0.16258616787E+03 -0.96063847328E+02  0.12028170059E+03  0.22389777186E+03  0.00000000000E+00 0. -1.
        -13    1    5    5    0    0 -0.94628294548E+02 -0.97273893466E+01  0.13249246787E+03  0.16310545753E+03  0.00000000000E+00 0.  1.
          3    1    6    6  503    0  0.16787134284E+03  0.42800143070E+03  0.65650063773E+02  0.46440924119E+03  0.00000000000E+00 0. -1.
         -3    1    6    6    0  503  0.12385452730E+03  0.17903783367E+03 -0.60002605968E+01  0.21778542868E+03  0.00000000000E+00 0.  1.
<mgrwt>
<rscale>  0 0.18497435E+04</rscale>
<asrwt>0</asrwt>
<pdfrwt beam="1">  1        1 0.16846884E+00 0.18497435E+04</pdfrwt>
<pdfrwt beam="2">  1       -2 0.12017572E+00 0.18497435E+04</pdfrwt>
<totfact> 0.55747866E+00</totfact>
</mgrwt>
</event>
<event>
12    5  0.5197392E-008  0.2524946E+04  0.7818608E-02  0.8394152E-01
         -2   -1    0    0    0  501 -0.00000000000E+00  0.00000000000E+00  0.52809428220E+03  0.52809428220E+03  0.00000000000E+00 0.  1.
          1   -1    0    0  501    0  0.00000000000E+00 -0.00000000000E+00 -0.30180942007E+04  0.30180942007E+04  0.00000000000E+00 0. -1.
        -24    2    1    2    0    0 -0.24684580313E+03  0.10551723725E+04 -0.13877963983E+04  0.17627746698E+04  0.84107711849E+02 0.  0.
        254    2    1    2    0    0  0.24684580313E+03 -0.10551723725E+04 -0.11022035202E+04  0.17834138131E+04  0.88960139521E+03 0.  0.
         23    2    4    4    0    0  0.41854283935E+03 -0.79016598471E+03 -0.11428085113E+04  0.14538656657E+04  0.90408453893E+02 0.  0.
         23    2    4    4    0    0 -0.17169703621E+03 -0.26500638783E+03  0.40604991075E+02  0.32954814741E+03  0.85117320952E+02 0.  0.
          1    1    3    3  502    0 -0.20869265009E+03  0.98665174882E+03 -0.12854621928E+04  0.16338443453E+04  0.00000000000E+00 0. -1.
         -2    1    3    3    0  502 -0.38153153046E+02  0.68520623712E+02 -0.10233420544E+03  0.12893032446E+03  0.00000000000E+00 0.  1.
         13    1    5    5    0    0  0.17447691606E+03 -0.27665398584E+03 -0.47640933679E+03  0.57788015912E+03  0.00000000000E+00 0.  1.
        -13    1    5    5    0    0  0.24406592329E+03 -0.51351199887E+03 -0.66639917449E+03  0.87598550653E+03  0.00000000000E+00 0. -1.
          4    1    6    6  503    0  0.47758039725E+01 -0.43131273255E+02  0.20844068216E+01  0.43444905202E+02  0.00000000000E+00 0.  1.
         -4    1    6    6    0  503 -0.17647284019E+03 -0.22187511457E+03  0.38520584254E+02  0.28610324221E+03  0.00000000000E+00 0. -1.
<mgrwt>
<rscale>  0 0.25249462E+04</rscale>
<asrwt>0</asrwt>
<pdfrwt beam="1">  1        1 0.46432218E+00 0.25249462E+04</pdfrwt>
<pdfrwt beam="2">  1       -2 0.81245275E-01 0.25249462E+04</pdfrwt>
<totfact> 0.60336130E-01</totfact>
</mgrwt>
</event>
<event>
12    5  0.5197392E-008  0.1529782E+04  0.7818608E-02  0.8864886E-01
          1   -1    0    0  501    0  0.00000000000E+00  0.00000000000E+00  0.24733610050E+04  0.24733610050E+04  0.00000000000E+00 0. -1.
         -2   -1    0    0    0  501 -0.00000000000E+00 -0.00000000000E+00 -0.23654391246E+03  0.23654391246E+03  0.00000000000E+00 0.  1.
        -24    2    1    2    0    0 -0.27776862482E+03 -0.31312035321E+03  0.12034305142E+04  0.12765185300E+04  0.77812533466E+02 0.  0.
        254    2    1    2    0    0  0.27776862482E+03  0.31312035321E+03  0.10333865783E+04  0.14333863874E+04  0.90083791601E+03 0.  0.
         23    2    4    4    0    0  0.45535538936E+03  0.48529482830E+03  0.93410231283E+03  0.11501620318E+04  0.86405830526E+02 0.  0.
         23    2    4    4    0    0 -0.17758676455E+03 -0.17217447509E+03  0.99284265465E+02  0.28322435562E+03  0.95799589951E+02 0.  0.
          1    1    3    3  502    0 -0.68834625844E+02 -0.11354441939E+03  0.30165441830E+03  0.32958447926E+03  0.00000000000E+00 0. -1.
         -2    1    3    3    0  502 -0.20893399897E+03 -0.19957593383E+03  0.90177609594E+03  0.94693405076E+03  0.00000000000E+00 0.  1.
         13    1    5    5    0    0  0.45056695201E+03  0.47612259165E+03  0.93225692517E+03  0.11396518218E+04  0.00000000000E+00 0.  1.
        -13    1    5    5    0    0  0.47884373548E+01  0.91722366577E+01  0.18453876689E+01  0.10510209953E+02  0.00000000000E+00 0. -1.
          4    1    6    6  503    0 -0.25907103286E+02  0.91818881033E+01  0.19757775691E+01  0.27557009395E+02  0.00000000000E+00 0. -1.
         -4    1    6    6    0  503 -0.15167966126E+03 -0.18135636319E+03  0.97308487896E+02  0.25566734623E+03  0.00000000000E+00 0.  1.
<mgrwt>
<rscale>  0 0.15297823E+04</rscale>
<asrwt>0</asrwt>
<pdfrwt beam="1">  1        1 0.38051706E+00 0.15297823E+04</pdfrwt>
<pdfrwt beam="2">  1       -2 0.36391373E-01 0.15297823E+04</pdfrwt>
<totfact> 0.85336091E+00</totfact>
</mgrwt>
</event>
<event>
12    5  0.5197392E-008  0.2780508E+04  0.7818608E-02  0.8309345E-01
          1   -1    0    0  501    0  0.00000000000E+00  0.00000000000E+00  0.22051584944E+04  0.22051584944E+04  0.00000000000E+00 0. -1.
         -2   -1    0    0    0  501 -0.00000000000E+00 -0.00000000000E+00 -0.87649314995E+03  0.87649314995E+03  0.00000000000E+00 0.  1.
        -24    2    1    2    0    0  0.27132287689E+03 -0.51535015842E+01 -0.75014578542E+03  0.80170285905E+03  0.79787923372E+02 0.  0.
        254    2    1    2    0    0 -0.27132287689E+03  0.51535015842E+01  0.20788111299E+04  0.22799487853E+04  0.89614066296E+03 0.  0.
         23    2    4    4    0    0  0.63513304208E+02 -0.35147545035E+03  0.13407243092E+04  0.13906637164E+04  0.93994503714E+02 0.  0.
         23    2    4    4    0    0 -0.33483618110E+03  0.35662895194E+03  0.73808682063E+03  0.88928506889E+03  0.82196723982E+02 0.  0.
          1    1    3    3  502    0  0.81972984073E+02 -0.37014526744E+02 -0.21029536529E+03  0.22872207145E+03  0.00000000000E+00 0. -1.
         -2    1    3    3    0  502  0.18934989282E+03  0.31861025160E+02 -0.53985042014E+03  0.57298078760E+03  0.00000000000E+00 0.  1.
         13    1    5    5    0    0  0.27919875410E+02 -0.12800047155E+03  0.33300616986E+03  0.35785017720E+03  0.00000000000E+00 0. -1.
        -13    1    5    5    0    0  0.35593428798E+02 -0.22347497881E+03  0.10077181394E+04  0.10328135392E+04  0.00000000000E+00 0.  1.
          3    1    6    6  503    0 -0.68231277474E+02  0.78073581877E+02  0.22244328441E+03  0.24542209801E+03  0.00000000000E+00 0. -1.
         -3    1    6    6    0  503 -0.26660490362E+03  0.27855537006E+03  0.51564353622E+03  0.64386297088E+03  0.00000000000E+00 0.  1.
<mgrwt>
<rscale>  0 0.27805081E+04</rscale>
<asrwt>0</asrwt>
<pdfrwt beam="1">  1        1 0.33925515E+00 0.27805081E+04</pdfrwt>
<pdfrwt beam="2">  1       -2 0.13484510E+00 0.27805081E+04</pdfrwt>
<totfact> 0.65184208E-01</totfact>
</mgrwt>
</event>
<event>
12    5  0.5197392E-008  0.2289341E+04  0.7818608E-02  0.8482136E-01
          1   -1    0    0  501    0  0.00000000000E+00  0.00000000000E+00  0.94416809301E+03  0.94416809301E+03  0.00000000000E+00 0. -1.
         -2   -1    0    0    0  501 -0.00000000000E+00 -0.00000000000E+00 -0.13877508235E+04  0.13877508235E+04  0.00000000000E+00 0.  1.
        -24    2    1    2    0    0 -0.72338579666E+02 -0.60275399912E+03  0.49064050854E+03  0.78472659371E+03  0.80761777376E+02 0.  0.
        254    2    1    2    0    0  0.72338579666E+02  0.60275399912E+03 -0.93422323906E+03  0.15471923228E+04  0.10735389000E+04 0.  0.
         23    2    4    4    0    0  0.31804659714E+03  0.24551813666E+02 -0.84267369697E+03  0.90595202797E+03  0.94306351390E+02 0.  0.
         23    2    4    4    0    0 -0.24570801747E+03  0.57820218545E+03 -0.91549542086E+02  0.64124029486E+03  0.90097724631E+02 0.  0.
          3    1    3    3  502    0 -0.54680059480E+02 -0.50234351240E+03  0.44379683209E+03  0.67252846894E+03  0.00000000000E+00 0. -1.
         -4    1    3    3    0  502 -0.17658520186E+02 -0.10041048672E+03  0.46843676446E+02  0.11219812477E+03  0.00000000000E+00 0.  1.
         13    1    5    5    0    0  0.26948910408E+03 -0.84227746798E+01 -0.62873045059E+03  0.68410328157E+03  0.00000000000E+00 0. -1.
        -13    1    5    5    0    0  0.48557493051E+02  0.32974588346E+02 -0.21394324638E+03  0.22184874640E+03  0.00000000000E+00 0.  1.
          3    1    6    6  503    0 -0.22594124498E+03  0.56718158314E+03 -0.96408939478E+02  0.61809309821E+03  0.00000000000E+00 0. -1.
         -3    1    6    6    0  503 -0.19766772486E+02  0.11020602310E+02  0.48593973926E+01  0.23147196651E+02  0.00000000000E+00 0.  1.
<mgrwt>
<rscale>  0 0.22893406E+04</rscale>
<asrwt>0</asrwt>
<pdfrwt beam="1">  1        1 0.14525663E+00 0.22893406E+04</pdfrwt>
<pdfrwt beam="2">  1       -2 0.21350013E+00 0.22893406E+04</pdfrwt>
<totfact> 0.14446764E+00</totfact>
</mgrwt>
</event>
<event>
12    5  0.5197392E-008  0.1800456E+04  0.7818608E-02  0.8706057E-01
          1   -1    0    0  501    0  0.00000000000E+00  0.00000000000E+00  0.20601802063E+04  0.20601802063E+04  0.00000000000E+00 0. -1.
         -2   -1    0    0    0  501 -0.00000000000E+00 -0.00000000000E+00 -0.39336854249E+03  0.39336854249E+03  0.00000000000E+00 0.  1.
        -24    2    1    2    0    0 -0.16237102377E+03  0.33631436953E+03  0.13884281569E+04  0.14399380562E+04  0.78848933087E+02 0.  0.
        254    2    1    2    0    0  0.16237102377E+03 -0.33631436953E+03  0.27838350696E+03  0.10136106927E+04  0.90024305320E+03 0.  0.
         23    2    4    4    0    0  0.20173267575E+03 -0.26456336978E+03  0.58730494098E+03  0.68138720086E+03  0.93121290324E+02 0.  0.
         23    2    4    4    0    0 -0.39361651985E+02 -0.71750999749E+02 -0.30892143402E+03  0.33222349181E+03  0.90787942478E+02 0.  0.
          1    1    3    3  502    0 -0.66725556962E+01  0.47196561428E+02  0.27484613095E+03  0.27894880195E+03  0.00000000000E+00 0. -1.
         -2    1    3    3    0  502 -0.15569846807E+03  0.28911780810E+03  0.11135820259E+04  0.11609892542E+04  0.00000000000E+00 0.  1.
         13    1    5    5    0    0  0.11701010698E+03 -0.18357833675E+03  0.29637867138E+03  0.36773997295E+03  0.00000000000E+00 0. -1.
        -13    1    5    5    0    0  0.84722568770E+02 -0.80985033027E+02  0.29092626960E+03  0.31364722791E+03  0.00000000000E+00 0.  1.
          1    1    6    6  503    0 -0.22931618013E+02  0.13594945559E+02 -0.13713537502E+03  0.13970251513E+03  0.00000000000E+00 0. -1.
         -1    1    6    6    0  503 -0.16430033971E+02 -0.85345945308E+02 -0.17178605899E+03  0.19252097668E+03  0.00000000000E+00 0.  1.
<mgrwt>
<rscale>  0 0.18004556E+04</rscale>
<asrwt>0</asrwt>
<pdfrwt beam="1">  1        1 0.31695079E+00 0.18004556E+04</pdfrwt>
<pdfrwt beam="2">  1       -2 0.60518239E-01 0.18004556E+04</pdfrwt>
<totfact> 0.57163995E+00</totfact>
</mgrwt>
</event>
<event>
12    5  0.5197392E-008  0.1487545E+04  0.7818608E-02  0.8892778E-01
         -2   -1    0    0    0  501 -0.00000000000E+00  0.00000000000E+00  0.39827417648E+03  0.39827417648E+03  0.00000000000E+00 0.  1.
          1   -1    0    0  501    0  0.00000000000E+00 -0.00000000000E+00 -0.13889859511E+04  0.13889859511E+04  0.00000000000E+00 0. -1.
        -24    2    1    2    0    0 -0.87892000681E+02  0.40472870391E+03 -0.57966830621E+03  0.71683996860E+03  0.79459850225E+02 0.  0.
        254    2    1    2    0    0  0.87892000681E+02 -0.40472870391E+03 -0.41104346837E+03  0.10704201590E+04  0.89739191898E+03 0.  0.
         23    2    4    4    0    0  0.35734576370E+03  0.12252554394E+03 -0.18635514057E+03  0.43045062154E+03  0.88605843041E+02 0.  0.
         23    2    4    4    0    0 -0.26945376302E+03 -0.52725424785E+03 -0.22468832781E+03  0.63996953741E+03  0.92053201361E+02 0.  0.
          3    1    3    3  502    0 -0.16884584390E+02  0.23007973673E+03 -0.35730365596E+03  0.42530891950E+03  0.00000000000E+00 0. -1.
         -4    1    3    3    0  502 -0.71007416291E+02  0.17464896719E+03 -0.22236465025E+03  0.29153104910E+03  0.00000000000E+00 0.  1.
         13    1    5    5    0    0  0.14719823152E+03  0.51107797895E+01 -0.69341958301E+02  0.16279357055E+03  0.00000000000E+00 0.  1.
        -13    1    5    5    0    0  0.21014753218E+03  0.11741476415E+03 -0.11701318227E+03  0.26765705099E+03  0.00000000000E+00 0. -1.
          2    1    6    6  503    0 -0.15032715932E+03 -0.30384861550E+03 -0.17666475960E+03  0.38227303496E+03  0.00000000000E+00 0. -1.
         -2    1    6    6    0  503 -0.11912660370E+03 -0.22340563234E+03 -0.48023568210E+02  0.25769650245E+03  0.00000000000E+00 0.  1.
<mgrwt>
<rscale>  0 0.14875446E+04</rscale>
<asrwt>0</asrwt>
<pdfrwt beam="1">  1        1 0.21369015E+00 0.14875446E+04</pdfrwt>
<pdfrwt beam="2">  1       -2 0.61272949E-01 0.14875446E+04</pdfrwt>
<totfact> 0.16458464E+01</totfact>
</mgrwt>
</event>
<event>
12    5  0.5197392E-008  0.1467034E+04  0.7818608E-02  0.8906676E-01
          1   -1    0    0  501    0  0.00000000000E+00  0.00000000000E+00  0.19088500259E+04  0.19088500259E+04  0.00000000000E+00 0. -1.
         -2   -1    0    0    0  501 -0.00000000000E+00 -0.00000000000E+00 -0.28186992456E+03  0.28186992456E+03  0.00000000000E+00 0.  1.
        -24    2    1    2    0    0 -0.26735278416E+03 -0.57608230222E+01  0.10526788480E+04  0.10891065578E+04  0.80682333071E+02 0.  0.
        254    2    1    2    0    0  0.26735278416E+03  0.57608230222E+01  0.57430125333E+03  0.11016133927E+04  0.90123217822E+03 0.  0.
         23    2    4    4    0    0 -0.94507613700E+02  0.11144588869E+03 -0.18285852140E+03  0.25108149102E+03  0.90844929026E+02 0.  0.
         23    2    4    4    0    0  0.36186039786E+03 -0.10568506567E+03  0.75715977473E+03  0.85053190166E+03  0.89450045441E+02 0.  0.
          3    1    3    3  502    0 -0.25707380718E+03  0.12670724739E+02  0.99264227880E+03  0.10254687627E+04  0.00000000000E+00 0. -1.
         -4    1    3    3    0  502 -0.10278976978E+02 -0.18431547761E+02  0.60036569241E+02  0.63637795112E+02  0.00000000000E+00 0.  1.
         13    1    5    5    0    0 -0.53934812644E+02  0.34983249224E+02 -0.21173754884E+02  0.67683968834E+02  0.00000000000E+00 0.  1.
        -13    1    5    5    0    0 -0.40572801055E+02  0.76462639465E+02 -0.16168476652E+03  0.18339752218E+03  0.00000000000E+00 0. -1.
          1    1    6    6  503    0  0.24600005938E+03 -0.98676487844E+02  0.59239326555E+03  0.64898602415E+03  0.00000000000E+00 0. -1.
         -1    1    6    6    0  503  0.11586033848E+03 -0.70085778227E+01  0.16476650918E+03  0.20154587751E+03  0.00000000000E+00 0.  1.
<mgrwt>
<rscale>  0 0.14670343E+04</rscale>
<asrwt>0</asrwt>
<pdfrwt beam="1">  1        1 0.29366923E+00 0.14670343E+04</pdfrwt>
<pdfrwt beam="2">  1       -2 0.43364605E-01 0.14670343E+04</pdfrwt>
<totfact> 0.14759462E+01</totfact>
</mgrwt>
</event>
<event>
12    5  0.5197392E-008  0.1292687E+04  0.7818608E-02  0.9035384E-01
         -2   -1    0    0    0  501 -0.00000000000E+00  0.00000000000E+00  0.32127934599E+03  0.32127934599E+03  0.00000000000E+00 0.  1.
          1   -1    0    0  501    0  0.00000000000E+00 -0.00000000000E+00 -0.13003017159E+04  0.13003017159E+04  0.00000000000E+00 0. -1.
        -24    2    1    2    0    0 -0.17813995022E+03  0.94937535980E+02 -0.47139409960E+03  0.51855522899E+03  0.77072373651E+02 0.  0.
        254    2    1    2    0    0  0.17813995022E+03 -0.94937535980E+02 -0.50762827028E+03  0.11030258329E+04  0.95824451450E+03 0.  0.
         23    2    4    4    0    0 -0.17599616072E+03  0.63695465479E+02  0.20048733551E+03  0.29140649177E+03  0.98441916050E+02 0.  0.
         23    2    4    4    0    0  0.35413611094E+03 -0.15863300146E+03 -0.70811560579E+03  0.81161934109E+03  0.81984324391E+02 0.  0.
          1    1    3    3  502    0 -0.16456669107E+03  0.82644960981E+02 -0.46325547645E+03  0.49851581905E+03  0.00000000000E+00 0. -1.
         -2    1    3    3    0  502 -0.13573259149E+02  0.12292574999E+02 -0.81386231461E+01  0.20039409940E+02  0.00000000000E+00 0.  1.
         13    1    5    5    0    0 -0.73897292367E+02  0.58355287590E+02  0.42695275058E+02  0.10338779387E+03  0.00000000000E+00 0. -1.
        -13    1    5    5    0    0 -0.10209886835E+03  0.53401778889E+01  0.15779206045E+03  0.18801869790E+03  0.00000000000E+00 0.  1.
          1    1    6    6  503    0  0.35868311049E+03 -0.15653748964E+03 -0.69549425320E+03  0.79804123680E+03  0.00000000000E+00 0. -1.
         -1    1    6    6    0  503 -0.45469995497E+01 -0.20955118227E+01 -0.12621352593E+02  0.13578104285E+02  0.00000000000E+00 0.  1.
<mgrwt>
<rscale>  0 0.12926873E+04</rscale>
<asrwt>0</asrwt>
<pdfrwt beam="1">  1        1 0.20004642E+00 0.12926873E+04</pdfrwt>
<pdfrwt beam="2">  1       -2 0.49427591E-01 0.12926873E+04</pdfrwt>
<totfact> 0.30201913E+01</totfact>
</mgrwt>
</event>
<event>
12    5  0.5197392E-008  0.1713975E+04  0.7818608E-02  0.8753434E-01
          1   -1    0    0  501    0  0.00000000000E+00  0.00000000000E+00  0.70526252877E+03  0.70526252877E+03  0.00000000000E+00 0. -1.
         -2   -1    0    0    0  501 -0.00000000000E+00 -0.00000000000E+00 -0.10413534432E+04  0.10413534432E+04  0.00000000000E+00 0.  1.
        -24    2    1    2    0    0  0.14897373997E+03  0.32026968137E+03  0.39189499657E+03  0.53330195319E+03  0.77868099629E+02 0.  0.
        254    2    1    2    0    0 -0.14897373997E+03 -0.32026968137E+03 -0.72798591104E+03  0.12133140188E+04  0.90410263663E+03 0.  0.
         23    2    4    4    0    0  0.14216297737E+03 -0.54913228616E+03 -0.33196496398E+03  0.66351331376E+03  0.91063716063E+02 0.  0.
         23    2    4    4    0    0 -0.29113671734E+03  0.22886260479E+03 -0.39602094705E+03  0.54980070505E+03  0.91156704176E+02 0.  0.
          1    1    3    3  502    0  0.15226689205E+03  0.26616065929E+03  0.31923886967E+03  0.44265128361E+03  0.00000000000E+00 0. -1.
         -2    1    3    3    0  502 -0.32931520818E+01  0.54109022075E+02  0.72656126901E+02  0.90650669588E+02  0.00000000000E+00 0.  1.
         13    1    5    5    0    0  0.13980033115E+03 -0.43910244136E+03 -0.23722064334E+03  0.51829404803E+03  0.00000000000E+00 0. -1.
        -13    1    5    5    0    0  0.23626462187E+01 -0.11002984480E+03 -0.94744320644E+02  0.14521926573E+03  0.00000000000E+00 0.  1.
          4    1    6    6  503    0 -0.11899544968E+03  0.41760623320E+02 -0.15061134059E+03  0.19643737582E+03  0.00000000000E+00 0. -1.
         -4    1    6    6    0  503 -0.17214126766E+03  0.18710198147E+03 -0.24540960646E+03  0.35336332923E+03  0.00000000000E+00 0.  1.
<mgrwt>
<rscale>  0 0.17139750E+04</rscale>
<asrwt>0</asrwt>
<pdfrwt beam="1">  1        1 0.10850193E+00 0.17139750E+04</pdfrwt>
<pdfrwt beam="2">  1       -2 0.16020822E+00 0.17139750E+04</pdfrwt>
<totfact> 0.56236603E+00</totfact>
</mgrwt>
</event>
<event>
12    5  0.5197392E-008  0.1692708E+04  0.7818608E-02  0.8765534E-01
          1   -1    0    0  501    0  0.00000000000E+00  0.00000000000E+00  0.23605893447E+04  0.23605893447E+04  0.00000000000E+00 0. -1.
         -2   -1    0    0    0  501 -0.00000000000E+00 -0.00000000000E+00 -0.30344760127E+03  0.30344760127E+03  0.00000000000E+00 0.  1.
        -24    2    1    2    0    0 -0.20734236385E+02 -0.40294054853E+03  0.55096952197E+02  0.41517229780E+03  0.80878727152E+02 0.  0.
        254    2    1    2    0    0  0.20734236385E+02  0.40294054853E+03  0.20020447912E+04  0.22488646482E+04  0.94149767153E+03 0.  0.
         23    2    4    4    0    0  0.27812519189E+03  0.61058391577E+03  0.14189099149E+04  0.15722130373E+04  0.91554069121E+02 0.  0.
         23    2    4    4    0    0 -0.25739095550E+03 -0.20764336724E+03  0.58313487629E+03  0.67665161081E+03  0.91898022467E+02 0.  0.
          1    1    3    3  502    0  0.62521426220E+01 -0.10243838924E+03  0.48194807206E+02  0.11338188709E+03  0.00000000000E+00 0. -1.
         -2    1    3    3    0  502 -0.26986379007E+02 -0.30050215929E+03  0.69021449909E+01  0.30179041071E+03  0.00000000000E+00 0.  1.
         13    1    5    5    0    0  0.14832449929E+03  0.29509442834E+03  0.80028588524E+03  0.86575884451E+03  0.00000000000E+00 0.  1.
        -13    1    5    5    0    0  0.12980069260E+03  0.31548948744E+03  0.61862402968E+03  0.70645419284E+03  0.00000000000E+00 0. -1.
          2    1    6    6  503    0 -0.55499705310E+02 -0.90446926257E+02  0.23043514738E+03  0.25369513378E+03  0.00000000000E+00 0. -1.
         -2    1    6    6    0  503 -0.20189125019E+03 -0.11719644098E+03  0.35269972892E+03  0.42295647703E+03  0.00000000000E+00 0.  1.
<mgrwt>
<rscale>  0 0.16927081E+04</rscale>
<asrwt>0</asrwt>
<pdfrwt beam="1">  1        1 0.36316758E+00 0.16927081E+04</pdfrwt>
<pdfrwt beam="2">  1       -2 0.46684248E-01 0.16927081E+04</pdfrwt>
<totfact> 0.61576782E+00</totfact>
</mgrwt>
</event>
<event>
12    5  0.5197392E-008  0.1259243E+04  0.7818608E-02  0.9062526E-01
          1   -1    0    0  501    0  0.00000000000E+00  0.00000000000E+00  0.24287231730E+04  0.24287231730E+04  0.00000000000E+00 0. -1.
         -2   -1    0    0    0  501 -0.00000000000E+00 -0.00000000000E+00 -0.16322280674E+03  0.16322280674E+03  0.00000000000E+00 0.  1.
        -24    2    1    2    0    0  0.41885799844E+02 -0.22454202077E+03  0.18587952799E+03  0.30537556643E+03  0.80805311273E+02 0.  0.
        254    2    1    2    0    0 -0.41885799844E+02  0.22454202077E+03  0.20796208382E+04  0.22865704133E+04  0.92271766250E+03 0.  0.
         23    2    4    4    0    0  0.10903843767E+03  0.28472302019E+03  0.15658998157E+03  0.35458987789E+03  0.90867926475E+02 0.  0.
         23    2    4    4    0    0 -0.15092423751E+03 -0.60180999418E+02  0.19230308567E+04  0.19319805354E+04  0.90006862058E+02 0.  0.
          1    1    3    3  502    0  0.65608853614E+01 -0.40383025377E+02  0.80443728468E+02  0.90249805568E+02  0.00000000000E+00 0. -1.
         -2    1    3    3    0  502  0.35324914483E+02 -0.18415899539E+03  0.10543579952E+03  0.21512576087E+03  0.00000000000E+00 0.  1.
         13    1    5    5    0    0  0.95313407376E+02  0.27067761136E+03  0.11605366408E+03  0.30954719812E+03  0.00000000000E+00 0. -1.
        -13    1    5    5    0    0  0.13725030289E+02  0.14045408828E+02  0.40536317487E+02  0.45042679771E+02  0.00000000000E+00 0.  1.
          1    1    6    6  503    0 -0.25260175723E+02 -0.17149460425E+02  0.87953551488E+03  0.88006528304E+03  0.00000000000E+00 0. -1.
         -1    1    6    6    0  503 -0.12566406179E+03 -0.43031538993E+02  0.10434953418E+04  0.10519152523E+04  0.00000000000E+00 0.  1.
<mgrwt>
<rscale>  0 0.12592427E+04</rscale>
<asrwt>0</asrwt>
<pdfrwt beam="1">  1        1 0.37364969E+00 0.12592427E+04</pdfrwt>
<pdfrwt beam="2">  1       -2 0.25111203E-01 0.12592427E+04</pdfrwt>
<totfact> 0.18774406E+01</totfact>
</mgrwt>
</event>
<event>
12    5  0.5596511E-008  0.2330737E+04  0.7818608E-02  0.8465900E-01
          1   -1    0    0  501    0  0.00000000000E+00  0.00000000000E+00  0.12896095361E+04  0.12896095361E+04  0.00000000000E+00 0. -1.
         -2   -1    0    0    0  501 -0.00000000000E+00 -0.00000000000E+00 -0.10530967131E+04  0.10530967131E+04  0.00000000000E+00 0.  1.
        -24    2    1    2    0    0 -0.52394866848E+03  0.51760844853E+03 -0.57116677541E+03  0.93550913468E+03  0.80654463921E+02 0.  0.
        254    2    1    2    0    0  0.52394866848E+03 -0.51760844853E+03  0.80767959843E+03  0.14071971145E+04  0.88623736789E+03 0.  0.
         23    2    4    4    0    0  0.65682894881E+01 -0.54089506731E+03  0.15941260791E+03  0.57136256814E+03  0.91826948319E+02 0.  0.
         23    2    4    4    0    0  0.51738037899E+03  0.23286618784E+02  0.64826699051E+03  0.83583454639E+03  0.10072027989E+03 0.  0.
          1    1    3    3  502    0 -0.99874455904E+02  0.12497658105E+03 -0.90410881483E+02  0.18376120441E+03  0.00000000000E+00 0. -1.
         -2    1    3    3    0  502 -0.42407421257E+03  0.39263186747E+03 -0.48075589393E+03  0.75174793027E+03  0.00000000000E+00 0.  1.
         13    1    5    5    0    0  0.10554753786E+02 -0.10120198044E+03  0.67624608455E+02  0.12217336592E+03  0.00000000000E+00 0. -1.
        -13    1    5    5    0    0 -0.39864642981E+01 -0.43969308687E+03  0.91787999457E+02  0.44918920221E+03  0.00000000000E+00 0.  1.
          3    1    6    6  503    0  0.38323711333E+02  0.13421339141E+02  0.18802589802E+02  0.44747922611E+02  0.00000000000E+00 0. -1.
         -3    1    6    6    0  503  0.47905666765E+03  0.98652796430E+01  0.62946440071E+03  0.79108662378E+03  0.00000000000E+00 0.  1.
<mgrwt>
<rscale>  0 0.23307368E+04</rscale>
<asrwt>0</asrwt>
<pdfrwt beam="1">  1        1 0.19840147E+00 0.23307368E+04</pdfrwt>
<pdfrwt beam="2">  1       -2 0.16201488E+00 0.23307368E+04</pdfrwt>
<totfact> 0.17721291E+00</totfact>
</mgrwt>
</event>
<event>
12    5  0.5197392E-008  0.1374567E+04  0.7818608E-02  0.8972437E-01
          1   -1    0    0  501    0  0.00000000000E+00  0.00000000000E+00  0.44908870013E+03  0.44908870013E+03  0.00000000000E+00 0. -1.
         -2   -1    0    0    0  501 -0.00000000000E+00 -0.00000000000E+00 -0.10518155768E+04  0.10518155768E+04  0.00000000000E+00 0.  1.
        -24    2    1    2    0    0  0.88603888014E+02 -0.30218507108E+03  0.44944719413E+02  0.32788444855E+03  0.79509229935E+02 0.  0.
        254    2    1    2    0    0 -0.88603888014E+02  0.30218507108E+03 -0.64767159608E+03  0.11730198284E+04  0.92592146279E+03 0.  0.
         23    2    4    4    0    0 -0.30359981082E+03  0.53585270186E+03 -0.29231983293E+03  0.68782849048E+03  0.91357453842E+02 0.  0.
         23    2    4    4    0    0  0.21499592280E+03 -0.23366763079E+03 -0.35535176316E+03  0.48519133790E+03  0.91169897988E+02 0.  0.
          3    1    3    3  502    0  0.12961565096E+02 -0.45070198472E+02  0.37034587350E+02  0.59756887639E+02  0.00000000000E+00 0. -1.
         -4    1    3    3    0  502  0.75642322918E+02 -0.25711487261E+03  0.79101320631E+01  0.26812756091E+03  0.00000000000E+00 0.  1.
         13    1    5    5    0    0 -0.21954550858E+03  0.30283608193E+03 -0.19349537321E+03  0.42112988769E+03  0.00000000000E+00 0. -1.
        -13    1    5    5    0    0 -0.84054302241E+02  0.23301661994E+03 -0.98824459716E+02  0.26669860279E+03  0.00000000000E+00 0.  1.
          1    1    6    6  503    0  0.15267084086E+03 -0.11419581102E+03 -0.16605093361E+03  0.25282796810E+03  0.00000000000E+00 0. -1.
         -1    1    6    6    0  503  0.62325081944E+02 -0.11947181977E+03 -0.18930082954E+03  0.23236336980E+03  0.00000000000E+00 0.  1.
<mgrwt>
<rscale>  0 0.13745668E+04</rscale>
<asrwt>0</asrwt>
<pdfrwt beam="1">  1        1 0.69090570E-01 0.13745668E+04</pdfrwt>
<pdfrwt beam="2">  1       -2 0.16181778E+00 0.13745668E+04</pdfrwt>
<totfact> 0.10699151E+01</totfact>
</mgrwt>
</event>
<event>
12    5  0.5197392E-008  0.2562725E+04  0.7818608E-02  0.8380974E-01
         -2   -1    0    0    0  501 -0.00000000000E+00  0.00000000000E+00  0.16483332523E+04  0.16483332523E+04  0.00000000000E+00 0.  1.
          1   -1    0    0  501    0  0.00000000000E+00 -0.00000000000E+00 -0.99609126722E+03  0.99609126722E+03  0.00000000000E+00 0. -1.
        -24    2    1    2    0    0 -0.49723322937E+03 -0.15530718671E+03  0.13059732084E+04  0.14082642821E+04  0.79253141160E+02 0.  0.
        254    2    1    2    0    0  0.49723322937E+03  0.15530718671E+03 -0.65373122342E+03  0.12361602374E+04  0.91069556570E+03 0.  0.
         23    2    4    4    0    0  0.12607125562E+03 -0.36142592080E+03 -0.15705248348E+03  0.42387081791E+03  0.92077847414E+02 0.  0.
         23    2    4    4    0    0  0.37116197375E+03  0.51673310752E+03 -0.49667873994E+03  0.81228941948E+03  0.91378417216E+02 0.  0.
          1    1    3    3  502    0 -0.21466423907E+02  0.28863651505E+01  0.27584040523E+02  0.35071608898E+02  0.00000000000E+00 0. -1.
         -2    1    3    3    0  502 -0.47576680546E+03 -0.15819355186E+03  0.12783891679E+04  0.13731926732E+04  0.00000000000E+00 0.  1.
         13    1    5    5    0    0  0.12206527958E+03 -0.26356933391E+03 -0.86177464240E+02  0.30297736153E+03  0.00000000000E+00 0.  1.
        -13    1    5    5    0    0  0.40059760362E+01 -0.97856586891E+02 -0.70875019239E+02  0.12089345637E+03  0.00000000000E+00 0. -1.
          4    1    6    6  503    0  0.35116567364E+03  0.44125761267E+03 -0.44852050505E+03  0.72055274236E+03  0.00000000000E+00 0.  1.
         -4    1    6    6    0  503  0.19996300110E+02  0.75475494849E+02 -0.48158234894E+02  0.91736677120E+02  0.00000000000E+00 0. -1.
<mgrwt>
<rscale>  0 0.25627254E+04</rscale>
<asrwt>0</asrwt>
<pdfrwt beam="1">  1        1 0.15324481E+00 0.25627254E+04</pdfrwt>
<pdfrwt beam="2">  1       -2 0.25358973E+00 0.25627254E+04</pdfrwt>
<totfact> 0.72126839E-01</totfact>
</mgrwt>
</event>
<event>
12    5  0.5197392E-008  0.2212950E+04  0.7818608E-02  0.8513057E-01
         -4   -1    0    0    0  501 -0.00000000000E+00  0.00000000000E+00  0.19007678608E+04  0.19007678608E+04  0.00000000000E+00 0.  1.
          3   -1    0    0  501    0  0.00000000000E+00 -0.00000000000E+00 -0.64410116777E+03  0.64410116777E+03  0.00000000000E+00 0. -1.
        -24    2    1    2    0    0  0.65455079397E+03 -0.22676034565E+03 -0.17316509574E+03  0.71850043421E+03  0.79998295746E+02 0.  0.
        254    2    1    2    0    0 -0.65455079397E+03  0.22676034565E+03  0.14298317888E+04  0.18263685944E+04  0.90074763508E+03 0.  0.
         23    2    4    4    0    0 -0.84115970633E+03  0.36815032610E+02  0.97654380643E+03  0.12926677866E+04  0.91908663431E+02 0.  0.
         23    2    4    4    0    0  0.18660891236E+03  0.18994531304E+03  0.45328798239E+03  0.53370080783E+03  0.92002441172E+02 0.  0.
          3    1    3    3  502    0  0.50806486797E+03 -0.19700811572E+03 -0.10842534780E+03  0.55560612287E+03  0.00000000000E+00 0. -1.
         -4    1    3    3    0  502  0.14648592601E+03 -0.29752229934E+02 -0.64739747938E+02  0.16289431134E+03  0.00000000000E+00 0.  1.
         13    1    5    5    0    0 -0.44783172241E+03  0.39056755062E+02  0.58389528587E+03  0.73689374171E+03  0.00000000000E+00 0.  1.
        -13    1    5    5    0    0 -0.39332798392E+03 -0.22417224512E+01  0.39264852056E+03  0.55577404487E+03  0.00000000000E+00 0. -1.
          3    1    6    6  503    0  0.83034149189E+02  0.78354205722E+02  0.11171309507E+03  0.15973060789E+03  0.00000000000E+00 0. -1.
         -3    1    6    6    0  503  0.10357476317E+03  0.11159110732E+03  0.34157488731E+03  0.37397019994E+03  0.00000000000E+00 0.  1.
<mgrwt>
<rscale>  0 0.22129499E+04</rscale>
<asrwt>0</asrwt>
<pdfrwt beam="1">  1        3 0.99092489E-01 0.22129499E+04</pdfrwt>
<pdfrwt beam="2">  1       -4 0.29242582E+00 0.22129499E+04</pdfrwt>
<totfact> 0.64117326E-02</totfact>
</mgrwt>
</event>
<event>
12    5  0.5197392E-008  0.1450951E+04  0.7818608E-02  0.8917742E-01
          1   -1    0    0  501    0  0.00000000000E+00  0.00000000000E+00  0.19656939410E+04  0.19656939410E+04  0.00000000000E+00 0. -1.
         -2   -1    0    0    0  501 -0.00000000000E+00 -0.00000000000E+00 -0.26774991739E+03  0.26774991739E+03  0.00000000000E+00 0.  1.
        -24    2    1    2    0    0  0.10505423968E+03  0.69942002809E+02 -0.12804037137E+03  0.19653663884E+03  0.79397963930E+02 0.  0.
        254    2    1    2    0    0 -0.10505423968E+03 -0.69942002809E+02  0.18259843950E+04  0.20369072196E+04  0.89378058454E+03 0.  0.
         23    2    4    4    0    0 -0.43128915451E+03 -0.15335525581E+03  0.58672600009E+03  0.74958260321E+03  0.89991725102E+02 0.  0.
         23    2    4    4    0    0  0.32623491482E+03  0.83413252999E+02  0.12392583949E+04  0.12873246164E+04  0.89756938839E+02 0.  0.
          3    1    3    3  502    0  0.61196663893E+01 -0.10908868912E+02 -0.38593381658E+02  0.40569728191E+02  0.00000000000E+00 0. -1.
         -4    1    3    3    0  502  0.98934573292E+02  0.80850871721E+02 -0.89446989710E+02  0.15596691065E+03  0.00000000000E+00 0.  1.
         13    1    5    5    0    0 -0.42655151993E+03 -0.16201810315E+03  0.56969213908E+03  0.72989396369E+03  0.00000000000E+00 0.  1.
        -13    1    5    5    0    0 -0.47376345777E+01  0.86628473453E+01  0.17033861011E+02  0.19688639528E+02  0.00000000000E+00 0. -1.
          2    1    6    6  503    0  0.79562375250E+02 -0.17926868816E+02  0.26997097253E+03  0.28202104565E+03  0.00000000000E+00 0. -1.
         -2    1    6    6    0  503  0.24667253957E+03  0.10134012182E+03  0.96928742238E+03  0.10053035707E+04  0.00000000000E+00 0.  1.
<mgrwt>
<rscale>  0 0.14509506E+04</rscale>
<asrwt>0</asrwt>
<pdfrwt beam="1">  1        1 0.30241444E+00 0.14509506E+04</pdfrwt>
<pdfrwt beam="2">  1       -2 0.41192296E-01 0.14509506E+04</pdfrwt>
<totfact> 0.14973864E+01</totfact>
</mgrwt>
</event>
<event>
12    5  0.5197392E-008  0.2154293E+04  0.7818608E-02  0.8537697E-01
          1   -1    0    0  501    0  0.00000000000E+00  0.00000000000E+00  0.93269930950E+03  0.93269930950E+03  0.00000000000E+00 0. -1.
         -2   -1    0    0    0  501 -0.00000000000E+00 -0.00000000000E+00 -0.12439645750E+04  0.12439645750E+04  0.00000000000E+00 0.  1.
        -24    2    1    2    0    0  0.63585348405E+03 -0.80484007220E+02  0.49719372689E+03  0.81497199236E+03  0.78679207442E+02 0.  0.
        254    2    1    2    0    0 -0.63585348405E+03  0.80484007220E+02 -0.80845899239E+03  0.13616918921E+04  0.88871341733E+03 0.  0.
         23    2    4    4    0    0  0.61825913583E+02 -0.13638264303E+03  0.92381072230E+02  0.19876072292E+03  0.92460226916E+02 0.  0.
         23    2    4    4    0    0 -0.69767939763E+03  0.21686665025E+03 -0.90084006462E+03  0.11629311692E+04  0.84311306732E+02 0.  0.
          1    1    3    3  502    0  0.22659739700E+03  0.42167755090E+01  0.19852834089E+03  0.30129331831E+03  0.00000000000E+00 0. -1.
         -2    1    3    3    0  502  0.40925608705E+03 -0.84700782729E+02  0.29866538600E+03  0.51367867405E+03  0.00000000000E+00 0.  1.
         13    1    5    5    0    0  0.77673969637E+02 -0.11126956309E+03  0.45230792990E+02  0.14303840695E+03  0.00000000000E+00 0. -1.
        -13    1    5    5    0    0 -0.15848056055E+02 -0.25113079938E+02  0.47150279240E+02  0.55722315970E+02  0.00000000000E+00 0.  1.
          1    1    6    6  503    0 -0.68693975811E+03  0.22363962800E+03 -0.88947017983E+03  0.11458874793E+04  0.00000000000E+00 0. -1.
         -1    1    6    6    0  503 -0.10739639515E+02 -0.67729777549E+01 -0.11369884787E+02  0.17043689878E+02  0.00000000000E+00 0.  1.
<mgrwt>
<rscale>  0 0.21542933E+04</rscale>
<asrwt>0</asrwt>
<pdfrwt beam="1">  1        1 0.14349220E+00 0.21542933E+04</pdfrwt>
<pdfrwt beam="2">  1       -2 0.19137916E+00 0.21542933E+04</pdfrwt>
<totfact> 0.20832270E+00</totfact>
</mgrwt>
</event>
<event>
12    5  0.5197392E-008  0.1846978E+04  0.7818608E-02  0.8681709E-01
         -2   -1    0    0    0  501 -0.00000000000E+00  0.00000000000E+00  0.13046093221E+04  0.13046093221E+04  0.00000000000E+00 0.  1.
          1   -1    0    0  501    0  0.00000000000E+00 -0.00000000000E+00 -0.65370666487E+03  0.65370666487E+03  0.00000000000E+00 0. -1.
        -24    2    1    2    0    0 -0.46308245990E+03 -0.13605194818E+03 -0.29471552196E+03  0.57135137475E+03  0.81422707420E+02 0.  0.
        254    2    1    2    0    0  0.46308245990E+03  0.13605194818E+03  0.94561817924E+03  0.13869646123E+04  0.89248058662E+03 0.  0.
         23    2    4    4    0    0  0.25523226516E+03  0.50419641770E+03  0.63369479252E+03  0.85394039111E+03  0.91036062601E+02 0.  0.
         23    2    4    4    0    0  0.20785019473E+03 -0.36814446953E+03  0.31192338672E+03  0.53302422115E+03  0.89925342698E+02 0.  0.
          3    1    3    3  502    0 -0.37942051894E+03 -0.82801188349E+02 -0.21350117649E+03  0.44316895124E+03  0.00000000000E+00 0. -1.
         -4    1    3    3    0  502 -0.83661940958E+02 -0.53250759830E+02 -0.81214345468E+02  0.12818242351E+03  0.00000000000E+00 0.  1.
         13    1    5    5    0    0  0.21487023247E+03  0.36697087704E+03  0.51640389498E+03  0.66896175088E+03  0.00000000000E+00 0. -1.
        -13    1    5    5    0    0  0.40362032698E+02  0.13722554066E+03  0.11729089754E+03  0.18497864023E+03  0.00000000000E+00 0.  1.
          1    1    6    6  503    0  0.49756744237E+02 -0.17788531695E+03  0.14011396927E+03  0.23184228253E+03  0.00000000000E+00 0. -1.
         -1    1    6    6    0  503  0.15809345050E+03 -0.19025915257E+03  0.17180941745E+03  0.30118193862E+03  0.00000000000E+00 0.  1.
<mgrwt>
<rscale>  0 0.18469779E+04</rscale>
<asrwt>0</asrwt>
<pdfrwt beam="1">  1        1 0.10057026E+00 0.18469779E+04</pdfrwt>
<pdfrwt beam="2">  1       -2 0.20070913E+00 0.18469779E+04</pdfrwt>
<totfact> 0.32679266E+00</totfact>
</mgrwt>
</event>
<event>
12    5  0.5197392E-008  0.1746130E+04  0.7818608E-02  0.8735483E-01
         -2   -1    0    0    0  501 -0.00000000000E+00  0.00000000000E+00  0.51848282249E+03  0.51848282249E+03  0.00000000000E+00 0.  1.
          1   -1    0    0  501    0  0.00000000000E+00 -0.00000000000E+00 -0.14701400124E+04  0.14701400124E+04  0.00000000000E+00 0. -1.
        -24    2    1    2    0    0 -0.71083766523E+02  0.61945950069E+02 -0.10734455961E+04  0.10806406169E+04  0.81292636087E+02 0.  0.
        254    2    1    2    0    0  0.71083766523E+02 -0.61945950069E+02  0.12178840618E+03  0.90798221792E+03  0.89482349633E+03 0.  0.
         23    2    4    4    0    0 -0.48975458590E+01 -0.17117115698E+03  0.47778395311E+03  0.51615409870E+03  0.93882888889E+02 0.  0.
         23    2    4    4    0    0  0.75981312382E+02  0.10922520691E+03 -0.35599554693E+03  0.39182811922E+03  0.95357956796E+02 0.  0.
          3    1    3    3  502    0  0.19258372853E+01  0.27220404499E+02 -0.57784892389E+03  0.57849290238E+03  0.00000000000E+00 0. -1.
         -4    1    3    3    0  502 -0.73009603808E+02  0.34725545570E+02 -0.49559667217E+03  0.50214771455E+03  0.00000000000E+00 0.  1.
         13    1    5    5    0    0 -0.18690866945E+02 -0.10380428431E+03  0.39343280331E+03  0.40732548246E+03  0.00000000000E+00 0.  1.
        -13    1    5    5    0    0  0.13793321086E+02 -0.67366872669E+02  0.84351149799E+02  0.10882861624E+03  0.00000000000E+00 0. -1.
          4    1    6    6  503    0  0.13454601522E+02 -0.41302621190E+01 -0.11683520301E+01  0.14122691449E+02  0.00000000000E+00 0. -1.
         -4    1    6    6    0  503  0.62526710860E+02  0.11335546903E+03 -0.35482719490E+03  0.37770542777E+03  0.00000000000E+00 0.  1.
<mgrwt>
<rscale>  0 0.17461298E+04</rscale>
<asrwt>0</asrwt>
<pdfrwt beam="1">  1        1 0.22617538E+00 0.17461298E+04</pdfrwt>
<pdfrwt beam="2">  1       -2 0.79766589E-01 0.17461298E+04</pdfrwt>
<totfact> 0.79419590E+00</totfact>
</mgrwt>
</event>
<event>
12    5  0.5197392E-008  0.1463497E+04  0.7818608E-02  0.8909097E-01
          1   -1    0    0  501    0  0.00000000000E+00  0.00000000000E+00  0.18323841718E+04  0.18323841718E+04  0.00000000000E+00 0. -1.
         -2   -1    0    0    0  501 -0.00000000000E+00 -0.00000000000E+00 -0.29221797482E+03  0.29221797482E+03  0.00000000000E+00 0.  1.
        -24    2    1    2    0    0  0.37021599584E+03 -0.25509125242E+03  0.38860647758E+03  0.59959441535E+03  0.79793720717E+02 0.  0.
        254    2    1    2    0    0 -0.37021599584E+03  0.25509125242E+03  0.11515597194E+04  0.15250077312E+04  0.89298788483E+03 0.  0.
         23    2    4    4    0    0  0.88023148221E+02  0.76835207269E+02  0.98766674481E+03  0.99886732508E+03  0.92728693506E+02 0.  0.
         23    2    4    4    0    0 -0.45823914406E+03  0.17825604515E+03  0.16389297456E+03  0.52614040617E+03  0.90578634981E+02 0.  0.
          3    1    3    3  502    0  0.49774088372E+02 -0.63396393828E+01  0.32301729452E+02  0.59674555937E+02  0.00000000000E+00 0. -1.
         -4    1    3    3    0  502  0.32044190747E+03 -0.24875161304E+03  0.35630474812E+03  0.53991985941E+03  0.00000000000E+00 0.  1.
         13    1    5    5    0    0  0.56918605814E+02  0.95222689016E+02  0.66583854444E+03  0.67501707790E+03  0.00000000000E+00 0. -1.
        -13    1    5    5    0    0  0.31104542406E+02 -0.18387481747E+02  0.32182820037E+03  0.32385024718E+03  0.00000000000E+00 0.  1.
          3    1    6    6  503    0 -0.39196131745E+03  0.13799987073E+03  0.10455505253E+03  0.42849667176E+03  0.00000000000E+00 0. -1.
         -3    1    6    6    0  503 -0.66277826608E+02  0.40256174421E+02  0.59337922031E+02  0.97643734412E+02  0.00000000000E+00 0.  1.
<mgrwt>
<rscale>  0 0.14634966E+04</rscale>
<asrwt>0</asrwt>
<pdfrwt beam="1">  1        1 0.28190525E+00 0.14634966E+04</pdfrwt>
<pdfrwt beam="2">  1       -2 0.44956613E-01 0.14634966E+04</pdfrwt>
<totfact> 0.15480047E+01</totfact>
</mgrwt>
</event>
<event>
12    5  0.5197392E-008  0.1813150E+04  0.7818608E-02  0.8699337E-01
          1   -1    0    0  501    0  0.00000000000E+00  0.00000000000E+00  0.19770198742E+04  0.19770198742E+04  0.00000000000E+00 0. -1.
         -2   -1    0    0    0  501 -0.00000000000E+00 -0.00000000000E+00 -0.41571591455E+03  0.41571591455E+03  0.00000000000E+00 0.  1.
        -24    2    1    2    0    0 -0.45524373370E+03  0.23130885064E+03  0.11917561998E+04  0.12990871642E+04  0.81203317627E+02 0.  0.
        254    2    1    2    0    0  0.45524373370E+03 -0.23130885064E+03  0.36954775977E+03  0.10936486245E+04  0.89372877639E+03 0.  0.
         23    2    4    4    0    0  0.59652094024E+03 -0.43369983189E+03  0.36953940908E+03  0.83002376810E+03  0.91909218308E+02 0.  0.
         23    2    4    4    0    0 -0.14127720654E+03  0.20239098125E+03  0.83506868970E-02  0.26362485645E+03  0.92610509603E+02 0.  0.
          1    1    3    3  502    0 -0.41717407538E+03  0.23463840012E+03  0.10936307561E+04  0.11937829027E+04  0.00000000000E+00 0. -1.
         -2    1    3    3    0  502 -0.38069658326E+02 -0.33295494756E+01  0.98125443725E+02  0.10530426150E+03  0.00000000000E+00 0.  1.
         13    1    5    5    0    0  0.11789190296E+03 -0.10393709986E+03  0.41255519749E+02  0.16249135183E+03  0.00000000000E+00 0. -1.
        -13    1    5    5    0    0  0.47862903728E+03 -0.32976273203E+03  0.32828388934E+03  0.66753241626E+03  0.00000000000E+00 0.  1.
          4    1    6    6  503    0 -0.64130701930E+02  0.76177148614E+02  0.44623618878E+02  0.10911907378E+03  0.00000000000E+00 0. -1.
         -4    1    6    6    0  503 -0.77146504610E+02  0.12621383263E+03 -0.44615268191E+02  0.15450578267E+03  0.00000000000E+00 0.  1.
<mgrwt>
<rscale>  0 0.18131504E+04</rscale>
<asrwt>0</asrwt>
<pdfrwt beam="1">  1        1 0.30415690E+00 0.18131504E+04</pdfrwt>
<pdfrwt beam="2">  1       -2 0.63956295E-01 0.18131504E+04</pdfrwt>
<totfact> 0.57792389E+00</totfact>
</mgrwt>
</event>
<event>
12    5  0.5197392E-008  0.1951989E+04  0.7818608E-02  0.8629402E-01
         -2   -1    0    0    0  501 -0.00000000000E+00  0.00000000000E+00  0.61299578935E+03  0.61299578935E+03  0.00000000000E+00 0.  1.
          1   -1    0    0  501    0  0.00000000000E+00 -0.00000000000E+00 -0.15539501360E+04  0.15539501360E+04  0.00000000000E+00 0. -1.
        -24    2    1    2    0    0  0.34796806617E+03 -0.40893256444E+03  0.23360264536E+03  0.59090308067E+03  0.79300929943E+02 0.  0.
        254    2    1    2    0    0 -0.34796806617E+03  0.40893256444E+03 -0.11745569920E+04  0.15760428447E+04  0.90333786783E+03 0.  0.
         23    2    4    4    0    0 -0.97686178885E+02  0.65780163821E+03 -0.88359735924E+03  0.11095824734E+04  0.90462076586E+02 0.  0.
         23    2    4    4    0    0 -0.25028188728E+03 -0.24886907377E+03 -0.29095963275E+03  0.46646037124E+03  0.91383428851E+02 0.  0.
          1    1    3    3  502    0  0.81622803658E+02 -0.50366400322E+02  0.35371542506E+02  0.10222623136E+03  0.00000000000E+00 0. -1.
         -2    1    3    3    0  502  0.26634526251E+03 -0.35856616411E+03  0.19823110285E+03  0.48867684931E+03  0.00000000000E+00 0.  1.
         13    1    5    5    0    0  0.99440446943E+01  0.20767246372E+03 -0.29207230486E+03  0.35851494736E+03  0.00000000000E+00 0. -1.
        -13    1    5    5    0    0 -0.10763022358E+03  0.45012917449E+03 -0.59152505438E+03  0.75106752607E+03  0.00000000000E+00 0.  1.
          1    1    6    6  503    0 -0.45152313728E+02 -0.82231488120E+02 -0.11741396739E+03  0.15028901760E+03  0.00000000000E+00 0. -1.
         -1    1    6    6    0  503 -0.20512957356E+03 -0.16663758565E+03 -0.17354566537E+03  0.31617135365E+03  0.00000000000E+00 0.  1.
<mgrwt>
<rscale>  0 0.19519886E+04</rscale>
<asrwt>0</asrwt>
<pdfrwt beam="1">  1        1 0.23906925E+00 0.19519886E+04</pdfrwt>
<pdfrwt beam="2">  1       -2 0.94307044E-01 0.19519886E+04</pdfrwt>
<totfact> 0.46531890E+00</totfact>
</mgrwt>
</event>
<event>
12    5  0.5197392E-008  0.3415564E+04  0.7818608E-02  0.8134097E-01
         -4   -1    0    0    0  501 -0.00000000000E+00  0.00000000000E+00  0.72097062402E+03  0.72097062402E+03  0.00000000000E+00 0.  1.
          3   -1    0    0  501    0  0.00000000000E+00 -0.00000000000E+00 -0.40452668122E+04  0.40452668122E+04  0.00000000000E+00 0. -1.
        -24    2    1    2    0    0 -0.11761838176E+04  0.53993161943E+03 -0.28590107510E+04  0.31393235534E+04  0.80469699317E+02 0.  0.
        254    2    1    2    0    0  0.11761838176E+04 -0.53993161943E+03 -0.46528543718E+03  0.16269138827E+04  0.86915114755E+03 0.  0.
         23    2    4    4    0    0 -0.82418553071E+02 -0.22884206000E+03 -0.83236139972E+02  0.27301217368E+03  0.91901499796E+02 0.  0.
         23    2    4    4    0    0  0.12586023707E+04 -0.31108955943E+03 -0.38204929721E+03  0.13539017091E+04  0.78940045430E+02 0.  0.
          1    1    3    3  502    0 -0.65701549985E+03  0.25877021198E+03 -0.15340504869E+04  0.16887694591E+04  0.00000000000E+00 0. -1.
         -2    1    3    3    0  502 -0.51916831779E+03  0.28116140745E+03 -0.13249602641E+04  0.14505540943E+04  0.00000000000E+00 0.  1.
         13    1    5    5    0    0 -0.55086296775E+02 -0.37291322037E+02 -0.20884781085E+02  0.69723144454E+02  0.00000000000E+00 0. -1.
        -13    1    5    5    0    0 -0.27332256296E+02 -0.19155073796E+03 -0.62351358887E+02  0.20328902923E+03  0.00000000000E+00 0.  1.
          1    1    6    6  503    0  0.11619093235E+04 -0.30188548908E+03 -0.33738929689E+03  0.12469962559E+04  0.00000000000E+00 0. -1.
         -1    1    6    6    0  503  0.96693047195E+02 -0.92040703463E+01 -0.44660000318E+02  0.10690545316E+03  0.00000000000E+00 0.  1.
<mgrwt>
<rscale>  0 0.34155635E+04</rscale>
<asrwt>0</asrwt>
<pdfrwt beam="1">  1        3 0.62234873E+00 0.34155635E+04</pdfrwt>
<pdfrwt beam="2">  1       -4 0.11091856E+00 0.34155635E+04</pdfrwt>
<totfact> 0.10585063E-03</totfact>
</mgrwt>
</event>
<event>
12    5  0.5197392E-008  0.3596659E+04  0.7818608E-02  0.8091257E-01
          1   -1    0    0  501    0  0.00000000000E+00  0.00000000000E+00  0.26839249794E+04  0.26839249794E+04  0.00000000000E+00 0. -1.
         -2   -1    0    0    0  501 -0.00000000000E+00 -0.00000000000E+00 -0.12049476792E+04  0.12049476792E+04  0.00000000000E+00 0.  1.
        -24    2    1    2    0    0 -0.78703008195E+03 -0.41938674617E+03 -0.85236489241E+03  0.12362446400E+04  0.80456866980E+02 0.  0.
        254    2    1    2    0    0  0.78703008195E+03  0.41938674617E+03  0.23313421926E+04  0.26526280185E+04  0.89776243672E+03 0.  0.
         23    2    4    4    0    0  0.16687179163E+03  0.38086045575E+03  0.28658775322E+03  0.51366032455E+03  0.93880280780E+02 0.  0.
         23    2    4    4    0    0  0.62015829032E+03  0.38526290422E+02  0.20447544394E+04  0.21389676940E+04  0.89897154041E+02 0.  0.
          1    1    3    3  502    0 -0.10430992696E+03 -0.58492055732E+02 -0.78935738614E+02  0.14329247111E+03  0.00000000000E+00 0. -1.
         -2    1    3    3    0  502 -0.68272015499E+03 -0.36089469044E+03 -0.77342915380E+03  0.10929521689E+04  0.00000000000E+00 0.  1.
         13    1    5    5    0    0 -0.37189254736E+01  0.81171701635E+02  0.48815015785E+02  0.94792306223E+02  0.00000000000E+00 0. -1.
        -13    1    5    5    0    0  0.17059071711E+03  0.29968875412E+03  0.23777273743E+03  0.41886801832E+03  0.00000000000E+00 0.  1.
          4    1    6    6  503    0  0.17276255416E+03  0.48351091885E+02  0.53412887761E+03  0.56345220392E+03  0.00000000000E+00 0. -1.
         -4    1    6    6    0  503  0.44739573616E+03 -0.98248014631E+01  0.15106255618E+04  0.15755154901E+04  0.00000000000E+00 0.  1.
<mgrwt>
<rscale>  0 0.35966591E+04</rscale>
<asrwt>0</asrwt>
<pdfrwt beam="1">  1        1 0.41291153E+00 0.35966591E+04</pdfrwt>
<pdfrwt beam="2">  1       -2 0.18537657E+00 0.35966591E+04</pdfrwt>
<totfact> 0.11948915E-01</totfact>
</mgrwt>
</event>
<event>
12    5  0.5267594E-008  0.1538044E+04  0.7818608E-02  0.8859541E-01
         -2   -1    0    0    0  501 -0.00000000000E+00  0.00000000000E+00  0.48018537753E+03  0.48018537753E+03  0.00000000000E+00 0.  1.
          1   -1    0    0  501    0  0.00000000000E+00 -0.00000000000E+00 -0.12315972088E+04  0.12315972088E+04  0.00000000000E+00 0. -1.
        -24    2    1    2    0    0  0.25092168102E+03  0.70944678707E+02 -0.72562627369E+03  0.77524272786E+03  0.80454711413E+02 0.  0.
        254    2    1    2    0    0 -0.25092168102E+03 -0.70944678707E+02 -0.25785557581E+02  0.93653985848E+03  0.89913690509E+03 0.  0.
         23    2    4    4    0    0 -0.38389233537E+03 -0.62788679281E+01 -0.37639114590E+03  0.54533262565E+03  0.91129734749E+02 0.  0.
         23    2    4    4    0    0  0.13297065435E+03 -0.64665810779E+02  0.35060558832E+03  0.39120723283E+03  0.90862304910E+02 0.  0.
          1    1    3    3  502    0  0.24864906243E+03  0.58556962570E+02 -0.71312370996E+03  0.75749633650E+03  0.00000000000E+00 0. -1.
         -2    1    3    3    0  502  0.22726185910E+01  0.12387716138E+02 -0.12502563738E+02  0.17746391362E+02  0.00000000000E+00 0.  1.
         13    1    5    5    0    0 -0.20515137020E+03 -0.23828547839E+02 -0.25685286588E+03  0.32958804453E+03  0.00000000000E+00 0. -1.
        -13    1    5    5    0    0 -0.17874096517E+03  0.17549679911E+02 -0.11953828002E+03  0.21574458113E+03  0.00000000000E+00 0.  1.
          4    1    6    6  503    0  0.69596530704E+02 -0.19635891685E+01  0.23572769324E+03  0.24579478866E+03  0.00000000000E+00 0. -1.
         -4    1    6    6    0  503  0.63374123646E+02 -0.62702221611E+02  0.11487789507E+03  0.14541244417E+03  0.00000000000E+00 0.  1.
<mgrwt>
<rscale>  0 0.15380442E+04</rscale>
<asrwt>0</asrwt>
<pdfrwt beam="1">  1        1 0.18947649E+00 0.15380442E+04</pdfrwt>
<pdfrwt beam="2">  1       -2 0.73874675E-01 0.15380442E+04</pdfrwt>
<totfact> 0.14153429E+01</totfact>
</mgrwt>
</event>
<event>
12    5  0.5197392E-008  0.1126914E+04  0.7818608E-02  0.9179350E-01
         -2   -1    0    0    0  501 -0.00000000000E+00  0.00000000000E+00  0.14003430034E+03  0.14003430034E+03  0.00000000000E+00 0.  1.
          1   -1    0    0  501    0  0.00000000000E+00 -0.00000000000E+00 -0.22671851995E+04  0.22671851995E+04  0.00000000000E+00 0. -1.
        -24    2    1    2    0    0 -0.60140196862E+02  0.10357055006E+03 -0.71523310943E+02  0.16036498686E+03  0.79105264574E+02 0.  0.
        254    2    1    2    0    0  0.60140196862E+02 -0.10357055006E+03 -0.20556275882E+04  0.22468545130E+04  0.89911440816E+03 0.  0.
         23    2    4    4    0    0 -0.14232683142E+03  0.27346294736E+03 -0.15212397767E+04  0.15547527646E+04  0.89703903578E+02 0.  0.
         23    2    4    4    0    0  0.20246702828E+03 -0.37703349742E+03 -0.53438781154E+03  0.69210174841E+03  0.10142653156E+03 0.  0.
          1    1    3    3  502    0  0.14073461125E+02  0.58876610853E+01  0.46676681375E+01  0.15953494505E+02  0.00000000000E+00 0. -1.
         -2    1    3    3    0  502 -0.74213657987E+02  0.97682888978E+02 -0.76190979081E+02  0.14441149236E+03  0.00000000000E+00 0.  1.
         13    1    5    5    0    0 -0.13557546376E+03  0.23394308111E+03 -0.14261636246E+04  0.14515690668E+04  0.00000000000E+00 0. -1.
        -13    1    5    5    0    0 -0.67513676584E+01  0.39519866252E+02 -0.95076152089E+02  0.10318369779E+03  0.00000000000E+00 0.  1.
          3    1    6    6  503    0  0.11901837350E+03 -0.30916694809E+03 -0.42254026135E+03  0.53692629614E+03  0.00000000000E+00 0. -1.
         -3    1    6    6    0  503  0.83448654778E+02 -0.67866549327E+02 -0.11184755019E+03  0.15517545227E+03  0.00000000000E+00 0.  1.
<mgrwt>
<rscale>  0 0.11269138E+04</rscale>
<asrwt>0</asrwt>
<pdfrwt beam="1">  1        1 0.34879773E+00 0.11269138E+04</pdfrwt>
<pdfrwt beam="2">  1       -2 0.21543738E-01 0.11269138E+04</pdfrwt>
<totfact> 0.32246178E+01</totfact>
</mgrwt>
</event>
<event>
12    5  0.5197392E-008  0.1677071E+04  0.7818608E-02  0.8774551E-01
         -2   -1    0    0    0  501 -0.00000000000E+00  0.00000000000E+00  0.46245494065E+03  0.46245494065E+03  0.00000000000E+00 0.  1.
          1   -1    0    0  501    0  0.00000000000E+00 -0.00000000000E+00 -0.15204552847E+04  0.15204552847E+04  0.00000000000E+00 0. -1.
        -24    2    1    2    0    0  0.17747776088E+03 -0.10008182518E+03 -0.10677970187E+04  0.10901155172E+04  0.81526929601E+02 0.  0.
        254    2    1    2    0    0 -0.17747776088E+03  0.10008182518E+03  0.97966746391E+01  0.89279470822E+03  0.86917874390E+03 0.  0.
         23    2    4    4    0    0 -0.12909293073E+03  0.84643577408E+01 -0.41627298896E+03  0.44567043601E+03  0.92748617699E+02 0.  0.
         23    2    4    4    0    0 -0.48384830155E+02  0.91617467442E+02  0.42606966360E+03  0.44712427220E+03  0.87463732059E+02 0.  0.
          1    1    3    3  502    0  0.15447395639E+03 -0.55265090577E+02 -0.70501350314E+03  0.72385114012E+03  0.00000000000E+00 0. -1.
         -2    1    3    3    0  502  0.23003804490E+02 -0.44816734605E+02 -0.36278351557E+03  0.36626437705E+03  0.00000000000E+00 0.  1.
         13    1    5    5    0    0 -0.32777717320E+01  0.12760055809E+02 -0.28145037240E+01  0.13471608775E+02  0.00000000000E+00 0.  1.
        -13    1    5    5    0    0 -0.12581515900E+03 -0.42956980679E+01 -0.41345848523E+03  0.43219882724E+03  0.00000000000E+00 0. -1.
          1    1    6    6  503    0 -0.13112805234E+02  0.78857435131E+02  0.37688157556E+03  0.38526635298E+03  0.00000000000E+00 0. -1.
         -1    1    6    6    0  503 -0.35272024921E+02  0.12760032311E+02  0.49188088033E+02  0.61857919226E+02  0.00000000000E+00 0.  1.
<mgrwt>
<rscale>  0 0.16770713E+04</rscale>
<asrwt>0</asrwt>
<pdfrwt beam="1">  1        1 0.23391620E+00 0.16770713E+04</pdfrwt>
<pdfrwt beam="2">  1       -2 0.71146915E-01 0.16770713E+04</pdfrwt>
<totfact> 0.95030039E+00</totfact>
</mgrwt>
</event>
<event>
12    5  0.5197392E-008  0.2872425E+04  0.7818608E-02  0.8281129E-01
          1   -1    0    0  501    0  0.00000000000E+00  0.00000000000E+00  0.12638253987E+04  0.12638253987E+04  0.00000000000E+00 0. -1.
         -2   -1    0    0    0  501 -0.00000000000E+00 -0.00000000000E+00 -0.16321139318E+04  0.16321139318E+04  0.00000000000E+00 0.  1.
        -24    2    1    2    0    0  0.12341659858E+04 -0.14101216266E+03 -0.53338073798E+03  0.13542077252E+04  0.79582917348E+02 0.  0.
        254    2    1    2    0    0 -0.12341659858E+04  0.14101216266E+03  0.16509220484E+03  0.15417316053E+04  0.89812626957E+03 0.  0.
         23    2    4    4    0    0 -0.45280540309E+03 -0.11233561899E+03 -0.32905147448E+03  0.57869026168E+03  0.94633618472E+02 0.  0.
         23    2    4    4    0    0 -0.78136058276E+03  0.25334778166E+03  0.49414367931E+03  0.96304134364E+03  0.92526725774E+02 0.  0.
          1    1    3    3  502    0  0.11559440765E+04 -0.13309142586E+03 -0.51986276663E+03  0.12744321606E+04  0.00000000000E+00 0. -1.
         -2    1    3    3    0  502  0.78221909297E+02 -0.79207368059E+01 -0.13517971349E+02  0.79775564649E+02  0.00000000000E+00 0.  1.
         13    1    5    5    0    0 -0.15801749438E+03 -0.21813717197E+02 -0.16457718906E+03  0.22919646147E+03  0.00000000000E+00 0.  1.
        -13    1    5    5    0    0 -0.29478790870E+03 -0.90521901798E+02 -0.16447428541E+03  0.34949380021E+03  0.00000000000E+00 0. -1.
          2    1    6    6  503    0 -0.12044878074E+03  0.69814321465E+02  0.10541321503E+03  0.17462501014E+03  0.00000000000E+00 0. -1.
         -2    1    6    6    0  503 -0.66091180202E+03  0.18353346020E+03  0.38873046429E+03  0.78841633350E+03  0.00000000000E+00 0.  1.
<mgrwt>
<rscale>  0 0.28724255E+04</rscale>
<asrwt>0</asrwt>
<pdfrwt beam="1">  1        1 0.19443468E+00 0.28724255E+04</pdfrwt>
<pdfrwt beam="2">  1       -2 0.25109445E+00 0.28724255E+04</pdfrwt>
<totfact> 0.45890789E-01</totfact>
</mgrwt>
</event>
<event>
12    5  0.5197392E-008  0.1606695E+04  0.7818608E-02  0.8816445E-01
          1   -1    0    0  501    0  0.00000000000E+00  0.00000000000E+00  0.48230209235E+03  0.48230209235E+03  0.00000000000E+00 0. -1.
         -2   -1    0    0    0  501 -0.00000000000E+00 -0.00000000000E+00 -0.13380982425E+04  0.13380982425E+04  0.00000000000E+00 0.  1.
        -24    2    1    2    0    0  0.20646708433E+02 -0.45955166821E+03 -0.62666965942E+03  0.78137684597E+03  0.78872625502E+02 0.  0.
        254    2    1    2    0    0 -0.20646708433E+02  0.45955166821E+03 -0.22912649072E+03  0.10390234889E+04  0.90302648872E+03 0.  0.
         23    2    4    4    0    0 -0.53866606877E+02 -0.26120138119E+03 -0.23976383120E+02  0.28324431124E+03  0.92329302109E+02 0.  0.
         23    2    4    4    0    0  0.33219898445E+02  0.72075304940E+03 -0.20515010760E+03  0.75577917762E+03  0.92342183218E+02 0.  0.
          3    1    3    3  502    0  0.30857056022E+02 -0.32709929134E+03 -0.49667479360E+03  0.59550982771E+03  0.00000000000E+00 0. -1.
         -4    1    3    3    0  502 -0.10210347590E+02 -0.13245237687E+03 -0.12999486582E+03  0.18586701826E+03  0.00000000000E+00 0.  1.
         13    1    5    5    0    0 -0.63773157734E+02 -0.20877924088E+03 -0.49895246037E+02  0.22393151330E+03  0.00000000000E+00 0. -1.
        -13    1    5    5    0    0  0.99065508570E+01 -0.52422140311E+02  0.25918862917E+02  0.59312797941E+02  0.00000000000E+00 0.  1.
          4    1    6    6  503    0  0.40338978128E+02  0.41525158499E+03 -0.16020135170E+03  0.44690668498E+03  0.00000000000E+00 0. -1.
         -4    1    6    6    0  503 -0.71190796834E+01  0.30550146441E+03 -0.44948755900E+02  0.30887249264E+03  0.00000000000E+00 0.  1.
<mgrwt>
<rscale>  0 0.16066955E+04</rscale>
<asrwt>0</asrwt>
<pdfrwt beam="1">  1        1 0.74200322E-01 0.16066955E+04</pdfrwt>
<pdfrwt beam="2">  1       -2 0.20586127E+00 0.16066955E+04</pdfrwt>
<totfact> 0.47540746E+00</totfact>
</mgrwt>
</event>
<event>
12    5  0.5197392E-008  0.1234004E+04  0.7818608E-02  0.9083602E-01
         -4   -1    0    0    0  501 -0.00000000000E+00  0.00000000000E+00  0.71499050583E+03  0.71499050583E+03  0.00000000000E+00 0.  1.
          3   -1    0    0  501    0  0.00000000000E+00 -0.00000000000E+00 -0.53244303002E+03  0.53244303002E+03  0.00000000000E+00 0. -1.
        -24    2    1    2    0    0 -0.84267807184E+02 -0.20099421291E+03 -0.15008360708E+03  0.27635317954E+03  0.79663377894E+02 0.  0.
        254    2    1    2    0    0  0.84267807184E+02  0.20099421291E+03  0.33263108289E+03  0.97108035630E+03  0.88591979554E+03 0.  0.
         23    2    4    4    0    0 -0.35024343785E+03  0.79571700803E+02  0.35145966643E+03  0.51070964413E+03  0.91095126974E+02 0.  0.
         23    2    4    4    0    0  0.43451124503E+03  0.12142251211E+03 -0.18828583539E+02  0.46037071217E+03  0.89684048520E+02 0.  0.
          3    1    3    3  502    0 -0.86915247741E+02 -0.18993441687E+03 -0.11283012371E+03  0.23740256911E+03  0.00000000000E+00 0. -1.
         -2    1    3    3    0  502  0.26474405572E+01 -0.11059796042E+02 -0.37253483376E+02  0.38950610440E+02  0.00000000000E+00 0.  1.
         13    1    5    5    0    0 -0.11926749101E+02  0.16447571837E+02  0.47032491076E+02  0.51233047735E+02  0.00000000000E+00 0.  1.
        -13    1    5    5    0    0 -0.33831668875E+03  0.63124128966E+02  0.30442717536E+03  0.45947659640E+03  0.00000000000E+00 0. -1.
          2    1    6    6  503    0  0.36119779218E+03  0.12571627239E+03 -0.38385959023E+02  0.38437209585E+03  0.00000000000E+00 0. -1.
         -2    1    6    6    0  503  0.73313452852E+02 -0.42937602797E+01  0.19557375484E+02  0.75998616318E+02  0.00000000000E+00 0.  1.
<mgrwt>
<rscale>  0 0.12340044E+04</rscale>
<asrwt>0</asrwt>
<pdfrwt beam="1">  1        3 0.81914312E-01 0.12340044E+04</pdfrwt>
<pdfrwt beam="2">  1       -4 0.10999854E+00 0.12340044E+04</pdfrwt>
<totfact> 0.20382208E+00</totfact>
</mgrwt>
</event>
<event>
12    5  0.5197392E-008  0.1659870E+04  0.7818608E-02  0.8784589E-01
         -2   -1    0    0    0  501 -0.00000000000E+00  0.00000000000E+00  0.11096104825E+04  0.11096104825E+04  0.00000000000E+00 0.  1.
          1   -1    0    0  501    0  0.00000000000E+00 -0.00000000000E+00 -0.62075101431E+03  0.62075101431E+03  0.00000000000E+00 0. -1.
        -24    2    1    2    0    0 -0.25619126387E+03  0.50248364381E+03  0.58392872305E+02  0.57266439111E+03  0.80068728754E+02 0.  0.
        254    2    1    2    0    0  0.25619126387E+03 -0.50248364381E+03  0.43046659585E+03  0.11576971057E+04  0.91478812975E+03 0.  0.
         23    2    4    4    0    0  0.56840184192E+03 -0.46275528178E+03  0.36458752277E+03  0.82364482833E+03  0.90794475358E+02 0.  0.
         23    2    4    4    0    0 -0.31221057805E+03 -0.39728362027E+02  0.65879073081E+02  0.33405227733E+03  0.90537748636E+02 0.  0.
          3    1    3    3  502    0 -0.14963649600E+03  0.28154185043E+03 -0.66036754143E+01  0.31890516303E+03  0.00000000000E+00 0. -1.
         -4    1    3    3    0  502 -0.10655476788E+03  0.22094179338E+03  0.64996547719E+02  0.25375922808E+03  0.00000000000E+00 0.  1.
         13    1    5    5    0    0  0.24868920593E+03 -0.24437726549E+03  0.20806972421E+03  0.40602903735E+03  0.00000000000E+00 0. -1.
        -13    1    5    5    0    0  0.31971263599E+03 -0.21837801629E+03  0.15651779856E+03  0.41761579098E+03  0.00000000000E+00 0.  1.
          2    1    6    6  503    0 -0.19418834300E+03  0.19975178317E+02  0.40828779795E+02  0.19943698144E+03  0.00000000000E+00 0. -1.
         -2    1    6    6    0  503 -0.11802223505E+03 -0.59703540344E+02  0.25050293286E+02  0.13461529589E+03  0.00000000000E+00 0.  1.
<mgrwt>
<rscale>  0 0.16598697E+04</rscale>
<asrwt>0</asrwt>
<pdfrwt beam="1">  1        1 0.95500156E-01 0.16598697E+04</pdfrwt>
<pdfrwt beam="2">  1       -2 0.17070931E+00 0.16598697E+04</pdfrwt>
<totfact> 0.57343603E+00</totfact>
</mgrwt>
</event>
<event>
12    5  0.5197392E-008  0.2271993E+04  0.7818608E-02  0.8489047E-01
          1   -1    0    0  501    0  0.00000000000E+00  0.00000000000E+00  0.12964795087E+04  0.12964795087E+04  0.00000000000E+00 0. -1.
         -2   -1    0    0    0  501 -0.00000000000E+00 -0.00000000000E+00 -0.99537845737E+03  0.99537845737E+03  0.00000000000E+00 0.  1.
        -24    2    1    2    0    0  0.23541963086E+03 -0.30266105338E+03  0.10065610360E+04  0.10800856371E+04  0.79960917859E+02 0.  0.
        254    2    1    2    0    0 -0.23541963086E+03  0.30266105338E+03 -0.70545998467E+03  0.12117723290E+04  0.90757493990E+03 0.  0.
         23    2    4    4    0    0  0.58320328591E+02  0.34089696190E+03 -0.80934587374E+03  0.88479153009E+03  0.90572120477E+02 0.  0.
         23    2    4    4    0    0 -0.29373995945E+03 -0.38235908522E+02  0.10388588907E+03  0.32698079891E+03  0.91536967566E+02 0.  0.
          3    1    3    3  502    0  0.18249217404E+03 -0.24029662196E+03  0.68929439951E+03  0.75244443602E+03  0.00000000000E+00 0. -1.
         -4    1    3    3    0  502  0.52927456820E+02 -0.62364431418E+02  0.31726663649E+03  0.32764120104E+03  0.00000000000E+00 0.  1.
         13    1    5    5    0    0  0.25032822454E+02  0.10746778779E+03 -0.37087568839E+03  0.38694281728E+03  0.00000000000E+00 0.  1.
        -13    1    5    5    0    0  0.33287506137E+02  0.23342917411E+03 -0.43847018536E+03  0.49784871280E+03  0.00000000000E+00 0. -1.
          1    1    6    6  503    0 -0.23549066851E+03 -0.31924819262E+02  0.41223159636E+02  0.24119369380E+03  0.00000000000E+00 0. -1.
         -1    1    6    6    0  503 -0.58249290940E+02 -0.63110892602E+01  0.62662729436E+02  0.85787105109E+02  0.00000000000E+00 0.  1.
<mgrwt>
<rscale>  0 0.22719928E+04</rscale>
<asrwt>0</asrwt>
<pdfrwt beam="1">  1        1 0.19945839E+00 0.22719928E+04</pdfrwt>
<pdfrwt beam="2">  1       -2 0.15313515E+00 0.22719928E+04</pdfrwt>
<totfact> 0.20513996E+00</totfact>
</mgrwt>
</event>
<event>
12    5  0.5197392E-008  0.1589988E+04  0.7818608E-02  0.8826723E-01
         -2   -1    0    0    0  501 -0.00000000000E+00  0.00000000000E+00  0.24965920314E+03  0.24965920314E+03  0.00000000000E+00 0.  1.
          1   -1    0    0  501    0  0.00000000000E+00 -0.00000000000E+00 -0.25315124885E+04  0.25315124885E+04  0.00000000000E+00 0. -1.
        -24    2    1    2    0    0  0.24412360490E+03  0.46875819148E+03 -0.99307801983E+03  0.11278395571E+04  0.80545245487E+02 0.  0.
        254    2    1    2    0    0 -0.24412360490E+03 -0.46875819148E+03 -0.12887752655E+04  0.16533321345E+04  0.89063734791E+03 0.  0.
         23    2    4    4    0    0 -0.12622814045E+03 -0.16870949270E+03 -0.12982039545E+04  0.13181904540E+04  0.88860166316E+02 0.  0.
         23    2    4    4    0    0 -0.11789546445E+03 -0.30004869879E+03  0.94286889529E+01  0.33514168055E+03  0.91117965770E+02 0.  0.
          3    1    3    3  502    0  0.13415800558E+02  0.30168995455E+01 -0.15798312873E+02  0.20944499925E+02  0.00000000000E+00 0. -1.
         -4    1    3    3    0  502  0.23070780434E+03  0.46574129194E+03 -0.97727970695E+03  0.11068950572E+04  0.00000000000E+00 0.  1.
         13    1    5    5    0    0 -0.47534511709E+00  0.97792293691E+01 -0.39875998746E+02  0.41060376960E+02  0.00000000000E+00 0.  1.
        -13    1    5    5    0    0 -0.12575279533E+03 -0.17848872207E+03 -0.12583279557E+04  0.12771300770E+04  0.00000000000E+00 0. -1.
          4    1    6    6  503    0 -0.10711388988E+03 -0.28288356217E+03  0.32739247093E+02  0.30425047815E+03  0.00000000000E+00 0. -1.
         -4    1    6    6    0  503 -0.10781574565E+02 -0.17165136615E+02 -0.23310558140E+02  0.30891202403E+02  0.00000000000E+00 0.  1.
<mgrwt>
<rscale>  0 0.15899879E+04</rscale>
<asrwt>0</asrwt>
<pdfrwt beam="1">  1        1 0.38946346E+00 0.15899879E+04</pdfrwt>
<pdfrwt beam="2">  1       -2 0.38409109E-01 0.15899879E+04</pdfrwt>
<totfact> 0.69697754E+00</totfact>
</mgrwt>
</event>
<event>
12    5  0.5197392E-008  0.1268835E+04  0.7818608E-02  0.9054651E-01
         -2   -1    0    0    0  501 -0.00000000000E+00  0.00000000000E+00  0.64670453117E+03  0.64670453117E+03  0.00000000000E+00 0.  1.
          1   -1    0    0  501    0  0.00000000000E+00 -0.00000000000E+00 -0.62236397599E+03  0.62236397599E+03  0.00000000000E+00 0. -1.
        -24    2    1    2    0    0  0.12802115267E+03  0.18667407628E+03  0.16745795149E+03  0.29202453592E+03  0.77456683252E+02 0.  0.
        254    2    1    2    0    0 -0.12802115267E+03 -0.18667407628E+03 -0.14311739631E+03  0.97704397123E+03  0.93962530102E+03 0.  0.
         23    2    4    4    0    0  0.15839318205E+03  0.28967248359E+03 -0.22208479758E+03  0.40867615119E+03  0.93252299521E+02 0.  0.
         23    2    4    4    0    0 -0.28641433472E+03 -0.47634655987E+03  0.78967401265E+02  0.56836782005E+03  0.88695615273E+02 0.  0.
          3    1    3    3  502    0 -0.30207575881E+00  0.44335688469E+02  0.13946307349E+02  0.46478425215E+02  0.00000000000E+00 0. -1.
         -4    1    3    3    0  502  0.12832322843E+03  0.14233838781E+03  0.15351164414E+03  0.24554611071E+03  0.00000000000E+00 0.  1.
         13    1    5    5    0    0  0.93552413456E+01 -0.43441884369E+01  0.14233469535E+01  0.10412417124E+02  0.00000000000E+00 0.  1.
        -13    1    5    5    0    0  0.14903794070E+03  0.29401667203E+03 -0.22350814453E+03  0.39826373406E+03  0.00000000000E+00 0. -1.
          3    1    6    6  503    0 -0.25531530737E+03 -0.46340306199E+03  0.76611968692E+02  0.53460050298E+03  0.00000000000E+00 0. -1.
         -3    1    6    6    0  503 -0.31099027344E+02 -0.12943497881E+02  0.23554325732E+01  0.33767317064E+02  0.00000000000E+00 0.  1.
<mgrwt>
<rscale>  0 0.12688351E+04</rscale>
<asrwt>0</asrwt>
<pdfrwt beam="1">  1        1 0.95748304E-01 0.12688351E+04</pdfrwt>
<pdfrwt beam="2">  1       -2 0.99493005E-01 0.12688351E+04</pdfrwt>
<totfact> 0.23401356E+01</totfact>
</mgrwt>
</event>
<event>
12    5  0.5197392E-008  0.5240285E+04  0.7818608E-02  0.7792473E-01
         -2   -1    0    0    0  501 -0.00000000000E+00  0.00000000000E+00  0.19106644984E+04  0.19106644984E+04  0.00000000000E+00 0.  1.
          1   -1    0    0  501    0  0.00000000000E+00 -0.00000000000E+00 -0.35930675004E+04  0.35930675004E+04  0.00000000000E+00 0. -1.
        -24    2    1    2    0    0 -0.68027733164E+03 -0.17906616766E+04  0.94074080143E+03  0.21355325464E+04  0.79117085890E+02 0.  0.
        254    2    1    2    0    0  0.68027733164E+03  0.17906616766E+04 -0.26231438034E+04  0.33681994524E+04  0.89142450581E+03 0.  0.
         23    2    4    4    0    0  0.37326533775E+03  0.15948723960E+04 -0.16554005592E+04  0.23302602867E+04  0.82565248142E+02 0.  0.
         23    2    4    4    0    0  0.30701199389E+03  0.19578928054E+03 -0.96774324426E+03  0.10379391657E+04  0.90558921012E+02 0.  0.
          1    1    3    3  502    0 -0.43085599559E+03 -0.10728909416E+04  0.60320891878E+03  0.13040678131E+04  0.00000000000E+00 0. -1.
         -2    1    3    3    0  502 -0.24942133605E+03 -0.71777073496E+03  0.33753188265E+03  0.83146473325E+03  0.00000000000E+00 0.  1.
         13    1    5    5    0    0  0.33491688572E+03  0.14750781850E+04 -0.15547572925E+04  0.21691692444E+04  0.00000000000E+00 0. -1.
        -13    1    5    5    0    0  0.38348452034E+02  0.11979421101E+03 -0.10064326670E+03  0.16109104226E+03  0.00000000000E+00 0.  1.
          1    1    6    6  503    0  0.69847132813E+02  0.32084767338E+02 -0.11954878742E+03  0.14212658735E+03  0.00000000000E+00 0. -1.
         -1    1    6    6    0  503  0.23716486108E+03  0.16370451320E+03 -0.84819445683E+03  0.89581257838E+03  0.00000000000E+00 0.  1.
<mgrwt>
<rscale>  0 0.52402849E+04</rscale>
<asrwt>0</asrwt>
<pdfrwt beam="1">  1        1 0.55277961E+00 0.52402849E+04</pdfrwt>
<pdfrwt beam="2">  1       -2 0.29394839E+00 0.52402849E+04</pdfrwt>
<totfact> 0.45419334E-03</totfact>
</mgrwt>
</event>
<event>
12    5  0.5197392E-008  0.2189357E+04  0.7818608E-02  0.8522871E-01
          1   -1    0    0  501    0  0.00000000000E+00  0.00000000000E+00  0.26110279939E+04  0.26110279939E+04  0.00000000000E+00 0. -1.
         -2   -1    0    0    0  501 -0.00000000000E+00 -0.00000000000E+00 -0.45894610551E+03  0.45894610551E+03  0.00000000000E+00 0.  1.
        -24    2    1    2    0    0 -0.68986254583E+03  0.44588465025E+02  0.15017504832E+04  0.16552700914E+04  0.82256296051E+02 0.  0.
        254    2    1    2    0    0  0.68986254583E+03 -0.44588465025E+02  0.65033140520E+03  0.14147040081E+04  0.10490748450E+04 0.  0.
         23    2    4    4    0    0 -0.23533572109E+03  0.16438585069E+03  0.19424929077E+03  0.35833760843E+03  0.90925492130E+02 0.  0.
         23    2    4    4    0    0  0.92519826692E+03 -0.20897431572E+03  0.45608211443E+03  0.10563663996E+04  0.90757795377E+02 0.  0.
          1    1    3    3  502    0 -0.39702126896E+03  0.14185467836E+02  0.76829855071E+03  0.86493339543E+03  0.00000000000E+00 0. -1.
         -2    1    3    3    0  502 -0.29284127687E+03  0.30402997189E+02  0.73345193252E+03  0.79033669597E+03  0.00000000000E+00 0.  1.
         13    1    5    5    0    0 -0.44257396131E+02  0.16393016725E+02  0.75537780604E+02  0.89069660426E+02  0.00000000000E+00 0. -1.
        -13    1    5    5    0    0 -0.19107832496E+03  0.14799283397E+03  0.11871151017E+03  0.26926794800E+03  0.00000000000E+00 0.  1.
          3    1    6    6  503    0  0.68013476218E+03 -0.14112913214E+03  0.29047729661E+03  0.75291286781E+03  0.00000000000E+00 0. -1.
         -3    1    6    6    0  503  0.24506350474E+03 -0.67845183578E+02  0.16560481782E+03  0.30345353183E+03  0.00000000000E+00 0.  1.
<mgrwt>
<rscale>  0 0.21893571E+04</rscale>
<asrwt>0</asrwt>
<pdfrwt beam="1">  1        1 0.40169661E+00 0.21893571E+04</pdfrwt>
<pdfrwt beam="2">  1       -2 0.70607095E-01 0.21893571E+04</pdfrwt>
<totfact> 0.16584324E+00</totfact>
</mgrwt>
</event>
<event>
12    5  0.5197392E-008  0.2030663E+04  0.7818608E-02  0.8592418E-01
         -2   -1    0    0    0  501 -0.00000000000E+00  0.00000000000E+00  0.87201396220E+03  0.87201396220E+03  0.00000000000E+00 0.  1.
          1   -1    0    0  501    0  0.00000000000E+00 -0.00000000000E+00 -0.11822032049E+04  0.11822032049E+04  0.00000000000E+00 0. -1.
        -24    2    1    2    0    0 -0.45918656075E+03  0.64653401740E+03  0.54552645043E+02  0.79930970625E+03  0.84032625760E+02 0.  0.
        254    2    1    2    0    0  0.45918656075E+03 -0.64653401740E+03 -0.36474188772E+03  0.12549074608E+04  0.90160831703E+03 0.  0.
         23    2    4    4    0    0 -0.20156380738E+03 -0.78864504617E+01  0.72774808757E+02  0.23300888067E+03  0.91141654231E+02 0.  0.
         23    2    4    4    0    0  0.66075036813E+03 -0.63864756694E+03 -0.43751669648E+03  0.10218985802E+04  0.91619237522E+02 0.  0.
          3    1    3    3  502    0 -0.28205414822E+03  0.43494668545E+03  0.69114175366E+02  0.52298176924E+03  0.00000000000E+00 0. -1.
         -4    1    3    3    0  502 -0.17713241253E+03  0.21158733195E+03 -0.14561530323E+02  0.27632793701E+03  0.00000000000E+00 0.  1.
         13    1    5    5    0    0 -0.17653673425E+03 -0.35777327455E+02  0.75775881099E+02  0.19541550567E+03  0.00000000000E+00 0. -1.
        -13    1    5    5    0    0 -0.25027073131E+02  0.27890876993E+02 -0.30010723425E+01  0.37593375004E+02  0.00000000000E+00 0.  1.
          3    1    6    6  503    0  0.28793285551E+03 -0.25899258100E+03 -0.23225295176E+03  0.45157936168E+03  0.00000000000E+00 0. -1.
         -3    1    6    6    0  503  0.37281751262E+03 -0.37965498595E+03 -0.20526374472E+03  0.57031921848E+03  0.00000000000E+00 0.  1.
<mgrwt>
<rscale>  0 0.20306627E+04</rscale>
<asrwt>0</asrwt>
<pdfrwt beam="1">  1        1 0.18187742E+00 0.20306627E+04</pdfrwt>
<pdfrwt beam="2">  1       -2 0.13415599E+00 0.20306627E+04</pdfrwt>
<totfact> 0.35826742E+00</totfact>
</mgrwt>
</event>
<event>
12    5  0.5197392E-008  0.1944743E+04  0.7818608E-02  0.8632900E-01
         -2   -1    0    0    0  501 -0.00000000000E+00  0.00000000000E+00  0.54360837304E+03  0.54360837304E+03  0.00000000000E+00 0.  1.
          1   -1    0    0  501    0  0.00000000000E+00 -0.00000000000E+00 -0.17393155535E+04  0.17393155535E+04  0.00000000000E+00 0. -1.
        -24    2    1    2    0    0  0.13010700151E+02 -0.48642579848E+03  0.21112501982E+03  0.53629766561E+03  0.79133282486E+02 0.  0.
        254    2    1    2    0    0 -0.13010700151E+02  0.48642579848E+03 -0.14068322003E+04  0.17466262610E+04  0.91364496380E+03 0.  0.
         23    2    4    4    0    0  0.96348647728E+01 -0.25883181817E+03 -0.27917316074E+03  0.39168985785E+03  0.91632692560E+02 0.  0.
         23    2    4    4    0    0 -0.22645564924E+02  0.74525761666E+03 -0.11276590396E+04  0.13549364031E+04  0.91192160482E+02 0.  0.
          1    1    3    3  502    0  0.10844302141E+02 -0.13657639267E+03  0.98575668659E+02  0.16878350742E+03  0.00000000000E+00 0. -1.
         -2    1    3    3    0  502  0.21663980102E+01 -0.34984940581E+03  0.11254935116E+03  0.36751415819E+03  0.00000000000E+00 0.  1.
         13    1    5    5    0    0  0.17979029332E+02 -0.42196548507E+02 -0.11597910608E+02  0.47310735907E+02  0.00000000000E+00 0.  1.
        -13    1    5    5    0    0 -0.83441645596E+01 -0.21663526967E+03 -0.26757525013E+03  0.34437912194E+03  0.00000000000E+00 0. -1.
          3    1    6    6  503    0  0.35367122024E+02  0.25806492247E+03 -0.39821675524E+03  0.47584127783E+03  0.00000000000E+00 0.  1.
         -3    1    6    6    0  503 -0.58012686947E+02  0.48719269419E+03 -0.72944228434E+03  0.87909512529E+03  0.00000000000E+00 0. -1.
<mgrwt>
<rscale>  0 0.19447432E+04</rscale>
<asrwt>0</asrwt>
<pdfrwt beam="1">  1        1 0.26758701E+00 0.19447432E+04</pdfrwt>
<pdfrwt beam="2">  1       -2 0.83632058E-01 0.19447432E+04</pdfrwt>
<totfact> 0.45837172E+00</totfact>
</mgrwt>
</event>
<event>
12    5  0.5197392E-008  0.2078708E+04  0.7818608E-02  0.8570681E-01
         -2   -1    0    0    0  501 -0.00000000000E+00  0.00000000000E+00  0.67830828995E+03  0.67830828995E+03  0.00000000000E+00 0.  1.
          1   -1    0    0  501    0  0.00000000000E+00 -0.00000000000E+00 -0.15925752823E+04  0.15925752823E+04  0.00000000000E+00 0. -1.
        -24    2    1    2    0    0  0.78142322874E+03 -0.94153220258E+02 -0.46048005321E+02  0.79219014870E+03  0.77186278643E+02 0.  0.
        254    2    1    2    0    0 -0.78142322874E+03  0.94153220258E+02 -0.86821898704E+03  0.14786934236E+04  0.90179983374E+03 0.  0.
         23    2    4    4    0    0 -0.96285465284E+03  0.60380200625E+01 -0.65488078960E+03  0.11680327686E+04  0.91138135578E+02 0.  0.
         23    2    4    4    0    0  0.18143142410E+03  0.88115200196E+02 -0.21333819744E+03  0.31066065496E+03  0.10156380210E+03 0.  0.
          1    1    3    3  502    0  0.31549462466E+02  0.20633707223E+01  0.12289516451E+02  0.33921354561E+02  0.00000000000E+00 0. -1.
         -2    1    3    3    0  502  0.74987376627E+03 -0.96216590980E+02 -0.58337521772E+02  0.75826879414E+03  0.00000000000E+00 0.  1.
         13    1    5    5    0    0 -0.82638559253E+03 -0.13415086442E+02 -0.52852990624E+03  0.98103872190E+03  0.00000000000E+00 0.  1.
        -13    1    5    5    0    0 -0.13646906031E+03  0.19453106505E+02 -0.12635088335E+03  0.18699404670E+03  0.00000000000E+00 0. -1.
          4    1    6    6  503    0  0.14597401100E+02  0.39223186347E+02 -0.98026884626E+01  0.42984126921E+02  0.00000000000E+00 0. -1.
         -4    1    6    6    0  503  0.16683402300E+03  0.48892013849E+02 -0.20353550898E+03  0.26767652804E+03  0.00000000000E+00 0.  1.
<mgrwt>
<rscale>  0 0.20787083E+04</rscale>
<asrwt>0</asrwt>
<pdfrwt beam="1">  1        1 0.24501158E+00 0.20787083E+04</pdfrwt>
<pdfrwt beam="2">  1       -2 0.10435512E+00 0.20787083E+04</pdfrwt>
<totfact> 0.34072004E+00</totfact>
</mgrwt>
</event>
<event>
12    5  0.5197392E-008  0.1621487E+04  0.7818608E-02  0.8807456E-01
         -4   -1    0    0    0  501 -0.00000000000E+00  0.00000000000E+00  0.18898967188E+04  0.18898967188E+04  0.00000000000E+00 0.  1.
          3   -1    0    0  501    0  0.00000000000E+00 -0.00000000000E+00 -0.34779929103E+03  0.34779929103E+03  0.00000000000E+00 0. -1.
        -24    2    1    2    0    0  0.45600576892E+02  0.81024506626E+01 -0.22233135002E+03  0.24007117189E+03  0.77832358644E+02 0.  0.
        254    2    1    2    0    0 -0.45600576892E+02 -0.81024506626E+01  0.17644287778E+04  0.19976248380E+04  0.93549506623E+03 0.  0.
         23    2    4    4    0    0  0.33138669991E+01 -0.27025501830E+03  0.16783809044E+04  0.17024245179E+04  0.90763551738E+02 0.  0.
         23    2    4    4    0    0 -0.48914443891E+02  0.26215256764E+03  0.86047873415E+02  0.29520032004E+03  0.92856883946E+02 0.  0.
          3    1    3    3  502    0  0.57033635700E+02  0.18473088034E+02 -0.21458202221E+03  0.22279931516E+03  0.00000000000E+00 0. -1.
         -4    1    3    3    0  502 -0.11433058808E+02 -0.10370637372E+02 -0.77493278075E+01  0.17271856723E+02  0.00000000000E+00 0.  1.
         13    1    5    5    0    0 -0.18385826533E+02 -0.53430175820E+02  0.19155179781E+03  0.19971207662E+03  0.00000000000E+00 0. -1.
        -13    1    5    5    0    0  0.21699693532E+02 -0.21682484248E+03  0.14868291066E+04  0.15027124413E+04  0.00000000000E+00 0.  1.
          4    1    6    6  503    0  0.74906995822E+00  0.27998140672E+01  0.23697609922E+02  0.23874186491E+02  0.00000000000E+00 0. -1.
         -4    1    6    6    0  503 -0.49663513850E+02  0.25935275357E+03  0.62350263493E+02  0.27132613355E+03  0.00000000000E+00 0.  1.
<mgrwt>
<rscale>  0 0.16214866E+04</rscale>
<asrwt>0</asrwt>
<pdfrwt beam="1">  1        3 0.53507585E-01 0.16214866E+04</pdfrwt>
<pdfrwt beam="2">  1       -4 0.29075333E+00 0.16214866E+04</pdfrwt>
<totfact> 0.26738842E-01</totfact>
</mgrwt>
</event>
<event>
12    5  0.5197392E-008  0.1802339E+04  0.7818608E-02  0.8705057E-01
         -2   -1    0    0    0  501 -0.00000000000E+00  0.00000000000E+00  0.38492193771E+03  0.38492193771E+03  0.00000000000E+00 0.  1.
          1   -1    0    0  501    0  0.00000000000E+00 -0.00000000000E+00 -0.21097943417E+04  0.21097943417E+04  0.00000000000E+00 0. -1.
        -24    2    1    2    0    0  0.45118173089E+03 -0.35309418396E+03 -0.11439542009E+04  0.12817419410E+04  0.77399821411E+02 0.  0.
        254    2    1    2    0    0 -0.45118173089E+03  0.35309418396E+03 -0.58091820308E+03  0.12129743385E+04  0.89755241077E+03 0.  0.
         23    2    4    4    0    0 -0.18922937662E+03 -0.25455809527E+03 -0.41964992597E+01  0.33006087806E+03  0.91186576742E+02 0.  0.
         23    2    4    4    0    0 -0.26195235427E+03  0.60765227923E+03 -0.57672170382E+03  0.88291346041E+03  0.95225661227E+02 0.  0.
          1    1    3    3  502    0  0.34866101072E+03 -0.31126548631E+03 -0.92123837003E+03  0.10330202504E+04  0.00000000000E+00 0. -1.
         -2    1    3    3    0  502  0.10252072017E+03 -0.41828697654E+02 -0.22271583090E+03  0.24872169054E+03  0.00000000000E+00 0.  1.
         13    1    5    5    0    0 -0.18658908426E+03 -0.25687422629E+03  0.77746851168E+01  0.31758510706E+03  0.00000000000E+00 0. -1.
        -13    1    5    5    0    0 -0.26402923564E+01  0.23161310229E+01 -0.11971184377E+02  0.12475770999E+02  0.00000000000E+00 0.  1.
          2    1    6    6  503    0 -0.24695427870E+03  0.60057031345E+03 -0.57274636084E+03  0.86585767365E+03  0.00000000000E+00 0. -1.
         -2    1    6    6    0  503 -0.14998075572E+02  0.70819657770E+01 -0.39753429807E+01  0.17055786758E+02  0.00000000000E+00 0.  1.
<mgrwt>
<rscale>  0 0.18023386E+04</rscale>
<asrwt>0</asrwt>
<pdfrwt beam="1">  1        1 0.32458374E+00 0.18023386E+04</pdfrwt>
<pdfrwt beam="2">  1       -2 0.59218760E-01 0.18023386E+04</pdfrwt>
<totfact> 0.55374977E+00</totfact>
</mgrwt>
</event>
<event>
12    5  0.5197392E-008  0.1507727E+04  0.7818608E-02  0.8879331E-01
          1   -1    0    0  501    0  0.00000000000E+00  0.00000000000E+00  0.10590421529E+04  0.10590421529E+04  0.00000000000E+00 0. -1.
         -2   -1    0    0    0  501 -0.00000000000E+00 -0.00000000000E+00 -0.53662644163E+03  0.53662644163E+03  0.00000000000E+00 0.  1.
        -24    2    1    2    0    0  0.18834500074E+03 -0.42938838045E+03  0.58265878747E+02  0.47887671291E+03  0.77972898939E+02 0.  0.
        254    2    1    2    0    0 -0.18834500074E+03  0.42938838045E+03  0.46414983251E+03  0.11167918816E+04  0.90107758780E+03 0.  0.
         23    2    4    4    0    0  0.98356593476E+02  0.10980283089E+03 -0.23469428534E+03  0.29149061791E+03  0.90303331104E+02 0.  0.
         23    2    4    4    0    0 -0.28670159422E+03  0.31958554956E+03  0.69884411784E+03  0.82530126370E+03  0.91686134202E+02 0.  0.
          3    1    3    3  502    0  0.12873512079E+03 -0.31355785520E+03  0.76096198881E+02  0.34739299269E+03  0.00000000000E+00 0. -1.
         -4    1    3    3    0  502  0.59609879948E+02 -0.11583052525E+03 -0.17830320134E+02  0.13148372022E+03  0.00000000000E+00 0.  1.
         13    1    5    5    0    0  0.24329998063E+02 -0.13199408940E+02 -0.54265891800E+02  0.60917651095E+02  0.00000000000E+00 0. -1.
        -13    1    5    5    0    0  0.74026595413E+02  0.12300223983E+03 -0.18042839354E+03  0.23057296682E+03  0.00000000000E+00 0.  1.
          3    1    6    6  503    0 -0.21705796857E+02 -0.29066898754E+00  0.20363673645E+02  0.29764161504E+02  0.00000000000E+00 0. -1.
         -3    1    6    6    0  503 -0.26499579736E+03  0.31987621855E+03  0.67848044420E+03  0.79553710219E+03  0.00000000000E+00 0.  1.
<mgrwt>
<rscale>  0 0.15077268E+04</rscale>
<asrwt>0</asrwt>
<pdfrwt beam="1">  1        1 0.16292956E+00 0.15077268E+04</pdfrwt>
<pdfrwt beam="2">  1       -2 0.82557914E-01 0.15077268E+04</pdfrwt>
<totfact> 0.14863988E+01</totfact>
</mgrwt>
</event>
<event>
12    5  0.5197392E-008  0.1147088E+04  0.7818608E-02  0.9160474E-01
          1   -1    0    0  501    0  0.00000000000E+00  0.00000000000E+00  0.46929736583E+03  0.46929736583E+03  0.00000000000E+00 0. -1.
         -2   -1    0    0    0  501 -0.00000000000E+00 -0.00000000000E+00 -0.70094751886E+03  0.70094751886E+03  0.00000000000E+00 0.  1.
        -24    2    1    2    0    0  0.15880906242E+03  0.61496713666E+02 -0.16346848813E+03  0.24867648905E+03  0.78204127096E+02 0.  0.
        254    2    1    2    0    0 -0.15880906242E+03 -0.61496713666E+02 -0.68181664902E+02  0.92156839564E+03  0.90312646087E+03 0.  0.
         23    2    4    4    0    0 -0.46038964817E+03  0.80546613927E+02 -0.24381483188E+03  0.53538163920E+03  0.93495680052E+02 0.  0.
         23    2    4    4    0    0  0.30158058575E+03 -0.14204332759E+03  0.17563316698E+03  0.38618675644E+03  0.84652494929E+02 0.  0.
          3    1    3    3  502    0  0.31354131241E+02  0.22490451880E+02 -0.10951076491E+01  0.38601829392E+02  0.00000000000E+00 0. -1.
         -4    1    3    3    0  502  0.12745493118E+03  0.39006261786E+02 -0.16237338048E+03  0.21007465966E+03  0.00000000000E+00 0.  1.
         13    1    5    5    0    0 -0.23746735598E+03  0.64218249861E+02 -0.17363242710E+03  0.30110288692E+03  0.00000000000E+00 0. -1.
        -13    1    5    5    0    0 -0.22292229219E+03  0.16328364066E+02 -0.70182404785E+02  0.23427875228E+03  0.00000000000E+00 0.  1.
          2    1    6    6  503    0  0.23282559775E+03 -0.14089652317E+03  0.15992434402E+03  0.31565073265E+03  0.00000000000E+00 0. -1.
         -2    1    6    6    0  503  0.68754987995E+02 -0.11468044229E+01  0.15708822959E+02  0.70536023799E+02  0.00000000000E+00 0.  1.
<mgrwt>
<rscale>  0 0.11470882E+04</rscale>
<asrwt>0</asrwt>
<pdfrwt beam="1">  1        1 0.72199595E-01 0.11470882E+04</pdfrwt>
<pdfrwt beam="2">  1       -2 0.10783808E+00 0.11470882E+04</pdfrwt>
<totfact> 0.28949120E+01</totfact>
</mgrwt>
</event>
<event>
12    5  0.5197392E-008  0.2367696E+04  0.7818608E-02  0.8451698E-01
         -2   -1    0    0    0  501 -0.00000000000E+00  0.00000000000E+00  0.85633298790E+03  0.85633298790E+03  0.00000000000E+00 0.  1.
          1   -1    0    0  501    0  0.00000000000E+00 -0.00000000000E+00 -0.16366252338E+04  0.16366252338E+04  0.00000000000E+00 0. -1.
        -24    2    1    2    0    0 -0.79373428094E+03  0.62807028560E+03 -0.38664201266E+03  0.10863314474E+04  0.78342678546E+02 0.  0.
        254    2    1    2    0    0  0.79373428094E+03 -0.62807028560E+03 -0.39365023326E+03  0.14066267743E+04  0.89395300975E+03 0.  0.
         23    2    4    4    0    0  0.42515112082E+03 -0.42241765297E+03  0.22833580703E+03  0.64787040995E+03  0.91698845355E+02 0.  0.
         23    2    4    4    0    0  0.36858316012E+03 -0.20565263264E+03 -0.62198604029E+03  0.75875636435E+03  0.10343130519E+03 0.  0.
          3    1    3    3  502    0 -0.22369577525E+03  0.15131577693E+03 -0.73250370006E+02  0.27982473250E+03  0.00000000000E+00 0. -1.
         -4    1    3    3    0  502 -0.57003850569E+03  0.47675450868E+03 -0.31339164266E+03  0.80650671491E+03  0.00000000000E+00 0.  1.
         13    1    5    5    0    0  0.12679536759E+03 -0.12352528128E+03  0.11327303056E+03  0.21015789257E+03  0.00000000000E+00 0.  1.
        -13    1    5    5    0    0  0.29835575323E+03 -0.29889237169E+03  0.11506277647E+03  0.43771251738E+03  0.00000000000E+00 0. -1.
          3    1    6    6  503    0  0.15289887976E+03 -0.66951897052E+02 -0.33238004086E+03  0.37193697788E+03  0.00000000000E+00 0. -1.
         -3    1    6    6    0  503  0.21568428036E+03 -0.13870073559E+03 -0.28960599943E+03  0.38681938647E+03  0.00000000000E+00 0.  1.
<mgrwt>
<rscale>  0 0.23676961E+04</rscale>
<asrwt>0</asrwt>
<pdfrwt beam="1">  1        1 0.25178850E+00 0.23676961E+04</pdfrwt>
<pdfrwt beam="2">  1       -2 0.13174354E+00 0.23676961E+04</pdfrwt>
<totfact> 0.17450210E+00</totfact>
</mgrwt>
</event>
<event>
12    5  0.5197392E-008  0.1344643E+04  0.7818608E-02  0.8994893E-01
          1   -1    0    0  501    0  0.00000000000E+00  0.00000000000E+00  0.30636886928E+04  0.30636886928E+04  0.00000000000E+00 0. -1.
         -2   -1    0    0    0  501 -0.00000000000E+00 -0.00000000000E+00 -0.14753991132E+03  0.14753991132E+03  0.00000000000E+00 0.  1.
        -24    2    1    2    0    0  0.11021310506E+03 -0.88592553397E+02  0.33422915364E+01  0.16271420835E+03  0.80431173326E+02 0.  0.
        254    2    1    2    0    0 -0.11021310506E+03  0.88592553397E+02  0.29128064899E+04  0.30485143958E+04  0.88825829817E+03 0.  0.
         23    2    4    4    0    0 -0.20477995935E+02 -0.38143259350E+03  0.16134352928E+04  0.16607638848E+04  0.95147598796E+02 0.  0.
         23    2    4    4    0    0 -0.89735109125E+02  0.47002514690E+03  0.12993711972E+04  0.13877505109E+04  0.92249357588E+02 0.  0.
          3    1    3    3  502    0  0.13446162198E+02  0.14386187533E+02 -0.73070712289E+01  0.21003689189E+02  0.00000000000E+00 0. -1.
         -4    1    3    3    0  502  0.96766942862E+02 -0.10297874093E+03  0.10649362765E+02  0.14171051916E+03  0.00000000000E+00 0.  1.
         13    1    5    5    0    0  0.12573550938E+02 -0.17628411337E+03  0.56731049321E+03  0.59420146290E+03  0.00000000000E+00 0.  1.
        -13    1    5    5    0    0 -0.33051546873E+02 -0.20514848013E+03  0.10461247995E+04  0.10665624219E+04  0.00000000000E+00 0. -1.
          3    1    6    6  503    0 -0.10201211189E+03  0.44161538756E+03  0.11698607337E+04  0.12545934631E+04  0.00000000000E+00 0. -1.
         -3    1    6    6    0  503  0.12277002769E+02  0.28409759336E+02  0.12951046349E+03  0.13315704779E+03  0.00000000000E+00 0.  1.
<mgrwt>
<rscale>  0 0.13446432E+04</rscale>
<asrwt>0</asrwt>
<pdfrwt beam="1">  1        1 0.47133668E+00 0.13446432E+04</pdfrwt>
<pdfrwt beam="2">  1       -2 0.22698450E-01 0.13446432E+04</pdfrwt>
<totfact> 0.79589192E+00</totfact>
</mgrwt>
</event>
<event>
12    5  0.5197392E-008  0.1477745E+04  0.7818608E-02  0.8899388E-01
          1   -1    0    0  501    0  0.00000000000E+00  0.00000000000E+00  0.15409007862E+04  0.15409007862E+04  0.00000000000E+00 0. -1.
         -2   -1    0    0    0  501 -0.00000000000E+00 -0.00000000000E+00 -0.35429463141E+03  0.35429463141E+03  0.00000000000E+00 0.  1.
        -24    2    1    2    0    0 -0.29515519104E+03 -0.11618410784E+03 -0.55279302852E+02  0.33111018814E+03  0.77219308784E+02 0.  0.
        254    2    1    2    0    0  0.29515519104E+03  0.11618410784E+03  0.12418854576E+04  0.15640852294E+04  0.89636364351E+03 0.  0.
         23    2    4    4    0    0 -0.17687827475E+03 -0.26379412292E+03  0.52576989136E+03  0.62049603239E+03  0.87795695724E+02 0.  0.
         23    2    4    4    0    0  0.47203346579E+03  0.37997823077E+03  0.71611556624E+03  0.94358919703E+03  0.10168588822E+03 0.  0.
          1    1    3    3  502    0 -0.96332291411E+02 -0.51287591490E+01  0.11946726895E+01  0.96476120267E+02  0.00000000000E+00 0. -1.
         -2    1    3    3    0  502 -0.19882289963E+03 -0.11105534869E+03 -0.56473975542E+02  0.23463406787E+03  0.00000000000E+00 0.  1.
         13    1    5    5    0    0 -0.18624851132E+03 -0.25552441502E+03  0.51306342562E+03  0.60267347158E+03  0.00000000000E+00 0.  1.
        -13    1    5    5    0    0  0.93702365720E+01 -0.82697079085E+01  0.12706465738E+02  0.17822560811E+02  0.00000000000E+00 0. -1.
          2    1    6    6  503    0  0.49293426635E+01  0.69603335585E+01  0.40937207370E+02  0.41816260110E+02  0.00000000000E+00 0. -1.
         -2    1    6    6    0  503  0.46710412313E+03  0.37301789721E+03  0.67517835887E+03  0.90177293692E+03  0.00000000000E+00 0.  1.
<mgrwt>
<rscale>  0 0.14777454E+04</rscale>
<asrwt>0</asrwt>
<pdfrwt beam="1">  1        1 0.23706166E+00 0.14777454E+04</pdfrwt>
<pdfrwt beam="2">  1       -2 0.54506867E-01 0.14777454E+04</pdfrwt>
<totfact> 0.16509382E+01</totfact>
</mgrwt>
</event>
<event>
12    5  0.5197392E-008  0.2627487E+04  0.7818608E-02  0.8358924E-01
          1   -1    0    0  501    0  0.00000000000E+00  0.00000000000E+00  0.12732349442E+04  0.12732349442E+04  0.00000000000E+00 0. -1.
         -2   -1    0    0    0  501 -0.00000000000E+00 -0.00000000000E+00 -0.13555412078E+04  0.13555412078E+04  0.00000000000E+00 0.  1.
        -24    2    1    2    0    0  0.60355294795E+03 -0.84969669672E+03  0.47304938748E+03  0.11471974355E+04  0.77624709736E+02 0.  0.
        254    2    1    2    0    0 -0.60355294795E+03  0.84969669672E+03 -0.55535565104E+03  0.14815787165E+04  0.89464795123E+03 0.  0.
         23    2    4    4    0    0 -0.22046945604E+03  0.94365404822E+02 -0.57550410594E+03  0.63005343268E+03  0.90833591842E+02 0.  0.
         23    2    4    4    0    0 -0.38308349191E+03  0.75533129190E+03  0.20148454894E+02  0.85152528382E+03  0.86087318766E+02 0.  0.
          3    1    3    3  502    0  0.48297310468E+03 -0.65027248367E+03  0.33675203253E+03  0.87722246567E+03  0.00000000000E+00 0. -1.
         -4    1    3    3    0  502  0.12057984328E+03 -0.19942421305E+03  0.13629735495E+03  0.26997496980E+03  0.00000000000E+00 0.  1.
         13    1    5    5    0    0 -0.21023127783E+03  0.70863003555E+02 -0.55336662533E+03  0.59618233577E+03  0.00000000000E+00 0.  1.
        -13    1    5    5    0    0 -0.10238178218E+02  0.23502401267E+02 -0.22137480601E+02  0.33871096910E+02  0.00000000000E+00 0. -1.
          1    1    6    6  503    0 -0.66076989418E+02  0.70785134049E+02  0.57262342868E+01  0.97002543740E+02  0.00000000000E+00 0. -1.
         -1    1    6    6    0  503 -0.31700650249E+03  0.68454615785E+03  0.14422220607E+02  0.75452274008E+03  0.00000000000E+00 0.  1.
<mgrwt>
<rscale>  0 0.26274873E+04</rscale>
<asrwt>0</asrwt>
<pdfrwt beam="1">  1        1 0.19588230E+00 0.26274873E+04</pdfrwt>
<pdfrwt beam="2">  1       -2 0.20854480E+00 0.26274873E+04</pdfrwt>
<totfact> 0.85312926E-01</totfact>
</mgrwt>
</event>
<event>
12    5  0.5197392E-008  0.3448471E+04  0.7818608E-02  0.8126111E-01
         -4   -1    0    0    0  501 -0.00000000000E+00  0.00000000000E+00  0.37033131116E+04  0.37033131116E+04  0.00000000000E+00 0.  1.
          1   -1    0    0  501    0  0.00000000000E+00 -0.00000000000E+00 -0.80279125031E+03  0.80279125031E+03  0.00000000000E+00 0. -1.
        -24    2    1    2    0    0  0.20830239742E+02 -0.65655519709E+03  0.32699456919E+04  0.33362626199E+04  0.81270014010E+02 0.  0.
        254    2    1    2    0    0 -0.20830239742E+02  0.65655519709E+03 -0.36942383060E+03  0.11698417420E+04  0.89473857023E+03 0.  0.
         23    2    4    4    0    0 -0.14190256689E+03 -0.22040954876E+02  0.20657336256E+03  0.26686207390E+03  0.88998147095E+02 0.  0.
         23    2    4    4    0    0  0.12107232714E+03  0.67859615197E+03 -0.57599719315E+03  0.90297966813E+03  0.91914463853E+02 0.  0.
          1    1    3    3  502    0 -0.68412943806E+00 -0.27768156343E+03  0.15819518525E+04  0.16061379711E+04  0.00000000000E+00 0. -1.
         -2    1    3    3    0  502  0.21514369180E+02 -0.37887363366E+03  0.16879938394E+04  0.17301246488E+04  0.00000000000E+00 0.  1.
         13    1    5    5    0    0  0.35064865883E+01 -0.66363187024E+01  0.57710973404E+02  0.58197015606E+02  0.00000000000E+00 0. -1.
        -13    1    5    5    0    0 -0.14540905347E+03 -0.15404636174E+02  0.14886238915E+03  0.20866505829E+03  0.00000000000E+00 0.  1.
          3    1    6    6  503    0  0.53424820178E+02  0.11034835074E+03 -0.88202969475E+02  0.15103222751E+03  0.00000000000E+00 0. -1.
         -3    1    6    6    0  503  0.67647506967E+02  0.56824780122E+03 -0.48779422368E+03  0.75194744062E+03  0.00000000000E+00 0.  1.
<mgrwt>
<rscale>  0 0.34484706E+04</rscale>
<asrwt>0</asrwt>
<pdfrwt beam="1">  1        1 0.12350635E+00 0.34484706E+04</pdfrwt>
<pdfrwt beam="2">  1       -4 0.56974047E+00 0.34484706E+04</pdfrwt>
<totfact> 0.26487421E-03</totfact>
</mgrwt>
</event>
<event>
12    5  0.5197392E-008  0.2943326E+04  0.7818608E-02  0.8260102E-01
          1   -1    0    0  501    0  0.00000000000E+00  0.00000000000E+00  0.20799926478E+04  0.20799926478E+04  0.00000000000E+00 0. -1.
         -2   -1    0    0    0  501 -0.00000000000E+00 -0.00000000000E+00 -0.10412500969E+04  0.10412500969E+04  0.00000000000E+00 0.  1.
        -24    2    1    2    0    0 -0.36622058415E+03  0.12784340892E+04  0.50227205603E+03  0.14237758861E+04  0.79682614151E+02 0.  0.
        254    2    1    2    0    0  0.36622058415E+03 -0.12784340892E+04  0.53647049488E+03  0.16974668585E+04  0.90834019358E+03 0.  0.
         23    2    4    4    0    0  0.63416931355E+03 -0.10524572526E+04  0.31137972357E+03  0.12712410360E+04  0.96226049987E+02 0.  0.
         23    2    4    4    0    0 -0.26794872940E+03 -0.22597683662E+03  0.22509077131E+03  0.42622582250E+03  0.90224964173E+02 0.  0.
          1    1    3    3  502    0 -0.95409094997E+02  0.30555439147E+03  0.85816692709E+02  0.33140743248E+03  0.00000000000E+00 0. -1.
         -2    1    3    3    0  502 -0.27081148916E+03  0.97287969773E+03  0.41645536332E+03  0.10923684537E+04  0.00000000000E+00 0.  1.
         13    1    5    5    0    0  0.29758126493E+03 -0.40232214223E+03  0.12720817316E+03  0.51633287198E+03  0.00000000000E+00 0.  1.
        -13    1    5    5    0    0  0.33658804863E+03 -0.65013511035E+03  0.18417155041E+03  0.75490816406E+03  0.00000000000E+00 0. -1.
          2    1    6    6  503    0 -0.22169449924E+03 -0.14325323877E+03  0.18973908912E+03  0.32507055134E+03  0.00000000000E+00 0. -1.
         -2    1    6    6    0  503 -0.46254230159E+02 -0.82723597846E+02  0.35351682190E+02  0.10115527115E+03  0.00000000000E+00 0.  1.
<mgrwt>
<rscale>  0 0.29433264E+04</rscale>
<asrwt>0</asrwt>
<pdfrwt beam="1">  1        1 0.31999887E+00 0.29433264E+04</pdfrwt>
<pdfrwt beam="2">  1       -2 0.16019232E+00 0.29433264E+04</pdfrwt>
<totfact> 0.49638450E-01</totfact>
</mgrwt>
</event>
<event>
12    5  0.5197392E-008  0.1238765E+04  0.7818608E-02  0.9079586E-01
         -2   -1    0    0    0  501 -0.00000000000E+00  0.00000000000E+00  0.22605650576E+03  0.22605650576E+03  0.00000000000E+00 0.  1.
          1   -1    0    0  501    0  0.00000000000E+00 -0.00000000000E+00 -0.16970738671E+04  0.16970738671E+04  0.00000000000E+00 0. -1.
        -24    2    1    2    0    0 -0.67263203170E+02 -0.13038259745E+03  0.31103932481E+02  0.16854228957E+03  0.76909612792E+02 0.  0.
        254    2    1    2    0    0  0.67263203170E+02  0.13038259745E+03 -0.15021212939E+04  0.17545880833E+04  0.89481115353E+03 0.  0.
         23    2    4    4    0    0 -0.32710921950E+03 -0.81583639489E+02 -0.27509614376E+03  0.44506444001E+03  0.93531469240E+02 0.  0.
         23    2    4    4    0    0  0.39437242266E+03  0.21196623694E+03 -0.12270251501E+04  0.13095236433E+04  0.93819827739E+02 0.  0.
          3    1    3    3  502    0  0.83004717314E+01  0.54441345691E+01 -0.46668719304E+00  0.99375162444E+01  0.00000000000E+00 0. -1.
         -4    1    3    3    0  502 -0.75563674901E+02 -0.13582673202E+03  0.31570619674E+02  0.15860477333E+03  0.00000000000E+00 0.  1.
         13    1    5    5    0    0 -0.24682375883E+03 -0.26547506869E+02 -0.22745207230E+03  0.33669152534E+03  0.00000000000E+00 0.  1.
        -13    1    5    5    0    0 -0.80285460666E+02 -0.55036132619E+02 -0.47644071457E+02  0.10837291467E+03  0.00000000000E+00 0. -1.
          3    1    6    6  503    0  0.34291345963E+03  0.18930740328E+03 -0.11444344224E+04  0.12096103013E+04  0.00000000000E+00 0. -1.
         -3    1    6    6    0  503  0.51458963034E+02  0.22658833660E+02 -0.82590727658E+02  0.99913342024E+02  0.00000000000E+00 0.  1.
<mgrwt>
<rscale>  0 0.12387649E+04</rscale>
<asrwt>0</asrwt>
<pdfrwt beam="1">  1        1 0.26108829E+00 0.12387649E+04</pdfrwt>
<pdfrwt beam="2">  1       -2 0.34777923E-01 0.12387649E+04</pdfrwt>
<totfact> 0.32172344E+01</totfact>
</mgrwt>
</event>
<event>
12    5  0.5197392E-008  0.2474575E+04  0.7818608E-02  0.8412100E-01
         -2   -1    0    0    0  501 -0.00000000000E+00  0.00000000000E+00  0.84123842761E+03  0.84123842761E+03  0.00000000000E+00 0.  1.
          1   -1    0    0  501    0  0.00000000000E+00 -0.00000000000E+00 -0.18197930558E+04  0.18197930558E+04  0.00000000000E+00 0. -1.
        -24    2    1    2    0    0  0.97541423873E+03 -0.75691674866E+02  0.52156077729E+02  0.98313298936E+03  0.81658138349E+02 0.  0.
        254    2    1    2    0    0 -0.97541423873E+03  0.75691674866E+02 -0.10307107059E+04  0.16778984940E+04  0.89208555094E+03 0.  0.
         23    2    4    4    0    0 -0.72567351558E+03 -0.10472113174E+03 -0.16848929941E+03  0.75733762978E+03  0.87195612400E+02 0.  0.
         23    2    4    4    0    0 -0.24974072315E+03  0.18041280661E+03 -0.86222140646E+03  0.92056086422E+03  0.95327547815E+02 0.  0.
          3    1    3    3  502    0  0.49712812243E+03 -0.18175959430E+02  0.61940657937E+02  0.50130168633E+03  0.00000000000E+00 0. -1.
         -4    1    3    3    0  502  0.47828611630E+03 -0.57515715436E+02 -0.97845802082E+01  0.48183130303E+03  0.00000000000E+00 0.  1.
         13    1    5    5    0    0 -0.34174260790E+03 -0.90766687209E+01 -0.96006861805E+02  0.35508831786E+03  0.00000000000E+00 0.  1.
        -13    1    5    5    0    0 -0.38393090768E+03 -0.95644463019E+02 -0.72482437602E+02  0.40224931192E+03  0.00000000000E+00 0. -1.
          4    1    6    6  503    0 -0.23371765646E+03  0.16923946869E+03 -0.69964448849E+03  0.75681460806E+03  0.00000000000E+00 0. -1.
         -4    1    6    6    0  503 -0.16023066696E+02  0.11173337921E+02 -0.16257691798E+03  0.16374625616E+03  0.00000000000E+00 0.  1.
<mgrwt>
<rscale>  0 0.24745746E+04</rscale>
<asrwt>0</asrwt>
<pdfrwt beam="1">  1        1 0.27996816E+00 0.24745746E+04</pdfrwt>
<pdfrwt beam="2">  1       -2 0.12942130E+00 0.24745746E+04</pdfrwt>
<totfact> 0.13570535E+00</totfact>
</mgrwt>
</event>
<event>
12    5  0.5197392E-008  0.1430280E+04  0.7818608E-02  0.8932187E-01
         -2   -1    0    0    0  501 -0.00000000000E+00  0.00000000000E+00  0.52780612379E+03  0.52780612379E+03  0.00000000000E+00 0.  1.
          1   -1    0    0  501    0  0.00000000000E+00 -0.00000000000E+00 -0.96896411100E+03  0.96896411100E+03  0.00000000000E+00 0. -1.
        -24    2    1    2    0    0 -0.60941186908E+02  0.12603273468E+03  0.28005422361E+03  0.32333464291E+03  0.80726976093E+02 0.  0.
        254    2    1    2    0    0  0.60941186908E+02 -0.12603273468E+03 -0.72121221081E+03  0.11734355919E+04  0.91498959382E+03 0.  0.
         23    2    4    4    0    0  0.32728738440E+03 -0.29886652771E+03 -0.71228738741E+03  0.84409820967E+03  0.93328623288E+02 0.  0.
         23    2    4    4    0    0 -0.26634619749E+03  0.17283379302E+03 -0.89248234028E+01  0.32933738221E+03  0.87015182118E+02 0.  0.
          1    1    3    3  502    0  0.73275049653E+01  0.12471577430E+01  0.65457888450E+02  0.65878546521E+02  0.00000000000E+00 0. -1.
         -2    1    3    3    0  502 -0.68268691873E+02  0.12478557694E+03  0.21459633516E+03  0.25745609638E+03  0.00000000000E+00 0.  1.
         13    1    5    5    0    0  0.31429783533E+03 -0.26280250805E+03 -0.68045745346E+03  0.79427365152E+03  0.00000000000E+00 0. -1.
        -13    1    5    5    0    0  0.12989549071E+02 -0.36064019660E+02 -0.31829933948E+02  0.49824558144E+02  0.00000000000E+00 0.  1.
          2    1    6    6  503    0 -0.15459642386E+03  0.50605737838E+02 -0.16823460251E+02  0.16353600150E+03  0.00000000000E+00 0. -1.
         -2    1    6    6    0  503 -0.11174977364E+03  0.12222805519E+03  0.78986368478E+01  0.16580138071E+03  0.00000000000E+00 0.  1.
<mgrwt>
<rscale>  0 0.14302800E+04</rscale>
<asrwt>0</asrwt>
<pdfrwt beam="1">  1        1 0.14907140E+00 0.14302800E+04</pdfrwt>
<pdfrwt beam="2">  1       -2 0.81200943E-01 0.14302800E+04</pdfrwt>
<totfact> 0.18245923E+01</totfact>
</mgrwt>
</event>
<event>
12    5  0.5197392E-008  0.1150715E+04  0.7818608E-02  0.9157124E-01
         -2   -1    0    0    0  501 -0.00000000000E+00  0.00000000000E+00  0.34846522581E+03  0.34846522581E+03  0.00000000000E+00 0.  1.
          1   -1    0    0  501    0  0.00000000000E+00 -0.00000000000E+00 -0.94998305377E+03  0.94998305377E+03  0.00000000000E+00 0. -1.
        -24    2    1    2    0    0  0.12952152187E+02  0.18896060493E+03 -0.39420171657E+03  0.44421936395E+03  0.77858727807E+02 0.  0.
        254    2    1    2    0    0 -0.12952152187E+02 -0.18896060493E+03 -0.20731611138E+03  0.85422891563E+03  0.80675473460E+03 0.  0.
         23    2    4    4    0    0 -0.30333025424E+03 -0.41960539104E+01 -0.34834646649E+03  0.47098258510E+03  0.91937395803E+02 0.  0.
         23    2    4    4    0    0  0.29037810206E+03 -0.18476455102E+03  0.14103035511E+03  0.38324633053E+03  0.92362369670E+02 0.  0.
          3    1    3    3  502    0  0.56946986055E+01  0.18925770342E+03 -0.33692006239E+03  0.38647902445E+03  0.00000000000E+00 0. -1.
         -4    1    3    3    0  502  0.72574535817E+01 -0.29709848912E+00 -0.57281654177E+02  0.57740339497E+02  0.00000000000E+00 0.  1.
         13    1    5    5    0    0 -0.91053518963E+02  0.40401785921E+02 -0.12158833717E+03  0.15718387753E+03  0.00000000000E+00 0. -1.
        -13    1    5    5    0    0 -0.21227673528E+03 -0.44597839832E+02 -0.22675812932E+03  0.31379870757E+03  0.00000000000E+00 0.  1.
          1    1    6    6  503    0  0.24912928665E+03 -0.19191886614E+03  0.12360948687E+03  0.33790169856E+03  0.00000000000E+00 0. -1.
         -1    1    6    6    0  503  0.41248815412E+02  0.71543151233E+01  0.17420868239E+02  0.45344631965E+02  0.00000000000E+00 0.  1.
<mgrwt>
<rscale>  0 0.11507147E+04</rscale>
<asrwt>0</asrwt>
<pdfrwt beam="1">  1        1 0.14615124E+00 0.11507147E+04</pdfrwt>
<pdfrwt beam="2">  1       -2 0.53610035E-01 0.11507147E+04</pdfrwt>
<totfact> 0.47308500E+01</totfact>
</mgrwt>
</event>
<event>
12    5  0.5197392E-008  0.1326217E+04  0.7818608E-02  0.9009029E-01
          1   -1    0    0  501    0  0.00000000000E+00  0.00000000000E+00  0.12522882937E+04  0.12522882937E+04  0.00000000000E+00 0. -1.
         -2   -1    0    0    0  501 -0.00000000000E+00 -0.00000000000E+00 -0.35112769655E+03  0.35112769655E+03  0.00000000000E+00 0.  1.
        -24    2    1    2    0    0 -0.28705330343E+03 -0.12952756205E+03  0.62915532281E+02  0.33084575561E+03  0.79520824090E+02 0.  0.
        254    2    1    2    0    0  0.28705330343E+03  0.12952756205E+03  0.83824506491E+03  0.12725702347E+04  0.90421414775E+03 0.  0.
         23    2    4    4    0    0  0.60398458069E+03  0.27178846187E+02  0.54104004739E+03  0.81656232724E+03  0.92269377335E+02 0.  0.
         23    2    4    4    0    0 -0.31693127727E+03  0.10234871587E+03  0.29720501753E+03  0.45600790744E+03  0.93229260714E+02 0.  0.
          3    1    3    3  502    0 -0.14680525393E+02 -0.18416174885E+02 -0.13193264415E+02  0.26995102317E+02  0.00000000000E+00 0. -1.
         -4    1    3    3    0  502 -0.27237277803E+03 -0.11111138717E+03  0.76108796696E+02  0.30385065329E+03  0.00000000000E+00 0.  1.
         13    1    5    5    0    0  0.47843935327E+03  0.28487871202E+02  0.37588150608E+03  0.60909989344E+03  0.00000000000E+00 0. -1.
        -13    1    5    5    0    0  0.12554522742E+03 -0.13090250147E+01  0.16515854130E+03  0.20746243380E+03  0.00000000000E+00 0.  1.
          2    1    6    6  503    0 -0.28839864665E+03  0.88840601169E+02  0.29843256043E+03  0.42441539196E+03  0.00000000000E+00 0. -1.
         -2    1    6    6    0  503 -0.28532630615E+02  0.13508114697E+02 -0.12275429083E+01  0.31592515476E+02  0.00000000000E+00 0.  1.
<mgrwt>
<rscale>  0 0.13262173E+04</rscale>
<asrwt>0</asrwt>
<pdfrwt beam="1">  1        1 0.19265974E+00 0.13262173E+04</pdfrwt>
<pdfrwt beam="2">  1       -2 0.54019646E-01 0.13262173E+04</pdfrwt>
<totfact> 0.27172431E+01</totfact>
</mgrwt>
</event>
<event>
12    5  0.5197392E-008  0.2132183E+04  0.7818608E-02  0.8547197E-01
         -2   -1    0    0    0  501 -0.00000000000E+00  0.00000000000E+00  0.10125641799E+04  0.10125641799E+04  0.00000000000E+00 0.  1.
          1   -1    0    0  501    0  0.00000000000E+00 -0.00000000000E+00 -0.11224487118E+04  0.11224487118E+04  0.00000000000E+00 0. -1.
        -24    2    1    2    0    0  0.85260172395E+03 -0.12971982871E+03  0.10926147388E+03  0.87296891472E+03  0.79873166708E+02 0.  0.
        254    2    1    2    0    0 -0.85260172395E+03  0.12971982871E+03 -0.21914600581E+03  0.12620439770E+04  0.89497100192E+03 0.  0.
         23    2    4    4    0    0 -0.39764096437E+03  0.14372846320E+03  0.32918210442E+03  0.54366533274E+03  0.91841866691E+02 0.  0.
         23    2    4    4    0    0 -0.45496075957E+03 -0.14008634482E+02 -0.54832811022E+03  0.71837864422E+03  0.90656634671E+02 0.  0.
          1    1    3    3  502    0  0.27814709529E+02 -0.15932739675E+01  0.18333086582E+02  0.33351141686E+02  0.00000000000E+00 0. -1.
         -2    1    3    3    0  502  0.82478701442E+03 -0.12812655475E+03  0.90928387294E+02  0.83961777304E+03  0.00000000000E+00 0.  1.
         13    1    5    5    0    0 -0.74250468427E+02 -0.89582809364E+01  0.64285763418E+02  0.98620698827E+02  0.00000000000E+00 0.  1.
        -13    1    5    5    0    0 -0.32339049594E+03  0.15268674413E+03  0.26489634100E+03  0.44504463392E+03  0.00000000000E+00 0. -1.
          3    1    6    6  503    0 -0.36405880238E+03 -0.40730843671E+02 -0.40027085456E+03  0.54259982513E+03  0.00000000000E+00 0. -1.
         -3    1    6    6    0  503 -0.90901957196E+02  0.26722209188E+02 -0.14805725566E+03  0.17577881909E+03  0.00000000000E+00 0.  1.
<mgrwt>
<rscale>  0 0.21321833E+04</rscale>
<asrwt>0</asrwt>
<pdfrwt beam="1">  1        1 0.17268442E+00 0.21321833E+04</pdfrwt>
<pdfrwt beam="2">  1       -2 0.15577910E+00 0.21321833E+04</pdfrwt>
<totfact> 0.26567731E+00</totfact>
</mgrwt>
</event>
<event>
12    5  0.5197392E-008  0.1922706E+04  0.7818608E-02  0.8643636E-01
         -2   -1    0    0    0  501 -0.00000000000E+00  0.00000000000E+00  0.44532439523E+03  0.44532439523E+03  0.00000000000E+00 0.  1.
          1   -1    0    0  501    0  0.00000000000E+00 -0.00000000000E+00 -0.20753392895E+04  0.20753392895E+04  0.00000000000E+00 0. -1.
        -24    2    1    2    0    0  0.49804402876E+03 -0.10679039989E+03  0.80457315553E+02  0.52180181047E+03  0.79697588964E+02 0.  0.
        254    2    1    2    0    0 -0.49804402876E+03  0.10679039989E+03 -0.17104722098E+04  0.19988618743E+04  0.90015641294E+03 0.  0.
         23    2    4    4    0    0  0.17895209717E+03  0.52538683415E+02 -0.67265114557E+02  0.21852850251E+03  0.91901819536E+02 0.  0.
         23    2    4    4    0    0 -0.67699612593E+03  0.54251716473E+02 -0.16432070953E+04  0.17803333718E+04  0.90500571386E+02 0.  0.
          3    1    3    3  502    0  0.83222915060E+02  0.75697987391E+01  0.28925104337E+02  0.88430860592E+02  0.00000000000E+00 0. -1.
         -4    1    3    3    0  502  0.41482111370E+03 -0.11436019863E+03  0.51532211215E+02  0.43337094987E+03  0.00000000000E+00 0.  1.
         13    1    5    5    0    0  0.12312953152E+03  0.23407170970E+02  0.14282018497E+01  0.12534279775E+03  0.00000000000E+00 0. -1.
        -13    1    5    5    0    0  0.55822565648E+02  0.29131512445E+02 -0.68693316407E+02  0.93185704761E+02  0.00000000000E+00 0.  1.
          1    1    6    6  503    0 -0.56935104693E+03  0.54801290080E+02 -0.14569746486E+04  0.15652280737E+04  0.00000000000E+00 0. -1.
         -1    1    6    6    0  503 -0.10764507901E+03 -0.54957360708E+00 -0.18623244667E+03  0.21510529807E+03  0.00000000000E+00 0.  1.
<mgrwt>
<rscale>  0 0.19227056E+04</rscale>
<asrwt>0</asrwt>
<pdfrwt beam="1">  1        1 0.31928297E+00 0.19227056E+04</pdfrwt>
<pdfrwt beam="2">  1       -2 0.68511445E-01 0.19227056E+04</pdfrwt>
<totfact> 0.42320794E+00</totfact>
</mgrwt>
</event>
<event>
12    5  0.5197392E-008  0.2686181E+04  0.7818608E-02  0.8339503E-01
         -2   -1    0    0    0  501 -0.00000000000E+00  0.00000000000E+00  0.16441548532E+04  0.16441548532E+04  0.00000000000E+00 0.  1.
          1   -1    0    0  501    0  0.00000000000E+00 -0.00000000000E+00 -0.10971549439E+04  0.10971549439E+04  0.00000000000E+00 0. -1.
        -24    2    1    2    0    0  0.33192975038E+03 -0.92944149893E+03 -0.43689699508E+03  0.10822948880E+04  0.80276903124E+02 0.  0.
        254    2    1    2    0    0 -0.33192975038E+03  0.92944149893E+03  0.98389690443E+03  0.16590149091E+04  0.90013248516E+03 0.  0.
         23    2    4    4    0    0 -0.56051132020E+03  0.46650772114E+03  0.29153743314E+03  0.79063975513E+03  0.91185270309E+02 0.  0.
         23    2    4    4    0    0  0.22858156982E+03  0.46293377779E+03  0.69235947129E+03  0.86837515393E+03  0.90313641285E+02 0.  0.
          3    1    3    3  502    0  0.32354120211E+03 -0.84173449409E+03 -0.40564434983E+03  0.98880898386E+03  0.00000000000E+00 0. -1.
         -4    1    3    3    0  502  0.83885482733E+01 -0.87707004833E+02 -0.31252645243E+02  0.93485904144E+02  0.00000000000E+00 0.  1.
         13    1    5    5    0    0 -0.13279389177E+02 -0.20465718357E+01 -0.77307648091E-01  0.13436391244E+02  0.00000000000E+00 0.  1.
        -13    1    5    5    0    0 -0.54723193102E+03  0.46855429297E+03  0.29161474079E+03  0.77720336389E+03  0.00000000000E+00 0. -1.
          1    1    6    6  503    0  0.21783387975E+03  0.42939320672E+03  0.59856748643E+03  0.76818823277E+03  0.00000000000E+00 0. -1.
         -1    1    6    6    0  503  0.10747690067E+02  0.33540571068E+02  0.93791984853E+02  0.10018692116E+03  0.00000000000E+00 0.  1.
<mgrwt>
<rscale>  0 0.26861814E+04</rscale>
<asrwt>0</asrwt>
<pdfrwt beam="1">  1        1 0.16879307E+00 0.26861814E+04</pdfrwt>
<pdfrwt beam="2">  1       -2 0.25294690E+00 0.26861814E+04</pdfrwt>
<totfact> 0.60233187E-01</totfact>
</mgrwt>
</event>
<event>
12    5  0.5197392E-008  0.1634234E+04  0.7818608E-02  0.8799789E-01
         -2   -1    0    0    0  501 -0.00000000000E+00  0.00000000000E+00  0.41971225073E+03  0.41971225073E+03  0.00000000000E+00 0.  1.
          1   -1    0    0  501    0  0.00000000000E+00 -0.00000000000E+00 -0.15908040997E+04  0.15908040997E+04  0.00000000000E+00 0. -1.
        -24    2    1    2    0    0  0.35960207085E+03 -0.80643188072E+02  0.13822887099E+03  0.40139296630E+03  0.78690021471E+02 0.  0.
        254    2    1    2    0    0 -0.35960207085E+03  0.80643188072E+02 -0.13093207200E+04  0.16091233841E+04  0.85973271687E+03 0.  0.
         23    2    4    4    0    0 -0.57079218377E+03 -0.61899024300E+02 -0.11654903145E+04  0.13021522312E+04  0.87163946765E+02 0.  0.
         23    2    4    4    0    0  0.21119011292E+03  0.14254221237E+03 -0.14383040548E+03  0.30697115299E+03  0.92868493713E+02 0.  0.
          1    1    3    3  502    0  0.96244072816E+01 -0.12050256664E+02 -0.61999010781E+01  0.16621572566E+02  0.00000000000E+00 0. -1.
         -2    1    3    3    0  502  0.34997766357E+03 -0.68592931408E+02  0.14442877207E+03  0.38477139374E+03  0.00000000000E+00 0.  1.
         13    1    5    5    0    0 -0.42226245195E+03 -0.71577814202E+02 -0.79809547896E+03  0.90575126572E+03  0.00000000000E+00 0. -1.
        -13    1    5    5    0    0 -0.14852973182E+03  0.96787899020E+01 -0.36739483555E+03  0.39640096544E+03  0.00000000000E+00 0.  1.
          1    1    6    6  503    0  0.11491447259E+03  0.12454441432E+03 -0.11527067587E+03  0.20494871521E+03  0.00000000000E+00 0. -1.
         -1    1    6    6    0  503  0.96275640329E+02  0.17997798047E+02 -0.28559729607E+02  0.10202243778E+03  0.00000000000E+00 0.  1.
<mgrwt>
<rscale>  0 0.16342337E+04</rscale>
<asrwt>0</asrwt>
<pdfrwt beam="1">  1        1 0.24473909E+00 0.16342337E+04</pdfrwt>
<pdfrwt beam="2">  1       -2 0.64571116E-01 0.16342337E+04</pdfrwt>
<totfact> 0.10528449E+01</totfact>
</mgrwt>
</event>
<event>
12    5  0.5197392E-008  0.3190029E+04  0.7818608E-02  0.8191455E-01
         -2   -1    0    0    0  501 -0.00000000000E+00  0.00000000000E+00  0.95859908332E+03  0.95859908332E+03  0.00000000000E+00 0.  1.
          1   -1    0    0  501    0  0.00000000000E+00 -0.00000000000E+00 -0.26539471417E+04  0.26539471417E+04  0.00000000000E+00 0. -1.
        -24    2    1    2    0    0 -0.16787408834E+03  0.86919962538E+03  0.53832893968E+03  0.10391818153E+04  0.80069342656E+02 0.  0.
        254    2    1    2    0    0  0.16787408834E+03 -0.86919962538E+03 -0.22336769981E+04  0.25733644098E+04  0.92152143510E+03 0.  0.
         23    2    4    4    0    0  0.31801861532E+03 -0.48333782279E+02 -0.24522659406E+03  0.41450309491E+03  0.90580014676E+02 0.  0.
         23    2    4    4    0    0 -0.15014452698E+03 -0.82086584310E+03 -0.19884504040E+04  0.21588613148E+04  0.10189728221E+03 0.  0.
          1    1    3    3  502    0 -0.34403707537E+02  0.70920777351E+02  0.36448274156E+02  0.86843816367E+02  0.00000000000E+00 0. -1.
         -2    1    3    3    0  502 -0.13347038080E+03  0.79827884803E+03  0.50188066553E+03  0.95233799892E+03  0.00000000000E+00 0.  1.
         13    1    5    5    0    0  0.10587125001E+03 -0.30446657772E+02 -0.13661973683E+03  0.17550120524E+03  0.00000000000E+00 0.  1.
        -13    1    5    5    0    0  0.21214736531E+03 -0.17887124507E+02 -0.10860685723E+03  0.23900188967E+03  0.00000000000E+00 0. -1.
          1    1    6    6  503    0 -0.10923371315E+03 -0.46591120692E+03 -0.12511567476E+04  0.13395515906E+04  0.00000000000E+00 0. -1.
         -1    1    6    6    0  503 -0.40910813828E+02 -0.35495463618E+03 -0.73729365641E+03  0.81930972423E+03  0.00000000000E+00 0.  1.
<mgrwt>
<rscale>  0 0.31900290E+04</rscale>
<asrwt>0</asrwt>
<pdfrwt beam="1">  1        1 0.40829956E+00 0.31900290E+04</pdfrwt>
<pdfrwt beam="2">  1       -2 0.14747678E+00 0.31900290E+04</pdfrwt>
<totfact> 0.24411940E-01</totfact>
</mgrwt>
</event>
<event>
12    5  0.5197392E-008  0.2502366E+04  0.7818608E-02  0.8402143E-01
         -2   -1    0    0    0  501 -0.00000000000E+00  0.00000000000E+00  0.88674621272E+03  0.88674621272E+03  0.00000000000E+00 0.  1.
          1   -1    0    0  501    0  0.00000000000E+00 -0.00000000000E+00 -0.17653965470E+04  0.17653965470E+04  0.00000000000E+00 0. -1.
        -24    2    1    2    0    0  0.66409753654E+02  0.10828778810E+04 -0.37504975705E+03  0.11506958629E+04  0.80024297343E+02 0.  0.
        254    2    1    2    0    0 -0.66409753654E+02 -0.10828778810E+04 -0.50360057727E+03  0.15014468969E+04  0.90757615783E+03 0.  0.
         23    2    4    4    0    0 -0.30641368419E+03 -0.11092439549E+04 -0.36371062442E+03  0.12103107779E+04  0.90858480420E+02 0.  0.
         23    2    4    4    0    0  0.24000393054E+03  0.26366073932E+02 -0.13988995285E+03  0.29113611898E+03  0.83030020688E+02 0.  0.
          1    1    3    3  502    0  0.24551543025E+02  0.48590429371E+03 -0.12655177406E+03  0.50271374800E+03  0.00000000000E+00 0. -1.
         -4    1    3    3    0  502  0.41858210629E+02  0.59697358724E+03 -0.24849798299E+03  0.64798211488E+03  0.00000000000E+00 0.  1.
         13    1    5    5    0    0 -0.15026585119E+03 -0.38130440904E+03 -0.12532187037E+03  0.42857723876E+03  0.00000000000E+00 0. -1.
        -13    1    5    5    0    0 -0.15614783300E+03 -0.72793954584E+03 -0.23838875405E+03  0.78173353914E+03  0.00000000000E+00 0.  1.
          1    1    6    6  503    0  0.41014921199E+02  0.36711970991E+02 -0.41335282907E+02  0.68837476624E+02  0.00000000000E+00 0. -1.
         -1    1    6    6    0  503  0.19898900934E+03 -0.10345897059E+02 -0.98554669943E+02  0.22229864235E+03  0.00000000000E+00 0.  1.
<mgrwt>
<rscale>  0 0.25023658E+04</rscale>
<asrwt>0</asrwt>
<pdfrwt beam="1">  1        1 0.27159947E+00 0.25023658E+04</pdfrwt>
<pdfrwt beam="2">  1       -2 0.13642250E+00 0.25023658E+04</pdfrwt>
<totfact> 0.12889709E+00</totfact>
</mgrwt>
</event>
<event>
12    5  0.5197392E-008  0.1359417E+04  0.7818608E-02  0.8983730E-01
          1   -1    0    0  501    0  0.00000000000E+00  0.00000000000E+00  0.41902100440E+03  0.41902100440E+03  0.00000000000E+00 0. -1.
         -2   -1    0    0    0  501 -0.00000000000E+00 -0.00000000000E+00 -0.11025782632E+04  0.11025782632E+04  0.00000000000E+00 0.  1.
        -24    2    1    2    0    0 -0.84934348873E+02 -0.12182282810E+03 -0.57683504574E+03  0.60100525009E+03  0.80087424546E+02 0.  0.
        254    2    1    2    0    0  0.84934348873E+02  0.12182282810E+03 -0.10672221307E+03  0.92059401754E+03  0.90224667874E+03 0.  0.
         23    2    4    4    0    0 -0.22748327122E+03  0.18217104189E+03 -0.38268292208E+03  0.48965741460E+03  0.91560022026E+02 0.  0.
         23    2    4    4    0    0  0.31241762009E+03 -0.60348213785E+02  0.27596070901E+03  0.43093660294E+03  0.91133783988E+02 0.  0.
          1    1    3    3  502    0 -0.17869988753E+02  0.26773492123E+01 -0.15605993097E+03  0.15710253579E+03  0.00000000000E+00 0. -1.
         -2    1    3    3    0  502 -0.67064360120E+02 -0.12450017732E+03 -0.42077511477E+03  0.44390271430E+03  0.00000000000E+00 0.  1.
         13    1    5    5    0    0 -0.20925837312E+03  0.14225384333E+03 -0.27670715197E+03  0.37495609158E+03  0.00000000000E+00 0. -1.
        -13    1    5    5    0    0 -0.18224898097E+02  0.39917198560E+02 -0.10597577011E+03  0.11470132302E+03  0.00000000000E+00 0.  1.
          4    1    6    6  503    0  0.13198399586E+03 -0.16145614359E+02  0.59451205991E+02  0.14565336220E+03  0.00000000000E+00 0. -1.
         -4    1    6    6    0  503  0.18043362423E+03 -0.44202599426E+02  0.21650950302E+03  0.28528324074E+03  0.00000000000E+00 0.  1.
<mgrwt>
<rscale>  0 0.13594167E+04</rscale>
<asrwt>0</asrwt>
<pdfrwt beam="1">  1        1 0.64464771E-01 0.13594167E+04</pdfrwt>
<pdfrwt beam="2">  1       -2 0.16962742E+00 0.13594167E+04</pdfrwt>
<totfact> 0.10323403E+01</totfact>
</mgrwt>
</event>
<event>
12    5  0.5197392E-008  0.1283382E+04  0.7818608E-02  0.9042848E-01
         -2   -1    0    0    0  501 -0.00000000000E+00  0.00000000000E+00  0.53967742225E+03  0.53967742225E+03  0.00000000000E+00 0.  1.
          1   -1    0    0  501    0  0.00000000000E+00 -0.00000000000E+00 -0.76298756626E+03  0.76298756626E+03  0.00000000000E+00 0. -1.
        -24    2    1    2    0    0 -0.16354508849E+03 -0.88742227583E+02 -0.32353230359E+03  0.38241013158E+03  0.83319735623E+02 0.  0.
        254    2    1    2    0    0  0.16354508849E+03  0.88742227583E+02  0.10022215958E+03  0.92025485693E+03  0.89565749118E+03 0.  0.
         23    2    4    4    0    0 -0.47347566275E+02  0.20592874711E+03  0.43859075356E+03  0.49490672120E+03  0.89007711278E+02 0.  0.
         23    2    4    4    0    0  0.21089265477E+03 -0.11718651952E+03 -0.33836859399E+03  0.42534813573E+03  0.90660570138E+02 0.  0.
          1    1    3    3  502    0 -0.91732846746E+02 -0.36573086743E+02 -0.24400954127E+03  0.26323594374E+03  0.00000000000E+00 0. -1.
         -2    1    3    3    0  502 -0.71812241746E+02 -0.52169140840E+02 -0.79522762315E+02  0.11917418784E+03  0.00000000000E+00 0.  1.
         13    1    5    5    0    0 -0.52776457354E+02  0.16139457148E+03  0.40406918877E+03  0.43829838178E+03  0.00000000000E+00 0.  1.
        -13    1    5    5    0    0  0.54288910792E+01  0.44534175626E+02  0.34521564787E+02  0.56608339424E+02  0.00000000000E+00 0. -1.
          3    1    6    6  503    0  0.15189156602E+02 -0.33535926581E+01 -0.81391415119E+02  0.82864464743E+02  0.00000000000E+00 0. -1.
         -3    1    6    6    0  503  0.19570349816E+03 -0.11383292686E+03 -0.25697717887E+03  0.34248367098E+03  0.00000000000E+00 0.  1.
<mgrwt>
<rscale>  0 0.12833817E+04</rscale>
<asrwt>0</asrwt>
<pdfrwt beam="1">  1        1 0.11738270E+00 0.12833817E+04</pdfrwt>
<pdfrwt beam="2">  1       -2 0.83027295E-01 0.12833817E+04</pdfrwt>
<totfact> 0.26116805E+01</totfact>
</mgrwt>
</event>
<event>
12    5  0.5197392E-008  0.1188538E+04  0.7818608E-02  0.9122949E-01
         -2   -1    0    0    0  501 -0.00000000000E+00  0.00000000000E+00  0.83049091592E+03  0.83049091592E+03  0.00000000000E+00 0.  1.
          1   -1    0    0  501    0  0.00000000000E+00 -0.00000000000E+00 -0.42523722959E+03  0.42523722959E+03  0.00000000000E+00 0. -1.
        -24    2    1    2    0    0  0.56395535866E+02 -0.18210552000E+03 -0.68799514945E+02  0.21790813582E+03  0.80048145033E+02 0.  0.
        254    2    1    2    0    0 -0.56395535866E+02  0.18210552000E+03  0.47405320128E+03  0.10378200097E+04  0.90332776886E+03 0.  0.
         23    2    4    4    0    0  0.30794587772E+03  0.34778226937E+03  0.10415775174E+03  0.48508482025E+03  0.93141156795E+02 0.  0.
         23    2    4    4    0    0 -0.36434141359E+03 -0.16567674938E+03  0.36989544954E+03  0.55273518944E+03  0.92195960394E+02 0.  0.
          3    1    3    3  502    0  0.36324727922E+02 -0.17197225561E+03 -0.79616251533E+02  0.19295774166E+03  0.00000000000E+00 0. -1.
         -4    1    3    3    0  502  0.20070807944E+02 -0.10133264389E+02  0.10816736588E+02  0.24950394168E+02  0.00000000000E+00 0.  1.
         13    1    5    5    0    0  0.31126012939E+03  0.35079561293E+03  0.10484033238E+03  0.48055376962E+03  0.00000000000E+00 0. -1.
        -13    1    5    5    0    0 -0.33142516637E+01 -0.30133435582E+01 -0.68258064115E+00  0.45310506311E+01  0.00000000000E+00 0.  1.
          1    1    6    6  503    0 -0.32492105073E+03 -0.17451845282E+03  0.34646863064E+03  0.50603447669E+03  0.00000000000E+00 0. -1.
         -1    1    6    6    0  503 -0.39420362855E+02  0.88417034404E+01  0.23426818909E+02  0.46700712752E+02  0.00000000000E+00 0.  1.
<mgrwt>
<rscale>  0 0.11885380E+04</rscale>
<asrwt>0</asrwt>
<pdfrwt beam="1">  1        1 0.65421112E-01 0.11885380E+04</pdfrwt>
<pdfrwt beam="2">  1       -2 0.12776783E+00 0.11885380E+04</pdfrwt>
<totfact> 0.21697606E+01</totfact>
</mgrwt>
</event>
<event>
12    5  0.5197392E-008  0.2305476E+04  0.7818608E-02  0.8475765E-01
         -2   -1    0    0    0  501 -0.00000000000E+00  0.00000000000E+00  0.64935294927E+03  0.64935294927E+03  0.00000000000E+00 0.  1.
          1   -1    0    0  501    0  0.00000000000E+00 -0.00000000000E+00 -0.20463528043E+04  0.20463528043E+04  0.00000000000E+00 0. -1.
        -24    2    1    2    0    0  0.65764876506E+03  0.15954614216E+03 -0.14125055154E+04  0.15681575107E+04  0.77390423564E+02 0.  0.
        254    2    1    2    0    0 -0.65764876506E+03 -0.15954614216E+03  0.15505660382E+02  0.11275482429E+04  0.90175814099E+03 0.  0.
         23    2    4    4    0    0 -0.83793302215E+03 -0.28215822333E+03  0.34027169610E+02  0.89001748645E+03  0.96063860583E+02 0.  0.
         23    2    4    4    0    0  0.18028425709E+03  0.12261208117E+03 -0.18521509228E+02  0.23753075642E+03  0.92421199607E+02 0.  0.
          3    1    3    3  502    0  0.60023689216E+03  0.13505901182E+03 -0.13227564309E+04  0.14588385239E+04  0.00000000000E+00 0. -1.
         -4    1    3    3    0  502  0.57411872899E+02  0.24487130339E+02 -0.89749084524E+02  0.10931898680E+03  0.00000000000E+00 0.  1.
         13    1    5    5    0    0 -0.17588747717E+02 -0.89500786018E+01 -0.13754608586E+02  0.24055294856E+02  0.00000000000E+00 0.  1.
        -13    1    5    5    0    0 -0.82034427443E+03 -0.27320814473E+03  0.47781778196E+02  0.86596219159E+03  0.00000000000E+00 0. -1.
          3    1    6    6  503    0  0.16790134465E+03  0.91200203680E+02 -0.42970571379E+02  0.19584383751E+03  0.00000000000E+00 0. -1.
         -3    1    6    6    0  503  0.12382912444E+02  0.31411877490E+02  0.24449062151E+02  0.41686918909E+02  0.00000000000E+00 0.  1.
<mgrwt>
<rscale>  0 0.23054763E+04</rscale>
<asrwt>0</asrwt>
<pdfrwt beam="1">  1        1 0.31482350E+00 0.23054763E+04</pdfrwt>
<pdfrwt beam="2">  1       -2 0.99900456E-01 0.23054763E+04</pdfrwt>
<totfact> 0.18214486E+00</totfact>
</mgrwt>
</event>
<event>
12    5  0.5197392E-008  0.1499960E+04  0.7818608E-02  0.8884480E-01
         -2   -1    0    0    0  501 -0.00000000000E+00  0.00000000000E+00  0.18911633602E+03  0.18911633602E+03  0.00000000000E+00 0.  1.
          1   -1    0    0  501    0  0.00000000000E+00 -0.00000000000E+00 -0.29741991428E+04  0.29741991428E+04  0.00000000000E+00 0. -1.
        -24    2    1    2    0    0 -0.13027676719E+03  0.32270809380E+03 -0.15365985141E+04  0.15774268229E+04  0.77639152939E+02 0.  0.
        254    2    1    2    0    0  0.13027676719E+03 -0.32270809380E+03 -0.12484842927E+04  0.15858886560E+04  0.91390221041E+03 0.  0.
         23    2    4    4    0    0  0.38963810278E+03  0.12095517734E+03 -0.78045755747E+03  0.88501309728E+03  0.87670846213E+02 0.  0.
         23    2    4    4    0    0 -0.25936133559E+03 -0.44366327114E+03 -0.46802673521E+03  0.70087555869E+03  0.89844996172E+02 0.  0.
          3    1    3    3  502    0 -0.10567706566E+03  0.25812001851E+03 -0.10708086650E+04  0.11065372941E+04  0.00000000000E+00 0. -1.
         -4    1    3    3    0  502 -0.24599701526E+02  0.64588075292E+02 -0.46578984910E+03  0.47088952877E+03  0.00000000000E+00 0.  1.
         13    1    5    5    0    0  0.23115692459E+03  0.11621987940E+03 -0.48732082275E+03  0.55174465874E+03  0.00000000000E+00 0. -1.
        -13    1    5    5    0    0  0.15848117819E+03  0.47352979361E+01 -0.29313673472E+03  0.33326843854E+03  0.00000000000E+00 0.  1.
          1    1    6    6  503    0 -0.17109342394E+03 -0.36402715422E+03 -0.34693005750E+03  0.53117717715E+03  0.00000000000E+00 0. -1.
         -1    1    6    6    0  503 -0.88267911652E+02 -0.79636116922E+02 -0.12109667772E+03  0.16969838155E+03  0.00000000000E+00 0.  1.
<mgrwt>
<rscale>  0 0.14999595E+04</rscale>
<asrwt>0</asrwt>
<pdfrwt beam="1">  1        1 0.45756909E+00 0.14999595E+04</pdfrwt>
<pdfrwt beam="2">  1       -2 0.29094821E-01 0.14999595E+04</pdfrwt>
<totfact> 0.57916393E+00</totfact>
</mgrwt>
</event>
<event>
12    5  0.5197392E-008  0.1806942E+04  0.7818608E-02  0.8702616E-01
         -2   -1    0    0    0  501 -0.00000000000E+00  0.00000000000E+00  0.62623085652E+03  0.62623085652E+03  0.00000000000E+00 0.  1.
          1   -1    0    0  501    0  0.00000000000E+00 -0.00000000000E+00 -0.13034487810E+04  0.13034487810E+04  0.00000000000E+00 0. -1.
        -24    2    1    2    0    0  0.23742595511E+03 -0.66306196999E+02  0.41366279261E+03  0.48813406474E+03  0.79939747602E+02 0.  0.
        254    2    1    2    0    0 -0.23742595511E+03  0.66306196999E+02 -0.10908807171E+04  0.14415455728E+04  0.90954125999E+03 0.  0.
         23    2    4    4    0    0 -0.56652611379E+03 -0.32387263259E+02 -0.55910068799E+03  0.80197108407E+03  0.92537927041E+02 0.  0.
         23    2    4    4    0    0  0.32910015869E+03  0.98693460258E+02 -0.53178002915E+03  0.63957448877E+03  0.90654364144E+02 0.  0.
          1    1    3    3  502    0  0.11114016625E+03 -0.12203394153E+02  0.12053562219E+03  0.16440771149E+03  0.00000000000E+00 0. -1.
         -2    1    3    3    0  502  0.12628578886E+03 -0.54102802847E+02  0.29312717042E+03  0.32372635324E+03  0.00000000000E+00 0.  1.
         13    1    5    5    0    0 -0.10596124322E+03  0.20323047625E+02 -0.14228592370E+03  0.17856678138E+03  0.00000000000E+00 0.  1.
        -13    1    5    5    0    0 -0.46056487057E+03 -0.52710310884E+02 -0.41681476429E+03  0.62340430268E+03  0.00000000000E+00 0. -1.
          4    1    6    6  503    0  0.10019198753E+03  0.30283613255E+01 -0.99973612427E+02  0.14157093105E+03  0.00000000000E+00 0.  1.
         -4    1    6    6    0  503  0.22890817115E+03  0.95665098933E+02 -0.43180641672E+03  0.49800355771E+03  0.00000000000E+00 0. -1.
<mgrwt>
<rscale>  0 0.18069420E+04</rscale>
<asrwt>0</asrwt>
<pdfrwt beam="1">  1        1 0.20053058E+00 0.18069420E+04</pdfrwt>
<pdfrwt beam="2">  1       -2 0.96343209E-01 0.18069420E+04</pdfrwt>
<totfact> 0.67112635E+00</totfact>
</mgrwt>
</event>
<event>
12    5  0.5197392E-008  0.1588620E+04  0.7818608E-02  0.8827570E-01
          1   -1    0    0  501    0  0.00000000000E+00  0.00000000000E+00  0.82670871512E+03  0.82670871512E+03  0.00000000000E+00 0. -1.
         -2   -1    0    0    0  501 -0.00000000000E+00 -0.00000000000E+00 -0.76318055397E+03  0.76318055397E+03  0.00000000000E+00 0.  1.
        -24    2    1    2    0    0 -0.47728789670E+03  0.76309564766E+02  0.24126069837E+03  0.54615448963E+03  0.80318839333E+02 0.  0.
        254    2    1    2    0    0  0.47728789670E+03 -0.76309564766E+02 -0.17773253722E+03  0.10437347795E+04  0.90783619065E+03 0.  0.
         23    2    4    4    0    0  0.11029640200E+03  0.39205236013E+03 -0.36592475931E+01  0.41706358128E+03  0.89767986281E+02 0.  0.
         23    2    4    4    0    0  0.36699149471E+03 -0.46836192490E+03 -0.17407328963E+03  0.62667119818E+03  0.91485685148E+02 0.  0.
          1    1    3    3  502    0 -0.40448685351E+03  0.59947697182E+02  0.23414819527E+03  0.47119923430E+03  0.00000000000E+00 0. -1.
         -2    1    3    3    0  502 -0.72801043193E+02  0.16361867584E+02  0.71125031005E+01  0.74955255328E+02  0.00000000000E+00 0.  1.
         13    1    5    5    0    0  0.58140024211E+02  0.12549998569E+03  0.35119394017E+02  0.14270206957E+03  0.00000000000E+00 0. -1.
        -13    1    5    5    0    0  0.52156377785E+02  0.26655237444E+03 -0.38778641610E+02  0.27436151171E+03  0.00000000000E+00 0.  1.
          4    1    6    6  503    0  0.21764607989E+01 -0.13938468718E+01  0.66602301936E+01  0.71441204457E+01  0.00000000000E+00 0. -1.
         -4    1    6    6    0  503  0.36481503391E+03 -0.46696807802E+03 -0.18073351982E+03  0.61952707773E+03  0.00000000000E+00 0.  1.
<mgrwt>
<rscale>  0 0.15886195E+04</rscale>
<asrwt>0</asrwt>
<pdfrwt beam="1">  1        1 0.12718596E+00 0.15886195E+04</pdfrwt>
<pdfrwt beam="2">  1       -2 0.11741239E+00 0.15886195E+04</pdfrwt>
<totfact> 0.98842163E+00</totfact>
</mgrwt>
</event>
<event>
12    5  0.5197392E-008  0.1827525E+04  0.7818608E-02  0.8691798E-01
         -2   -1    0    0    0  501 -0.00000000000E+00  0.00000000000E+00  0.57726487603E+03  0.57726487603E+03  0.00000000000E+00 0.  1.
          1   -1    0    0  501    0  0.00000000000E+00 -0.00000000000E+00 -0.14464097189E+04  0.14464097189E+04  0.00000000000E+00 0. -1.
        -24    2    1    2    0    0  0.86862976112E+02 -0.56692551926E+03 -0.58246440133E+03  0.82125908799E+03  0.79069524992E+02 0.  0.
        254    2    1    2    0    0 -0.86862976112E+02  0.56692551926E+03 -0.28668044157E+03  0.12024155070E+04  0.10171861456E+04 0.  0.
         23    2    4    4    0    0 -0.17995114150E+03 -0.24289527403E+03  0.42129324107E+02  0.31863755831E+03  0.91512218532E+02 0.  0.
         23    2    4    4    0    0  0.93088165392E+02  0.80982079329E+03 -0.32880976568E+03  0.88377794865E+03  0.92046057640E+02 0.  0.
          1    1    3    3  502    0  0.90423756113E+02 -0.49068552999E+03 -0.47080516260E+03  0.68600746799E+03  0.00000000000E+00 0. -1.
         -2    1    3    3    0  502 -0.35607800009E+01 -0.76239989270E+02 -0.11165923873E+03  0.13525162000E+03  0.00000000000E+00 0.  1.
         13    1    5    5    0    0 -0.88385356792E+02 -0.17873778571E+03  0.52955450840E+02  0.20630910574E+03  0.00000000000E+00 0.  1.
        -13    1    5    5    0    0 -0.91565784712E+02 -0.64157488321E+02 -0.10826126733E+02  0.11232845257E+03  0.00000000000E+00 0. -1.
          1    1    6    6  503    0  0.35026315869E+01  0.12934579367E+00 -0.71082158442E+01  0.79253953123E+01  0.00000000000E+00 0. -1.
         -1    1    6    6    0  503  0.89585533805E+02  0.80969144750E+03 -0.32170154983E+03  0.87585255334E+03  0.00000000000E+00 0.  1.
<mgrwt>
<rscale>  0 0.18275246E+04</rscale>
<asrwt>0</asrwt>
<pdfrwt beam="1">  1        1 0.22252457E+00 0.18275246E+04</pdfrwt>
<pdfrwt beam="2">  1       -2 0.88809981E-01 0.18275246E+04</pdfrwt>
<totfact> 0.64174263E+00</totfact>
</mgrwt>
</event>
<event>
12    5  0.5197392E-008  0.1659096E+04  0.7818608E-02  0.8785043E-01
         -2   -1    0    0    0  501 -0.00000000000E+00  0.00000000000E+00  0.27920611850E+03  0.27920611850E+03  0.00000000000E+00 0.  1.
          1   -1    0    0  501    0  0.00000000000E+00 -0.00000000000E+00 -0.24646675832E+04  0.24646675832E+04  0.00000000000E+00 0. -1.
        -24    2    1    2    0    0  0.28833720587E+03  0.46725335686E+03 -0.45273817223E+03  0.71617522449E+03  0.80442872853E+02 0.  0.
        254    2    1    2    0    0 -0.28833720587E+03 -0.46725335686E+03 -0.17327232925E+04  0.20276984772E+04  0.89875862303E+03 0.  0.
         23    2    4    4    0    0 -0.15923495722E+02 -0.21142175674E+03 -0.16088927645E+04  0.16258369286E+04  0.99282797660E+02 0.  0.
         23    2    4    4    0    0 -0.27241371015E+03 -0.25583160011E+03 -0.12383052799E+03  0.40186154861E+03  0.80620515344E+02 0.  0.
          3    1    3    3  502    0  0.13122463716E+03  0.14626543690E+03 -0.18183756723E+03  0.26772819105E+03  0.00000000000E+00 0. -1.
         -4    1    3    3    0  502  0.15711256871E+03  0.32098791996E+03 -0.27090060501E+03  0.44844703344E+03  0.00000000000E+00 0.  1.
         13    1    5    5    0    0  0.33902562713E+00 -0.59657892671E+02 -0.82929599014E+03  0.83143912487E+03  0.00000000000E+00 0.  1.
        -13    1    5    5    0    0 -0.16262521349E+02 -0.15176386407E+03 -0.77959677433E+03  0.79439780374E+03  0.00000000000E+00 0. -1.
          3    1    6    6  503    0 -0.67289289026E+02 -0.24863375050E+02 -0.38369613202E+02  0.81352707722E+02  0.00000000000E+00 0. -1.
         -3    1    6    6    0  503 -0.20512442112E+03 -0.23096822506E+03 -0.85460914791E+02  0.32050884088E+03  0.00000000000E+00 0.  1.
<mgrwt>
<rscale>  0 0.16590965E+04</rscale>
<asrwt>0</asrwt>
<pdfrwt beam="1">  1        1 0.37917963E+00 0.16590965E+04</pdfrwt>
<pdfrwt beam="2">  1       -2 0.42954788E-01 0.16590965E+04</pdfrwt>
<totfact> 0.61856507E+00</totfact>
</mgrwt>
</event>
<event>
12    5  0.5197392E-008  0.1284509E+04  0.7818608E-02  0.9041941E-01
          1   -1    0    0  501    0  0.00000000000E+00  0.00000000000E+00  0.12922885391E+04  0.12922885391E+04  0.00000000000E+00 0. -1.
         -2   -1    0    0    0  501 -0.00000000000E+00 -0.00000000000E+00 -0.31919410495E+03  0.31919410495E+03  0.00000000000E+00 0.  1.
        -24    2    1    2    0    0  0.20376285596E+01 -0.30782977693E+03  0.28539913820E+03  0.42743685126E+03  0.80537384063E+02 0.  0.
        254    2    1    2    0    0 -0.20376285596E+01  0.30782977693E+03  0.68769529599E+03  0.11840457928E+04  0.91338726503E+03 0.  0.
         23    2    4    4    0    0  0.22591059995E+02 -0.28574546700E+03  0.44035543817E+03  0.53358809363E+03  0.92965121610E+02 0.  0.
         23    2    4    4    0    0 -0.24628688555E+02  0.59357524393E+03  0.24733985782E+03  0.65045769921E+03  0.94763234917E+02 0.  0.
          3    1    3    3  502    0  0.17360881109E+02 -0.64819026450E+02  0.10412964764E+03  0.12387852881E+03  0.00000000000E+00 0. -1.
         -4    1    3    3    0  502 -0.15323252549E+02 -0.24301075048E+03  0.18126949056E+03  0.30355832244E+03  0.00000000000E+00 0.  1.
         13    1    5    5    0    0 -0.20403733990E+02 -0.79344932430E+02  0.71541121130E+02  0.10876609157E+03  0.00000000000E+00 0. -1.
        -13    1    5    5    0    0  0.42994793985E+02 -0.20640053457E+03  0.36881431704E+03  0.42482200206E+03  0.00000000000E+00 0.  1.
          2    1    6    6  503    0 -0.29096497905E+02  0.23472751836E+03  0.53190153734E+02  0.24243103456E+03  0.00000000000E+00 0. -1.
         -2    1    6    6    0  503  0.44678093507E+01  0.35884772557E+03  0.19414970409E+03  0.40802666465E+03  0.00000000000E+00 0.  1.
<mgrwt>
<rscale>  0 0.12845091E+04</rscale>
<asrwt>0</asrwt>
<pdfrwt beam="1">  1        1 0.19881362E+00 0.12845091E+04</pdfrwt>
<pdfrwt beam="2">  1       -2 0.49106786E-01 0.12845091E+04</pdfrwt>
<totfact> 0.31030574E+01</totfact>
</mgrwt>
</event>
<event>
12    5  0.5197392E-008  0.1308998E+04  0.7818608E-02  0.9022460E-01
          1   -1    0    0  501    0  0.00000000000E+00  0.00000000000E+00  0.13797009258E+04  0.13797009258E+04  0.00000000000E+00 0. -1.
         -2   -1    0    0    0  501 -0.00000000000E+00 -0.00000000000E+00 -0.31047979703E+03  0.31047979703E+03  0.00000000000E+00 0.  1.
        -24    2    1    2    0    0 -0.19149807940E+03  0.28079656626E+03  0.61879766830E+02  0.35443053712E+03  0.79206527905E+02 0.  0.
        254    2    1    2    0    0  0.19149807940E+03 -0.28079656626E+03  0.10073413619E+04  0.13357501857E+04  0.80868641208E+03 0.  0.
         23    2    4    4    0    0  0.18176955265E+03 -0.80345877819E+02 -0.73721268264E+02  0.23259827992E+03  0.95767969969E+02 0.  0.
         23    2    4    4    0    0  0.97285267502E+01 -0.20045068844E+03  0.10810626302E+04  0.11031519058E+04  0.89289384068E+02 0.  0.
          3    1    3    3  502    0 -0.10835723580E+03  0.13989155572E+03 -0.65996378932E+01  0.17707199985E+03  0.00000000000E+00 0. -1.
         -4    1    3    3    0  502 -0.83140843600E+02  0.14090501054E+03  0.68479404724E+02  0.17735853727E+03  0.00000000000E+00 0.  1.
         13    1    5    5    0    0  0.16645291758E+02  0.11106204327E+02  0.14031408090E+02  0.24439597485E+02  0.00000000000E+00 0. -1.
        -13    1    5    5    0    0  0.16512426089E+03 -0.91452082146E+02 -0.87752676354E+02  0.20815868243E+03  0.00000000000E+00 0.  1.
          2    1    6    6  503    0  0.13952936475E+02 -0.67155566428E+01  0.22041829243E+03  0.22096155045E+03  0.00000000000E+00 0. -1.
         -2    1    6    6    0  503 -0.42244097245E+01 -0.19373513180E+03  0.86064433773E+03  0.88219035531E+03  0.00000000000E+00 0.  1.
<mgrwt>
<rscale>  0 0.13089985E+04</rscale>
<asrwt>0</asrwt>
<pdfrwt beam="1">  1        1 0.21226168E+00 0.13089985E+04</pdfrwt>
<pdfrwt beam="2">  1       -2 0.47766123E-01 0.13089985E+04</pdfrwt>
<totfact> 0.28401169E+01</totfact>
</mgrwt>
</event>
<event>
12    5  0.5197392E-008  0.1737029E+04  0.7818608E-02  0.8740523E-01
         -2   -1    0    0    0  501 -0.00000000000E+00  0.00000000000E+00  0.32556400569E+03  0.32556400569E+03  0.00000000000E+00 0.  1.
          1   -1    0    0  501    0  0.00000000000E+00 -0.00000000000E+00 -0.23169562702E+04  0.23169562702E+04  0.00000000000E+00 0. -1.
        -24    2    1    2    0    0  0.20017632390E+03  0.49450911959E+03 -0.22052470936E+03  0.58321266225E+03  0.83042350409E+02 0.  0.
        254    2    1    2    0    0 -0.20017632390E+03 -0.49450911959E+03 -0.17708675552E+04  0.20593076136E+04  0.90563023341E+03 0.  0.
         23    2    4    4    0    0 -0.24396134950E+03  0.21274943103E+03 -0.51268024410E+03  0.61302037624E+03  0.90407347815E+02 0.  0.
         23    2    4    4    0    0  0.43785025600E+02 -0.70725855063E+03 -0.12581873111E+04  0.14462872374E+04  0.81115210976E+02 0.  0.
          3    1    3    3  502    0  0.18757375987E+02  0.68864574360E+02 -0.60693588309E+02  0.93690343246E+02  0.00000000000E+00 0. -1.
         -4    1    3    3    0  502  0.18141894791E+03  0.42564454523E+03 -0.15983112105E+03  0.48952231900E+03  0.00000000000E+00 0.  1.
         13    1    5    5    0    0 -0.15509336207E+02  0.75115060572E+01 -0.83629677770E+02  0.85386680676E+02  0.00000000000E+00 0. -1.
        -13    1    5    5    0    0 -0.22845201329E+03  0.20523792498E+03 -0.42905056633E+03  0.52763369556E+03  0.00000000000E+00 0.  1.
          3    1    6    6  503    0 -0.12948926575E+01 -0.14420843621E+02 -0.57643272347E+02  0.59433865132E+02  0.00000000000E+00 0. -1.
         -3    1    6    6    0  503  0.45079918258E+02 -0.69283770701E+03 -0.12005440387E+04  0.13868533723E+04  0.00000000000E+00 0.  1.
<mgrwt>
<rscale>  0 0.17370291E+04</rscale>
<asrwt>0</asrwt>
<pdfrwt beam="1">  1        1 0.35645482E+00 0.17370291E+04</pdfrwt>
<pdfrwt beam="2">  1       -2 0.50086768E-01 0.17370291E+04</pdfrwt>
<totfact> 0.56968849E+00</totfact>
</mgrwt>
</event>
<event>
12    5  0.5197392E-008  0.1473008E+04  0.7818608E-02  0.8902603E-01
         -2   -1    0    0    0  501 -0.00000000000E+00  0.00000000000E+00  0.10152315802E+04  0.10152315802E+04  0.00000000000E+00 0.  1.
          1   -1    0    0  501    0  0.00000000000E+00 -0.00000000000E+00 -0.53430004788E+03  0.53430004788E+03  0.00000000000E+00 0. -1.
        -24    2    1    2    0    0  0.14649482584E+03  0.21086981346E+03 -0.24675689452E+03  0.36516158114E+03  0.80791107954E+02 0.  0.
        254    2    1    2    0    0 -0.14649482584E+03 -0.21086981346E+03  0.72768842684E+03  0.11843700469E+04  0.89848491880E+03 0.  0.
         23    2    4    4    0    0 -0.23366533261E+03 -0.33913574881E+03 -0.12874853309E+02  0.42220415555E+03  0.92076290793E+02 0.  0.
         23    2    4    4    0    0  0.87170506775E+02  0.12826593536E+03  0.74056328015E+03  0.76216589139E+03  0.91717101304E+02 0.  0.
          3    1    3    3  502    0  0.52325776298E+02  0.14111555245E+03 -0.11960115500E+03  0.19223949200E+03  0.00000000000E+00 0. -1.
         -4    1    3    3    0  502  0.94169049539E+02  0.69754261011E+02 -0.12715573951E+03  0.17292208914E+03  0.00000000000E+00 0.  1.
         13    1    5    5    0    0 -0.13119500580E+03 -0.18278510610E+03  0.38662910084E+02  0.22829223634E+03  0.00000000000E+00 0. -1.
        -13    1    5    5    0    0 -0.10247032682E+03 -0.15635064272E+03 -0.51537763392E+02  0.19391191921E+03  0.00000000000E+00 0.  1.
          1    1    6    6  503    0  0.46171997828E+02  0.65467602384E+02  0.18550947660E+03  0.20206837025E+03  0.00000000000E+00 0. -1.
         -1    1    6    6    0  503  0.40998508948E+02  0.62798332972E+02  0.55505380355E+03  0.56009752114E+03  0.00000000000E+00 0.  1.
<mgrwt>
<rscale>  0 0.14730082E+04</rscale>
<asrwt>0</asrwt>
<pdfrwt beam="1">  1        1 0.82200007E-01 0.14730082E+04</pdfrwt>
<pdfrwt beam="2">  1       -2 0.15618947E+00 0.14730082E+04</pdfrwt>
<totfact> 0.92073150E+00</totfact>
</mgrwt>
</event>
<event>
12    5  0.5197392E-008  0.2536104E+04  0.7818608E-02  0.8390235E-01
          1   -1    0    0  501    0  0.00000000000E+00  0.00000000000E+00  0.25447899904E+04  0.25447899904E+04  0.00000000000E+00 0. -1.
         -2   -1    0    0    0  501 -0.00000000000E+00 -0.00000000000E+00 -0.63186179041E+03  0.63186179041E+03  0.00000000000E+00 0.  1.
        -24    2    1    2    0    0 -0.64510970774E+03  0.36321037683E+03  0.18690952540E+04  0.20119708433E+04  0.80132970707E+02 0.  0.
        254    2    1    2    0    0  0.64510970774E+03 -0.36321037683E+03  0.43832945973E+02  0.11646809375E+04  0.89803788678E+03 0.  0.
         23    2    4    4    0    0  0.15137042314E+03 -0.72670809442E+02  0.42809767817E+03  0.46901563414E+03  0.92271292726E+02 0.  0.
         23    2    4    4    0    0  0.49373928460E+03 -0.29053956739E+03 -0.38426473220E+03  0.69566530333E+03  0.89995046913E+02 0.  0.
          1    1    3    3  502    0 -0.61283276570E+03  0.34902471673E+03  0.17244670897E+04  0.18631073493E+04  0.00000000000E+00 0. -1.
         -2    1    3    3    0  502 -0.32276942033E+02  0.14185660104E+02  0.14462816429E+03  0.14886349400E+03  0.00000000000E+00 0.  1.
         13    1    5    5    0    0  0.91127541274E+02 -0.65460000343E+02  0.16861914571E+03  0.20253803772E+03  0.00000000000E+00 0. -1.
        -13    1    5    5    0    0  0.60242881865E+02 -0.72108090998E+01  0.25947853246E+03  0.26647759641E+03  0.00000000000E+00 0.  1.
          3    1    6    6  503    0  0.15226914534E+03 -0.10807197631E+03 -0.17331445275E+03  0.25476134757E+03  0.00000000000E+00 0. -1.
         -3    1    6    6    0  503  0.34147013926E+03 -0.18246759108E+03 -0.21095027945E+03  0.44090395576E+03  0.00000000000E+00 0.  1.
<mgrwt>
<rscale>  0 0.25361038E+04</rscale>
<asrwt>0</asrwt>
<pdfrwt beam="1">  1        1 0.39150615E+00 0.25361038E+04</pdfrwt>
<pdfrwt beam="2">  1       -2 0.97209507E-01 0.25361038E+04</pdfrwt>
<totfact> 0.86684408E-01</totfact>
</mgrwt>
</event>
<event>
12    5  0.5197392E-008  0.1803371E+04  0.7818608E-02  0.8704509E-01
         -2   -1    0    0    0  501 -0.00000000000E+00  0.00000000000E+00  0.42098495136E+03  0.42098495136E+03  0.00000000000E+00 0.  1.
          1   -1    0    0  501    0  0.00000000000E+00 -0.00000000000E+00 -0.19312736596E+04  0.19312736596E+04  0.00000000000E+00 0. -1.
        -24    2    1    2    0    0  0.27032705080E+03  0.49988192483E+02 -0.14000370038E+04  0.14289608753E+04  0.79057177624E+02 0.  0.
        254    2    1    2    0    0 -0.27032705080E+03 -0.49988192483E+02 -0.11025170440E+03  0.92329773562E+03  0.87449856289E+03 0.  0.
         23    2    4    4    0    0 -0.40967930983E+03 -0.33770182891E+03  0.73593590093E+02  0.54432573761E+03  0.94841077424E+02 0.  0.
         23    2    4    4    0    0  0.13935225903E+03  0.28771363643E+03 -0.18384529449E+03  0.37897199801E+03  0.87306897131E+02 0.  0.
          1    1    3    3  502    0  0.18844852354E+03  0.29308061448E+02 -0.11314422934E+04  0.11474029248E+04  0.00000000000E+00 0. -1.
         -2    1    3    3    0  502  0.81878527262E+02  0.20680131035E+02 -0.26859471041E+03  0.28155795053E+03  0.00000000000E+00 0.  1.
         13    1    5    5    0    0 -0.28298282006E+03 -0.28485532676E+03  0.44319821021E+02  0.40396296881E+03  0.00000000000E+00 0.  1.
        -13    1    5    5    0    0 -0.12669648976E+03 -0.52846502150E+02  0.29273769071E+02  0.14036276879E+03  0.00000000000E+00 0. -1.
          3    1    6    6  503    0  0.83149483377E+02  0.12968076237E+03 -0.13351033021E+03  0.20385275320E+03  0.00000000000E+00 0. -1.
         -3    1    6    6    0  503  0.56202775652E+02  0.15803287406E+03 -0.50334964284E+02  0.17511924481E+03  0.00000000000E+00 0.  1.
<mgrwt>
<rscale>  0 0.18033715E+04</rscale>
<asrwt>0</asrwt>
<pdfrwt beam="1">  1        1 0.29711902E+00 0.18033715E+04</pdfrwt>
<pdfrwt beam="2">  1       -2 0.64766916E-01 0.18033715E+04</pdfrwt>
<totfact> 0.60464506E+00</totfact>
</mgrwt>
</event>
<event>
12    5  0.5197392E-008  0.1516975E+04  0.7818608E-02  0.8873243E-01
          1   -1    0    0  501    0  0.00000000000E+00  0.00000000000E+00  0.11759192351E+04  0.11759192351E+04  0.00000000000E+00 0. -1.
         -2   -1    0    0    0  501 -0.00000000000E+00 -0.00000000000E+00 -0.48923698258E+03  0.48923698258E+03  0.00000000000E+00 0.  1.
        -24    2    1    2    0    0 -0.18927502538E+03  0.54986681592E+02  0.71667268018E+03  0.74758669542E+03  0.80109713885E+02 0.  0.
        254    2    1    2    0    0  0.18927502538E+03 -0.54986681592E+02 -0.29990427672E+02  0.91756952225E+03  0.89564827473E+03 0.  0.
         23    2    4    4    0    0  0.51899478063E+03 -0.16650148049E+03 -0.64031790934E+02  0.55612738242E+03  0.89995943790E+02 0.  0.
         23    2    4    4    0    0 -0.32971975525E+03  0.11151479890E+03  0.34041363262E+02  0.36144213983E+03  0.91273975795E+02 0.  0.
          3    1    3    3  502    0 -0.15896057641E+03  0.31606031295E+02  0.65695376046E+03  0.67665031548E+03  0.00000000000E+00 0. -1.
         -4    1    3    3    0  502 -0.30314448970E+02  0.23380650297E+02  0.59718919726E+02  0.70936379932E+02  0.00000000000E+00 0.  1.
         13    1    5    5    0    0  0.38790889719E+03 -0.16179943153E+03 -0.62693257694E+02  0.42495036548E+03  0.00000000000E+00 0. -1.
        -13    1    5    5    0    0  0.13108588344E+03 -0.47020489662E+01 -0.13385332400E+01  0.13117701694E+03  0.00000000000E+00 0.  1.
          3    1    6    6  503    0 -0.31210268827E+03  0.89251872704E+02  0.50664232497E+02  0.32854352720E+03  0.00000000000E+00 0. -1.
         -3    1    6    6    0  503 -0.17617066975E+02  0.22262926195E+02 -0.16622869235E+02  0.32898612633E+02  0.00000000000E+00 0.  1.
<mgrwt>
<rscale>  0 0.15169749E+04</rscale>
<asrwt>0</asrwt>
<pdfrwt beam="1">  1        1 0.18091065E+00 0.15169749E+04</pdfrwt>
<pdfrwt beam="2">  1       -2 0.75267228E-01 0.15169749E+04</pdfrwt>
<totfact> 0.14938938E+01</totfact>
</mgrwt>
</event>
<event>
12    5  0.5197392E-008  0.1807320E+04  0.7818608E-02  0.8702417E-01
          1   -1    0    0  501    0  0.00000000000E+00  0.00000000000E+00  0.18226349987E+04  0.18226349987E+04  0.00000000000E+00 0. -1.
         -2   -1    0    0    0  501 -0.00000000000E+00 -0.00000000000E+00 -0.44803329666E+03  0.44803329666E+03  0.00000000000E+00 0.  1.
        -24    2    1    2    0    0 -0.16978032188E+03  0.62547213243E+03  0.72121761202E+03  0.97291124207E+03  0.79753964884E+02 0.  0.
        254    2    1    2    0    0  0.16978032188E+03 -0.62547213243E+03  0.65338409006E+03  0.12977570533E+04  0.91499828095E+03 0.  0.
         23    2    4    4    0    0  0.21277264645E+03  0.10557008646E+03 -0.69767926590E+02  0.26456212783E+03  0.93318345834E+02 0.  0.
         23    2    4    4    0    0 -0.42992324573E+02 -0.73104221890E+03  0.72315201665E+03  0.10331949255E+04  0.90949706328E+02 0.  0.
          3    1    3    3  502    0 -0.16662650575E+03  0.62505555833E+03  0.72222825263E+03  0.96957335582E+03  0.00000000000E+00 0. -1.
         -4    1    3    3    0  502 -0.31538161341E+01  0.41657410292E+00 -0.10106406112E+01  0.33378862527E+01  0.00000000000E+00 0.  1.
         13    1    5    5    0    0  0.19271243429E+03  0.11949670707E+03 -0.76361948470E+02  0.23926699000E+03  0.00000000000E+00 0.  1.
        -13    1    5    5    0    0  0.20060212161E+02 -0.13926620604E+02  0.65940218800E+01  0.25295137832E+02  0.00000000000E+00 0. -1.
          4    1    6    6  503    0  0.86063481784E+01 -0.73100419215E+02  0.41907642521E+02  0.84699415701E+02  0.00000000000E+00 0. -1.
         -4    1    6    6    0  503 -0.51598672752E+02 -0.65794179968E+03  0.68124437413E+03  0.94849550978E+03  0.00000000000E+00 0.  1.
<mgrwt>
<rscale>  0 0.18073197E+04</rscale>
<asrwt>0</asrwt>
<pdfrwt beam="1">  1        1 0.28040538E+00 0.18073197E+04</pdfrwt>
<pdfrwt beam="2">  1       -2 0.68928200E-01 0.18073197E+04</pdfrwt>
<totfact> 0.62589837E+00</totfact>
</mgrwt>
</event>
<event>
12    5  0.5197392E-008  0.3645833E+04  0.7818608E-02  0.8080073E-01
         -2   -1    0    0    0  501 -0.00000000000E+00  0.00000000000E+00  0.93226356307E+03  0.93226356307E+03  0.00000000000E+00 0.  1.
          1   -1    0    0  501    0  0.00000000000E+00 -0.00000000000E+00 -0.35644681750E+04  0.35644681750E+04  0.00000000000E+00 0. -1.
        -24    2    1    2    0    0 -0.90893586824E+03  0.12542490655E+04 -0.21362145639E+04  0.26399772440E+04  0.82231715744E+02 0.  0.
        254    2    1    2    0    0  0.90893586824E+03 -0.12542490655E+04 -0.49599004806E+03  0.18567544941E+04  0.89567069428E+03 0.  0.
         23    2    4    4    0    0  0.29627386523E+03 -0.30229681419E+03  0.24818519027E+03  0.49892835658E+03  0.90399387388E+02 0.  0.
         23    2    4    4    0    0  0.61266200301E+03 -0.95195225131E+03 -0.74417523833E+03  0.13578261375E+04  0.91253578575E+02 0.  0.
          1    1    3    3  502    0 -0.26029673612E+03  0.40436880469E+03 -0.61692959695E+03  0.78222161095E+03  0.00000000000E+00 0. -1.
         -2    1    3    3    0  502 -0.64863913212E+03  0.84988026081E+03 -0.15192849669E+04  0.18577556331E+04  0.00000000000E+00 0.  1.
         13    1    5    5    0    0  0.54150823856E+02 -0.16773742675E+02  0.48689887271E+02  0.74728677829E+02  0.00000000000E+00 0.  1.
        -13    1    5    5    0    0  0.24212304138E+03 -0.28552307152E+03  0.19949530300E+03  0.42419967875E+03  0.00000000000E+00 0. -1.
          4    1    6    6  503    0  0.51318251540E+03 -0.80584205354E+03 -0.66569761784E+03  0.11644273390E+04  0.00000000000E+00 0. -1.
         -4    1    6    6    0  503  0.99479487609E+02 -0.14611019776E+03 -0.78477620486E+02  0.19339879850E+03  0.00000000000E+00 0.  1.
<mgrwt>
<rscale>  0 0.36458326E+04</rscale>
<asrwt>0</asrwt>
<pdfrwt beam="1">  1        1 0.54837973E+00 0.36458326E+04</pdfrwt>
<pdfrwt beam="2">  1       -2 0.14342516E+00 0.36458326E+04</pdfrwt>
<totfact> 0.53095165E-02</totfact>
</mgrwt>
</event>
<event>
12    5  0.5197392E-008  0.1565656E+04  0.7818608E-02  0.8841929E-01
          1   -1    0    0  501    0  0.00000000000E+00  0.00000000000E+00  0.36321427922E+04  0.36321427922E+04  0.00000000000E+00 0. -1.
         -4   -1    0    0    0  501 -0.00000000000E+00 -0.00000000000E+00 -0.16872117216E+03  0.16872117216E+03  0.00000000000E+00 0.  1.
        -24    2    1    2    0    0 -0.42827039527E+02 -0.41695433464E+03  0.18947947709E+04  0.19422498086E+04  0.80012639352E+02 0.  0.
        254    2    1    2    0    0  0.42827039527E+02  0.41695433464E+03  0.15686268491E+04  0.18586141558E+04  0.90452822836E+03 0.  0.
         23    2    4    4    0    0  0.92881860203E+02  0.14157963382E+03  0.15517311717E+04  0.15637600721E+04  0.93830172340E+02 0.  0.
         23    2    4    4    0    0 -0.50054820676E+02  0.27537470082E+03  0.16895677469E+02  0.29485408374E+03  0.91196249130E+02 0.  0.
          1    1    3    3  502    0 -0.32118012383E+02 -0.35987855717E+03  0.17352189674E+04  0.17724358965E+04  0.00000000000E+00 0. -1.
         -2    1    3    3    0  502 -0.10709027144E+02 -0.57075777471E+02  0.15957580355E+03  0.16981391202E+03  0.00000000000E+00 0.  1.
         13    1    5    5    0    0  0.99720397785E+02  0.14761412521E+03  0.15277897314E+04  0.15381402898E+04  0.00000000000E+00 0. -1.
        -13    1    5    5    0    0 -0.68385375828E+01 -0.60344913942E+01  0.23941440273E+02  0.25619782298E+02  0.00000000000E+00 0.  1.
          3    1    6    6  503    0 -0.48125729915E+02  0.19596619383E+03 -0.27824781534E+02  0.20369843758E+03  0.00000000000E+00 0. -1.
         -3    1    6    6    0  503 -0.19290907604E+01  0.79408506994E+02  0.44720459003E+02  0.91155646164E+02  0.00000000000E+00 0.  1.
<mgrwt>
<rscale>  0 0.15656556E+04</rscale>
<asrwt>0</asrwt>
<pdfrwt beam="1">  1        1 0.55879114E+00 0.15656556E+04</pdfrwt>
<pdfrwt beam="2">  1       -4 0.25957106E-01 0.15656556E+04</pdfrwt>
<totfact> 0.13609077E+00</totfact>
</mgrwt>
</event>
<event>
12    5  0.5197392E-008  0.1555635E+04  0.7818608E-02  0.8848276E-01
          1   -1    0    0  501    0  0.00000000000E+00  0.00000000000E+00  0.11602370733E+04  0.11602370733E+04  0.00000000000E+00 0. -1.
         -2   -1    0    0    0  501 -0.00000000000E+00 -0.00000000000E+00 -0.52144544993E+03  0.52144544993E+03  0.00000000000E+00 0.  1.
        -24    2    1    2    0    0 -0.30435765312E+03  0.94140361225E+02  0.63909496998E+03  0.72026048211E+03  0.94004217031E+02 0.  0.
        254    2    1    2    0    0  0.30435765312E+03 -0.94140361225E+02 -0.30334664262E+00  0.96142204109E+03  0.90710322480E+03 0.  0.
         23    2    4    4    0    0  0.20825472629E+03  0.36186858394E+03 -0.16775094305E+03  0.45847996779E+03  0.88003402848E+02 0.  0.
         23    2    4    4    0    0  0.96102926832E+02 -0.45600894516E+03  0.16744759641E+03  0.50294207329E+03  0.87932365691E+02 0.  0.
          1    1    3    3  502    0 -0.27267165226E+03  0.53929419093E+02  0.57109045820E+03  0.63513976701E+03  0.00000000000E+00 0. -1.
         -2    1    3    3    0  502 -0.31686000859E+02  0.40210942132E+02  0.68004511772E+02  0.85120715099E+02  0.00000000000E+00 0.  1.
         13    1    5    5    0    0  0.24735273305E+02  0.56272030370E+01 -0.44686868359E+01  0.25757878824E+02  0.00000000000E+00 0. -1.
        -13    1    5    5    0    0  0.18351945299E+03  0.35624138090E+03 -0.16328225621E+03  0.43272208897E+03  0.00000000000E+00 0.  1.
          1    1    6    6  503    0  0.36089913322E+01 -0.14376846180E+02 -0.10224971665E+02  0.18007458734E+02  0.00000000000E+00 0. -1.
         -1    1    6    6    0  503  0.92493935500E+02 -0.44163209898E+03  0.17767256807E+03  0.48493461456E+03  0.00000000000E+00 0.  1.
<mgrwt>
<rscale>  0 0.15556354E+04</rscale>
<asrwt>0</asrwt>
<pdfrwt beam="1">  1        1 0.17849801E+00 0.15556354E+04</pdfrwt>
<pdfrwt beam="2">  1       -2 0.80222377E-01 0.15556354E+04</pdfrwt>
<totfact> 0.13261721E+01</totfact>
</mgrwt>
</event>
<event>
12    5  0.5197392E-008  0.2086881E+04  0.7818608E-02  0.8567045E-01
         -2   -1    0    0    0  501 -0.00000000000E+00  0.00000000000E+00  0.87276825063E+03  0.87276825063E+03  0.00000000000E+00 0.  1.
          1   -1    0    0  501    0  0.00000000000E+00 -0.00000000000E+00 -0.12474880039E+04  0.12474880039E+04  0.00000000000E+00 0. -1.
        -24    2    1    2    0    0 -0.21594739981E+03  0.36795651160E+03 -0.90797567039E+03  0.10063041138E+04  0.78758348729E+02 0.  0.
        254    2    1    2    0    0  0.21594739981E+03 -0.36795651160E+03  0.53325591716E+03  0.11139521407E+04  0.88005808028E+03 0.  0.
         23    2    4    4    0    0  0.51499427228E+03 -0.31870703235E+03  0.17695338298E+03  0.63765867541E+03  0.92210702350E+02 0.  0.
         23    2    4    4    0    0 -0.29904687247E+03 -0.49249479248E+02  0.35630253418E+03  0.47629346529E+03  0.89718593805E+02 0.  0.
          1    1    3    3  502    0 -0.17000285446E+03  0.31823961231E+03 -0.69879911903E+03  0.78644620295E+03  0.00000000000E+00 0. -1.
         -4    1    3    3    0  502 -0.45944545351E+02  0.49716899291E+02 -0.20917655136E+03  0.21985791084E+03  0.00000000000E+00 0.  1.
         13    1    5    5    0    0  0.23308376257E+03 -0.19195778978E+03  0.64659373648E+02  0.30879875005E+03  0.00000000000E+00 0. -1.
        -13    1    5    5    0    0  0.28191050971E+03 -0.12674924257E+03  0.11229400933E+03  0.32885992536E+03  0.00000000000E+00 0.  1.
          2    1    6    6  503    0 -0.23722191352E+02 -0.27637755930E+02  0.21537345684E+02  0.42313652342E+02  0.00000000000E+00 0. -1.
         -2    1    6    6    0  503 -0.27532468112E+03 -0.21611723318E+02  0.33476518850E+03  0.43397981295E+03  0.00000000000E+00 0.  1.
<mgrwt>
<rscale>  0 0.20868809E+04</rscale>
<asrwt>0</asrwt>
<pdfrwt beam="1">  1        1 0.19192123E+00 0.20868809E+04</pdfrwt>
<pdfrwt beam="2">  1       -2 0.13427204E+00 0.20868809E+04</pdfrwt>
<totfact> 0.31885989E+00</totfact>
</mgrwt>
</event>
<event>
12    5  0.5197392E-008  0.1240140E+04  0.7818608E-02  0.9078430E-01
         -2   -1    0    0    0  501 -0.00000000000E+00  0.00000000000E+00  0.80005750502E+03  0.80005750502E+03  0.00000000000E+00 0.  1.
          1   -1    0    0  501    0  0.00000000000E+00 -0.00000000000E+00 -0.48057396876E+03  0.48057396876E+03  0.00000000000E+00 0. -1.
        -24    2    1    2    0    0 -0.20800521457E+03 -0.22027324561E+03  0.25626712536E+02  0.32061311710E+03  0.10173283859E+03 0.  0.
        254    2    1    2    0    0  0.20800521457E+03  0.22027324561E+03  0.29385682372E+03  0.96001835668E+03  0.86226268637E+03 0.  0.
         23    2    4    4    0    0 -0.21189423675E+03  0.20280634225E+03 -0.15029833596E+03  0.34203552624E+03  0.91482956855E+02 0.  0.
         23    2    4    4    0    0  0.41989945132E+03  0.17466903356E+02  0.44415515967E+03  0.61798283044E+03  0.89489278237E+02 0.  0.
          3    1    3    3  502    0 -0.20774547286E+03 -0.19817864972E+03  0.44531140225E+00  0.28711175002E+03  0.00000000000E+00 0. -1.
         -4    1    3    3    0  502 -0.25974170324E+00 -0.22094595890E+02  0.25181401134E+02  0.33501367082E+02  0.00000000000E+00 0.  1.
         13    1    5    5    0    0 -0.41918027021E+02  0.34692571505E+02  0.84430706821E+01  0.55063426605E+02  0.00000000000E+00 0.  1.
        -13    1    5    5    0    0 -0.16997620973E+03  0.16811377075E+03 -0.15874140664E+03  0.28697209964E+03  0.00000000000E+00 0. -1.
          2    1    6    6  503    0  0.26667638544E+03  0.53800531717E+02  0.28948659152E+03  0.39725719431E+03  0.00000000000E+00 0. -1.
         -2    1    6    6    0  503  0.15322306588E+03 -0.36333628362E+02  0.15466856816E+03  0.22072563612E+03  0.00000000000E+00 0.  1.
<mgrwt>
<rscale>  0 0.12401400E+04</rscale>
<asrwt>0</asrwt>
<pdfrwt beam="1">  1        1 0.73934457E-01 0.12401400E+04</pdfrwt>
<pdfrwt beam="2">  1       -2 0.12308577E+00 0.12401400E+04</pdfrwt>
<totfact> 0.20122466E+01</totfact>
</mgrwt>
</event>
<event>
12    5  0.5197392E-008  0.1653893E+04  0.7818608E-02  0.8788107E-01
          1   -1    0    0  501    0  0.00000000000E+00  0.00000000000E+00  0.22267882876E+04  0.22267882876E+04  0.00000000000E+00 0. -1.
         -2   -1    0    0    0  501 -0.00000000000E+00 -0.00000000000E+00 -0.30709713997E+03  0.30709713997E+03  0.00000000000E+00 0.  1.
        -24    2    1    2    0    0  0.50894039695E+03 -0.11843828888E+03  0.10942219187E+04  0.12153494490E+04  0.81882353420E+02 0.  0.
        254    2    1    2    0    0 -0.50894039695E+03  0.11843828888E+03  0.82546922892E+03  0.13185359786E+04  0.88548840933E+03 0.  0.
         23    2    4    4    0    0  0.80628232596E+02 -0.49218130398E+02  0.66478777646E+03  0.67769451186E+03  0.91671846384E+02 0.  0.
         23    2    4    4    0    0 -0.58956862954E+03  0.16765641928E+03  0.16068145246E+03  0.64084146674E+03  0.95704819462E+02 0.  0.
          3    1    3    3  502    0  0.34338788783E+03 -0.54537072919E+02  0.65339648564E+03  0.74014627019E+03  0.00000000000E+00 0. -1.
         -4    1    3    3    0  502  0.16555250911E+03 -0.63901215959E+02  0.44082543311E+03  0.47520317881E+03  0.00000000000E+00 0.  1.
         13    1    5    5    0    0  0.23647053158E+02  0.27002855308E+02  0.21157943671E+03  0.21460241228E+03  0.00000000000E+00 0. -1.
        -13    1    5    5    0    0  0.56981179439E+02 -0.76220985705E+02  0.45320833975E+03  0.46309209957E+03  0.00000000000E+00 0.  1.
          4    1    6    6  503    0 -0.40606335575E+03  0.11325432956E+03  0.63941343928E+02  0.42638302911E+03  0.00000000000E+00 0.  1.
         -4    1    6    6    0  503 -0.18350527379E+03  0.54402089716E+02  0.96740108527E+02  0.21445843763E+03  0.00000000000E+00 0. -1.
<mgrwt>
<rscale>  0 0.16538928E+04</rscale>
<asrwt>0</asrwt>
<pdfrwt beam="1">  1        1 0.34258280E+00 0.16538928E+04</pdfrwt>
<pdfrwt beam="2">  1       -2 0.47245715E-01 0.16538928E+04</pdfrwt>
<totfact> 0.74453793E+00</totfact>
</mgrwt>
</event>
<event>
12    5  0.5197392E-008  0.1316034E+04  0.7818608E-02  0.9016946E-01
         -2   -1    0    0    0  501 -0.00000000000E+00  0.00000000000E+00  0.39168217237E+03  0.39168217237E+03  0.00000000000E+00 0.  1.
          1   -1    0    0  501    0  0.00000000000E+00 -0.00000000000E+00 -0.11054530898E+04  0.11054530898E+04  0.00000000000E+00 0. -1.
        -24    2    1    2    0    0 -0.75697770045E+02 -0.48090184949E+02  0.18628342385E+03  0.22198872973E+03  0.80837267713E+02 0.  0.
        254    2    1    2    0    0  0.75697770045E+02  0.48090184949E+02 -0.90005434126E+03  0.12751465324E+04  0.89880923652E+03 0.  0.
         23    2    4    4    0    0 -0.67490524031E+02 -0.17689378319E+03  0.10262181734E+03  0.23349501414E+03  0.90234709887E+02 0.  0.
         23    2    4    4    0    0  0.14318829408E+03  0.22498396814E+03 -0.10026761586E+04  0.10416515183E+04  0.92508016055E+02 0.  0.
          3    1    3    3  502    0 -0.95917336957E+01  0.45238489945E+01 -0.58413841480E+01  0.12107366922E+02  0.00000000000E+00 0. -1.
         -4    1    3    3    0  502 -0.66106036350E+02 -0.52614033943E+02  0.19212480799E+03  0.20988136281E+03  0.00000000000E+00 0.  1.
         13    1    5    5    0    0 -0.76796830625E+02 -0.18237312733E+03  0.10213017006E+03  0.22268426617E+03  0.00000000000E+00 0. -1.
        -13    1    5    5    0    0  0.93063065935E+01  0.54793441336E+01  0.49164727706E+00  0.10810747966E+02  0.00000000000E+00 0.  1.
          3    1    6    6  503    0  0.90968041304E+02  0.20674548095E+03 -0.76672359773E+03  0.79930216674E+03  0.00000000000E+00 0. -1.
         -3    1    6    6    0  503  0.52220252772E+02  0.18238487196E+02 -0.23595256086E+03  0.24234935154E+03  0.00000000000E+00 0.  1.
<mgrwt>
<rscale>  0 0.13160338E+04</rscale>
<asrwt>0</asrwt>
<pdfrwt beam="1">  1        1 0.17006971E+00 0.13160338E+04</pdfrwt>
<pdfrwt beam="2">  1       -2 0.60258796E-01 0.13160338E+04</pdfrwt>
<totfact> 0.27737341E+01</totfact>
</mgrwt>
</event>
<event>
12    5  0.5197392E-008  0.1687566E+04  0.7818608E-02  0.8768488E-01
         -2   -1    0    0    0  501 -0.00000000000E+00  0.00000000000E+00  0.23957621886E+04  0.23957621886E+04  0.00000000000E+00 0.  1.
          1   -1    0    0  501    0  0.00000000000E+00 -0.00000000000E+00 -0.29717896932E+03  0.29717896932E+03  0.00000000000E+00 0. -1.
        -24    2    1    2    0    0  0.21191106006E+03 -0.42673361053E+03  0.13060611277E+04  0.13926297238E+04  0.81326543442E+02 0.  0.
        254    2    1    2    0    0 -0.21191106006E+03  0.42673361053E+03  0.79252209153E+03  0.13003114340E+04  0.91417213271E+03 0.  0.
         23    2    4    4    0    0 -0.42933238397E+03  0.29611486548E+03  0.76081861495E+02  0.53498636198E+03  0.91715039003E+02 0.  0.
         23    2    4    4    0    0  0.21742132391E+03  0.13061874505E+03  0.71644023004E+03  0.76532507207E+03  0.90014299242E+02 0.  0.
          1    1    3    3  502    0  0.85995429209E+02 -0.12066815719E+03  0.32329907275E+03  0.35563788950E+03  0.00000000000E+00 0. -1.
         -2    1    3    3    0  502  0.12591563085E+03 -0.30606545334E+03  0.98276205496E+03  0.10369918343E+04  0.00000000000E+00 0.  1.
         13    1    5    5    0    0 -0.10582404606E+03  0.87305222513E+02 -0.18673095048E+02  0.13845437906E+03  0.00000000000E+00 0. -1.
        -13    1    5    5    0    0 -0.32350833790E+03  0.20880964297E+03  0.94754956543E+02  0.39653198292E+03  0.00000000000E+00 0.  1.
          2    1    6    6  503    0  0.78794661720E+02  0.98372721710E+02  0.30768088707E+03  0.33249559299E+03  0.00000000000E+00 0. -1.
         -2    1    6    6    0  503  0.13862666219E+03  0.32246023343E+02  0.40875934297E+03  0.43282947907E+03  0.00000000000E+00 0.  1.
<mgrwt>
<rscale>  0 0.16875665E+04</rscale>
<asrwt>0</asrwt>
<pdfrwt beam="1">  1        1 0.45719843E-01 0.16875665E+04</pdfrwt>
<pdfrwt beam="2">  1       -2 0.36857879E+00 0.16875665E+04</pdfrwt>
<totfact> 0.88069251E-01</totfact>
</mgrwt>
</event>
<event>
12    5  0.5197392E-008  0.1833874E+04  0.7818608E-02  0.8688490E-01
          1   -1    0    0  501    0  0.00000000000E+00  0.00000000000E+00  0.13538769461E+04  0.13538769461E+04  0.00000000000E+00 0. -1.
         -2   -1    0    0    0  501 -0.00000000000E+00 -0.00000000000E+00 -0.62101163997E+03  0.62101163997E+03  0.00000000000E+00 0.  1.
        -24    2    1    2    0    0 -0.35634080765E+02 -0.42681811610E+03 -0.30785368458E+03  0.53339863553E+03  0.79351882975E+02 0.  0.
        254    2    1    2    0    0  0.35634080765E+02  0.42681811610E+03  0.10407189907E+04  0.14414899506E+04  0.90075177934E+03 0.  0.
         23    2    4    4    0    0 -0.41141275416E+03  0.29988123812E+03  0.45519378938E+03  0.68850508479E+03  0.87456587116E+02 0.  0.
         23    2    4    4    0    0  0.44704683492E+03  0.12693687798E+03  0.58552520136E+03  0.75298486579E+03  0.90457741909E+02 0.  0.
          3    1    3    3  502    0  0.94910505014E+01 -0.20738597382E+03 -0.11230065919E+03  0.23603063409E+03  0.00000000000E+00 0. -1.
         -2    1    3    3    0  502 -0.45125131266E+02 -0.21943214228E+03 -0.19555302539E+03  0.29736800143E+03  0.00000000000E+00 0.  1.
         13    1    5    5    0    0 -0.39060556762E+03  0.25701977312E+03  0.39772279497E+03  0.61385282834E+03  0.00000000000E+00 0.  1.
        -13    1    5    5    0    0 -0.20807186542E+02  0.42861465000E+02  0.57470994416E+02  0.74652256449E+02  0.00000000000E+00 0. -1.
          3    1    6    6  503    0 -0.30868508694E+01  0.68778237023E+01  0.10471717794E+02  0.12903099656E+02  0.00000000000E+00 0. -1.
         -3    1    6    6    0  503  0.45013368579E+03  0.12005905427E+03  0.57505348357E+03  0.74008176613E+03  0.00000000000E+00 0.  1.
<mgrwt>
<rscale>  0 0.18338739E+04</rscale>
<asrwt>0</asrwt>
<pdfrwt beam="1">  1        1 0.20828876E+00 0.18338739E+04</pdfrwt>
<pdfrwt beam="2">  1       -2 0.95540252E-01 0.18338739E+04</pdfrwt>
<totfact> 0.62874943E+00</totfact>
</mgrwt>
</event>
<event>
12    5  0.5197392E-008  0.3218778E+04  0.7818608E-02  0.8183875E-01
         -2   -1    0    0    0  501 -0.00000000000E+00  0.00000000000E+00  0.12728581640E+04  0.12728581640E+04  0.00000000000E+00 0.  1.
          1   -1    0    0  501    0  0.00000000000E+00 -0.00000000000E+00 -0.20348958071E+04  0.20348958071E+04  0.00000000000E+00 0. -1.
        -24    2    1    2    0    0  0.87856454297E+03  0.11958564826E+04 -0.29531312867E+03  0.15150444797E+04  0.78749910786E+02 0.  0.
        254    2    1    2    0    0 -0.87856454297E+03 -0.11958564826E+04 -0.46672451451E+03  0.17927094914E+04  0.89108201913E+03 0.  0.
         23    2    4    4    0    0 -0.41512868564E+03 -0.30797183288E+03  0.22598587826E+03  0.57142576521E+03  0.90990727483E+02 0.  0.
         23    2    4    4    0    0 -0.46343585733E+03 -0.88788464972E+03 -0.69271039278E+03  0.12212837261E+04  0.92597550774E+02 0.  0.
          3    1    3    3  502    0  0.16369443486E+03  0.27178877621E+03 -0.48701576053E+02  0.32099353637E+03  0.00000000000E+00 0. -1.
         -4    1    3    3    0  502  0.71487010811E+03  0.92406770639E+03 -0.24661155261E+03  0.11940509434E+04  0.00000000000E+00 0.  1.
         13    1    5    5    0    0 -0.58717023934E+02 -0.87974236601E+02  0.52407254435E+02  0.11804099086E+03  0.00000000000E+00 0.  1.
        -13    1    5    5    0    0 -0.35641166170E+03 -0.21999759627E+03  0.17357862383E+03  0.45338477435E+03  0.00000000000E+00 0. -1.
          4    1    6    6  503    0 -0.22864101895E+03 -0.53246871210E+03 -0.38270906404E+03  0.69445365045E+03  0.00000000000E+00 0. -1.
         -4    1    6    6    0  503 -0.23479483838E+03 -0.35541593762E+03 -0.31000132873E+03  0.52683007570E+03  0.00000000000E+00 0.  1.
<mgrwt>
<rscale>  0 0.32187785E+04</rscale>
<asrwt>0</asrwt>
<pdfrwt beam="1">  1        1 0.31306089E+00 0.32187785E+04</pdfrwt>
<pdfrwt beam="2">  1       -2 0.19582433E+00 0.32187785E+04</pdfrwt>
<totfact> 0.29371959E-01</totfact>
</mgrwt>
</event>
<event>
12    5  0.5197392E-008  0.2056985E+04  0.7818608E-02  0.8580432E-01
          1   -1    0    0  501    0  0.00000000000E+00  0.00000000000E+00  0.16868337325E+04  0.16868337325E+04  0.00000000000E+00 0. -1.
         -2   -1    0    0    0  501 -0.00000000000E+00 -0.00000000000E+00 -0.62709007338E+03  0.62709007338E+03  0.00000000000E+00 0.  1.
        -24    2    1    2    0    0  0.34101875999E+03 -0.73101977982E+03  0.19316029514E+03  0.83346290427E+03  0.81644350898E+02 0.  0.
        254    2    1    2    0    0 -0.34101875999E+03  0.73101977982E+03  0.86658336397E+03  0.14804609016E+04  0.88888359264E+03 0.  0.
         23    2    4    4    0    0 -0.59505684735E+03  0.33164236356E+03  0.66905898630E+03  0.95956405786E+03  0.95099658840E+02 0.  0.
         23    2    4    4    0    0  0.25403808736E+03  0.39937741626E+03  0.19752437767E+03  0.52089684373E+03  0.90994349178E+02 0.  0.
          1    1    3    3  502    0  0.31395303087E+03 -0.71051973491E+03  0.18641774715E+03  0.79884690381E+03  0.00000000000E+00 0. -1.
         -2    1    3    3    0  502  0.27065729127E+02 -0.20500044911E+02  0.67425479894E+01  0.34616000461E+02  0.00000000000E+00 0.  1.
         13    1    5    5    0    0 -0.64872111741E+02  0.42676309214E+02  0.12295609616E+03  0.14542303749E+03  0.00000000000E+00 0. -1.
        -13    1    5    5    0    0 -0.53018473561E+03  0.28896605434E+03  0.54610289014E+03  0.81414102037E+03  0.00000000000E+00 0.  1.
          3    1    6    6  503    0  0.10177711216E+03  0.16907698662E+03  0.34693058688E+02  0.20037269346E+03  0.00000000000E+00 0. -1.
         -3    1    6    6    0  503  0.15226097520E+03  0.23030042964E+03  0.16283131899E+03  0.32052415027E+03  0.00000000000E+00 0.  1.
<mgrwt>
<rscale>  0 0.20569849E+04</rscale>
<asrwt>0</asrwt>
<pdfrwt beam="1">  1        1 0.25951288E+00 0.20569849E+04</pdfrwt>
<pdfrwt beam="2">  1       -2 0.96475397E-01 0.20569849E+04</pdfrwt>
<totfact> 0.35450315E+00</totfact>
</mgrwt>
</event>
<event>
12    5  0.5197392E-008  0.1374441E+04  0.7818608E-02  0.8972530E-01
         -2   -1    0    0    0  501 -0.00000000000E+00  0.00000000000E+00  0.13193472324E+03  0.13193472324E+03  0.00000000000E+00 0.  1.
          1   -1    0    0  501    0  0.00000000000E+00 -0.00000000000E+00 -0.35795863197E+04  0.35795863197E+04  0.00000000000E+00 0. -1.
        -24    2    1    2    0    0  0.35802739148E+03 -0.13139816125E+03 -0.10465820190E+04  0.11168070964E+04  0.80467870939E+02 0.  0.
        254    2    1    2    0    0 -0.35802739148E+03  0.13139816125E+03 -0.24010695775E+04  0.25947139465E+04  0.90661803352E+03 0.  0.
         23    2    4    4    0    0 -0.39453023979E+03 -0.22824214840E+03 -0.61931827777E+03  0.77436910436E+03  0.91344360475E+02 0.  0.
         23    2    4    4    0    0  0.36502848316E+02  0.35964030965E+03 -0.17817512997E+04  0.18203448422E+04  0.91345718120E+02 0.  0.
          1    1    3    3  502    0  0.25257151109E+02 -0.35093827126E+02 -0.10797419689E+03  0.11630961946E+03  0.00000000000E+00 0. -1.
         -2    1    3    3    0  502  0.33277024037E+03 -0.96304334119E+02 -0.93860782208E+03  0.10004974769E+04  0.00000000000E+00 0.  1.
         13    1    5    5    0    0 -0.21033435937E+03 -0.11062041239E+03 -0.39647207372E+03  0.46224184537E+03  0.00000000000E+00 0. -1.
        -13    1    5    5    0    0 -0.18419588042E+03 -0.11762173601E+03 -0.22284620405E+03  0.31212725899E+03  0.00000000000E+00 0.  1.
          3    1    6    6  503    0  0.22476418830E+02  0.19603366621E+02 -0.93813002308E+02  0.98439630171E+02  0.00000000000E+00 0. -1.
         -3    1    6    6    0  503  0.14026429486E+02  0.34003694303E+03 -0.16879382974E+04  0.17219052120E+04  0.00000000000E+00 0.  1.
<mgrwt>
<rscale>  0 0.13744406E+04</rscale>
<asrwt>0</asrwt>
<pdfrwt beam="1">  1        1 0.55070552E+00 0.13744406E+04</pdfrwt>
<pdfrwt beam="2">  1       -2 0.20297652E-01 0.13744406E+04</pdfrwt>
<totfact> 0.39240718E+00</totfact>
</mgrwt>
</event>
<event>
12    5  0.5197392E-008  0.1386018E+04  0.7818608E-02  0.8964002E-01
          1   -1    0    0  501    0  0.00000000000E+00  0.00000000000E+00  0.73765776905E+03  0.73765776905E+03  0.00000000000E+00 0. -1.
         -2   -1    0    0    0  501 -0.00000000000E+00 -0.00000000000E+00 -0.65106245260E+03  0.65106245260E+03  0.00000000000E+00 0.  1.
        -24    2    1    2    0    0 -0.20075438761E+03  0.16410524702E+03 -0.28220539320E+03  0.39133171610E+03  0.79169260614E+02 0.  0.
        254    2    1    2    0    0  0.20075438761E+03 -0.16410524702E+03  0.36880070966E+03  0.99738850556E+03  0.88968365801E+03 0.  0.
         23    2    4    4    0    0  0.33302607924E+03  0.26858016234E+03  0.29504436947E+03  0.52970781073E+03  0.10245736544E+03 0.  0.
         23    2    4    4    0    0 -0.13227169163E+03 -0.43268540937E+03  0.73756340187E+02  0.46768069483E+03  0.92589258085E+02 0.  0.
          3    1    3    3  502    0 -0.90983504375E+01  0.11951266649E+02 -0.56375611361E+02  0.58342285793E+02  0.00000000000E+00 0. -1.
         -4    1    3    3    0  502 -0.19165603717E+03  0.15215398037E+03 -0.22582978184E+03  0.33298943030E+03  0.00000000000E+00 0.  1.
         13    1    5    5    0    0  0.60273471901E+02  0.10505336599E+03  0.67360048050E+02  0.13858743520E+03  0.00000000000E+00 0. -1.
        -13    1    5    5    0    0  0.27275260734E+03  0.16352679635E+03  0.22768432142E+03  0.39112037553E+03  0.00000000000E+00 0.  1.
          3    1    6    6  503    0  0.38166042316E+01  0.73857587299E+00  0.76879422347E+01  0.86148951233E+01  0.00000000000E+00 0. -1.
         -3    1    6    6    0  503 -0.13608829587E+03 -0.43342398524E+03  0.66068397952E+02  0.45906579971E+03  0.00000000000E+00 0.  1.
<mgrwt>
<rscale>  0 0.13860177E+04</rscale>
<asrwt>0</asrwt>
<pdfrwt beam="1">  1        1 0.11348581E+00 0.13860177E+04</pdfrwt>
<pdfrwt beam="2">  1       -2 0.10016345E+00 0.13860177E+04</pdfrwt>
<totfact> 0.17680570E+01</totfact>
</mgrwt>
</event>
<event>
12    5  0.5197392E-008  0.1601220E+04  0.7818608E-02  0.8819799E-01
          1   -1    0    0  501    0  0.00000000000E+00  0.00000000000E+00  0.13777490765E+04  0.13777490765E+04  0.00000000000E+00 0. -1.
         -2   -1    0    0    0  501 -0.00000000000E+00 -0.00000000000E+00 -0.46523465279E+03  0.46523465279E+03  0.00000000000E+00 0.  1.
        -24    2    1    2    0    0  0.15225895353E+03 -0.26918224521E+03 -0.19655107821E+03  0.37480521781E+03  0.78770266467E+02 0.  0.
        254    2    1    2    0    0 -0.15225895353E+03  0.26918224521E+03  0.11090655019E+04  0.14681785115E+04  0.91097748818E+03 0.  0.
         23    2    4    4    0    0  0.33322608363E+03  0.26777927001E+03  0.34503257570E+03  0.55716481948E+03  0.92950511118E+02 0.  0.
         23    2    4    4    0    0 -0.48548503716E+03  0.14029752082E+01  0.76403292622E+03  0.91101369201E+03  0.10247899795E+03 0.  0.
          3    1    3    3  502    0  0.21806202610E+02 -0.61634202457E+02 -0.80148737388E+02  0.10343164646E+03  0.00000000000E+00 0. -1.
         -4    1    3    3    0  502  0.13045275092E+03 -0.20754804276E+03 -0.11640234083E+03  0.27137357135E+03  0.00000000000E+00 0.  1.
         13    1    5    5    0    0  0.22944985444E+03  0.23255457050E+03  0.27572791753E+03  0.42749824382E+03  0.00000000000E+00 0.  1.
        -13    1    5    5    0    0  0.10377622919E+03  0.35224699504E+02  0.69304658178E+02  0.12966657566E+03  0.00000000000E+00 0. -1.
          3    1    6    6  503    0 -0.37706742086E+01  0.65622028584E+01  0.44261158078E+02  0.44903570067E+02  0.00000000000E+00 0. -1.
         -3    1    6    6    0  503 -0.48171436295E+03 -0.51592276502E+01  0.71977176815E+03  0.86611012194E+03  0.00000000000E+00 0.  1.
<mgrwt>
<rscale>  0 0.16012203E+04</rscale>
<asrwt>0</asrwt>
<pdfrwt beam="1">  1        1 0.21196139E+00 0.16012203E+04</pdfrwt>
<pdfrwt beam="2">  1       -2 0.71574563E-01 0.16012203E+04</pdfrwt>
<totfact> 0.11870223E+01</totfact>
</mgrwt>
</event>
<event>
12    5  0.5197392E-008  0.2187992E+04  0.7818608E-02  0.8523443E-01
         -2   -1    0    0    0  501 -0.00000000000E+00  0.00000000000E+00  0.19442418672E+04  0.19442418672E+04  0.00000000000E+00 0.  1.
          1   -1    0    0  501    0  0.00000000000E+00 -0.00000000000E+00 -0.61557507579E+03  0.61557507579E+03  0.00000000000E+00 0. -1.
        -24    2    1    2    0    0  0.64748125230E+03 -0.33517925539E+03  0.11757703367E+04  0.13852408816E+04  0.69852056977E+02 0.  0.
        254    2    1    2    0    0 -0.64748125230E+03  0.33517925539E+03  0.15289645471E+03  0.11745760615E+04  0.90811590284E+03 0.  0.
         23    2    4    4    0    0  0.15314072137E+03  0.26437528217E+03  0.17742687720E+03  0.36540251979E+03  0.93232689261E+02 0.  0.
         23    2    4    4    0    0 -0.80062197367E+03  0.70803973215E+02 -0.24530422494E+02  0.80917354167E+03  0.90284725015E+02 0.  0.
          3    1    3    3  502    0  0.30229830676E+02 -0.84830925087E+00  0.42264003000E+02  0.51969300946E+02  0.00000000000E+00 0. -1.
         -4    1    3    3    0  502  0.61725142162E+03 -0.33433094614E+03  0.11335063337E+04  0.13332715806E+04  0.00000000000E+00 0.  1.
         13    1    5    5    0    0  0.17107151386E+02  0.49732434100E+02  0.74582814829E+02  0.91260976862E+02  0.00000000000E+00 0. -1.
        -13    1    5    5    0    0  0.13603356999E+03  0.21464284807E+03  0.10284406238E+03  0.27414154293E+03  0.00000000000E+00 0.  1.
          1    1    6    6  503    0 -0.32498286583E+03  0.16434552748E+01 -0.45050906382E+02  0.32809472443E+03  0.00000000000E+00 0. -1.
         -1    1    6    6    0  503 -0.47563910784E+03  0.69160517940E+02  0.20520483888E+02  0.48107881725E+03  0.00000000000E+00 0.  1.
<mgrwt>
<rscale>  0 0.21879916E+04</rscale>
<asrwt>0</asrwt>
<pdfrwt beam="1">  1        1 0.94703859E-01 0.21879916E+04</pdfrwt>
<pdfrwt beam="2">  1       -2 0.29911413E+00 0.21879916E+04</pdfrwt>
<totfact> 0.84948659E-01</totfact>
</mgrwt>
</event>
<event>
12    5  0.5197392E-008  0.2198231E+04  0.7818608E-02  0.8519165E-01
          1   -1    0    0  501    0  0.00000000000E+00  0.00000000000E+00  0.90558291718E+03  0.90558291718E+03  0.00000000000E+00 0. -1.
         -2   -1    0    0    0  501 -0.00000000000E+00 -0.00000000000E+00 -0.13340084286E+04  0.13340084286E+04  0.00000000000E+00 0.  1.
        -24    2    1    2    0    0 -0.56180966563E+02 -0.68036764272E+03 -0.79745515174E+03  0.10523800919E+04  0.74247615931E+02 0.  0.
        254    2    1    2    0    0  0.56180966563E+02  0.68036764272E+03  0.36902964028E+03  0.11872112540E+04  0.89846049210E+03 0.  0.
         23    2    4    4    0    0  0.39020415562E+03  0.18537557611E+03 -0.60445522707E+02  0.44597596510E+03  0.92830560464E+02 0.  0.
         23    2    4    4    0    0 -0.33402318905E+03  0.49499206661E+03  0.42947516298E+03  0.74123528886E+03  0.91608956938E+02 0.  0.
          1    1    3    3  502    0 -0.71628122717E+01 -0.45784742592E+03 -0.50604467711E+03  0.68246376206E+03  0.00000000000E+00 0. -1.
         -2    1    3    3    0  502 -0.49018154292E+02 -0.22252021680E+03 -0.29141047463E+03  0.36991632981E+03  0.00000000000E+00 0.  1.
         13    1    5    5    0    0  0.44087015392E+02  0.56456997844E+02 -0.20308854533E+02  0.74454731912E+02  0.00000000000E+00 0. -1.
        -13    1    5    5    0    0  0.34611714022E+03  0.12891857826E+03 -0.40136668174E+02  0.37152123319E+03  0.00000000000E+00 0.  1.
          1    1    6    6  503    0 -0.26113062601E+03  0.31121954500E+03  0.28045281651E+03  0.49366040081E+03  0.00000000000E+00 0. -1.
         -1    1    6    6    0  503 -0.72892563039E+02  0.18377252161E+03  0.14902234647E+03  0.24757488805E+03  0.00000000000E+00 0.  1.
<mgrwt>
<rscale>  0 0.21982313E+04</rscale>
<asrwt>0</asrwt>
<pdfrwt beam="1">  1        1 0.13932045E+00 0.21982313E+04</pdfrwt>
<pdfrwt beam="2">  1       -2 0.20523206E+00 0.21982313E+04</pdfrwt>
<totfact> 0.17688527E+00</totfact>
</mgrwt>
</event>
<event>
12    5  0.5197392E-008  0.1547671E+04  0.7818608E-02  0.8853357E-01
          1   -1    0    0  501    0  0.00000000000E+00  0.00000000000E+00  0.14987091766E+04  0.14987091766E+04  0.00000000000E+00 0. -1.
         -2   -1    0    0    0  501 -0.00000000000E+00 -0.00000000000E+00 -0.39955823338E+03  0.39955823338E+03  0.00000000000E+00 0.  1.
        -24    2    1    2    0    0  0.49210566714E+03  0.45721905916E+01  0.51466912302E+03  0.71645968888E+03  0.79001816752E+02 0.  0.
        254    2    1    2    0    0 -0.49210566714E+03 -0.45721905916E+01  0.58448182017E+03  0.11818077211E+04  0.90158837552E+03 0.  0.
         23    2    4    4    0    0  0.16701034752E+02 -0.15455361503E+03  0.61647351542E+03  0.64250086097E+03  0.92747057397E+02 0.  0.
         23    2    4    4    0    0 -0.50880670189E+03  0.14998142444E+03 -0.31991695248E+02  0.53930686008E+03  0.91922430343E+02 0.  0.
          1    1    3    3  502    0  0.34186858312E+03 -0.81176396701E+00  0.40709282141E+03  0.53160074523E+03  0.00000000000E+00 0. -1.
         -4    1    3    3    0  502  0.15023708402E+03  0.53839545586E+01  0.10757630161E+03  0.18485894366E+03  0.00000000000E+00 0.  1.
         13    1    5    5    0    0  0.32827724500E+01 -0.15584752638E+02  0.24725054777E+03  0.24776298045E+03  0.00000000000E+00 0.  1.
        -13    1    5    5    0    0  0.13418262302E+02 -0.13896886239E+03  0.36922296764E+03  0.39473788052E+03  0.00000000000E+00 0. -1.
          3    1    6    6  503    0 -0.52796030859E+02  0.40529530409E+02 -0.22466013179E+02  0.70248028142E+02  0.00000000000E+00 0. -1.
         -3    1    6    6    0  503 -0.45601067103E+03  0.10945189403E+03 -0.95256820690E+01  0.46905883194E+03  0.00000000000E+00 0.  1.
<mgrwt>
<rscale>  0 0.15476713E+04</rscale>
<asrwt>0</asrwt>
<pdfrwt beam="1">  1        1 0.23057064E+00 0.15476713E+04</pdfrwt>
<pdfrwt beam="2">  1       -2 0.61470498E-01 0.15476713E+04</pdfrwt>
<totfact> 0.13636104E+01</totfact>
</mgrwt>
</event>
<event>
12    5  0.5197392E-008  0.1432535E+04  0.7818608E-02  0.8930599E-01
          3   -1    0    0  501    0  0.00000000000E+00  0.00000000000E+00  0.10810902863E+04  0.10810902863E+04  0.00000000000E+00 0. -1.
         -4   -1    0    0    0  501 -0.00000000000E+00 -0.00000000000E+00 -0.47455719445E+03  0.47455719445E+03  0.00000000000E+00 0.  1.
        -24    2    1    2    0    0  0.34514843814E+02  0.32026048770E+02  0.64122385516E+03  0.64758199777E+03  0.77314094233E+02 0.  0.
        254    2    1    2    0    0 -0.34514843814E+02 -0.32026048770E+02 -0.34690763311E+02  0.90806548299E+03  0.90618018632E+03 0.  0.
         23    2    4    4    0    0  0.31531645585E+03  0.11793540302E+03  0.24619230520E+03  0.42662065732E+03  0.89784784324E+02 0.  0.
         23    2    4    4    0    0 -0.34983129966E+03 -0.14996145179E+03 -0.28088306851E+03  0.48144482567E+03  0.89573694457E+02 0.  0.
          1    1    3    3  502    0  0.49169151540E+02  0.28815673830E+02  0.61277979366E+03  0.61542426345E+03  0.00000000000E+00 0. -1.
         -2    1    3    3    0  502 -0.14654307726E+02  0.32103749398E+01  0.28444061497E+02  0.32157734320E+02  0.00000000000E+00 0.  1.
         13    1    5    5    0    0  0.28965437821E+03  0.77538308338E+02  0.22131408629E+03  0.37268186549E+03  0.00000000000E+00 0.  1.
        -13    1    5    5    0    0  0.25662077641E+02  0.40397094684E+02  0.24878218912E+02  0.53938791830E+02  0.00000000000E+00 0. -1.
          4    1    6    6  503    0 -0.16041541977E+03 -0.77142678738E+02 -0.77508874544E+02  0.19414356908E+03  0.00000000000E+00 0. -1.
         -4    1    6    6    0  503 -0.18941587990E+03 -0.72818773054E+02 -0.20337419396E+03  0.28730125659E+03  0.00000000000E+00 0.  1.
<mgrwt>
<rscale>  0 0.14325351E+04</rscale>
<asrwt>0</asrwt>
<pdfrwt beam="1">  1        3 0.16632158E+00 0.14325351E+04</pdfrwt>
<pdfrwt beam="2">  1       -4 0.73008800E-01 0.14325351E+04</pdfrwt>
<totfact> 0.93448923E-01</totfact>
</mgrwt>
</event>
<event>
12    5  0.5197392E-008  0.2188943E+04  0.7818608E-02  0.8523045E-01
         -2   -1    0    0    0  501 -0.00000000000E+00  0.00000000000E+00  0.12488471427E+04  0.12488471427E+04  0.00000000000E+00 0.  1.
          1   -1    0    0  501    0  0.00000000000E+00 -0.00000000000E+00 -0.95917860563E+03  0.95917860563E+03  0.00000000000E+00 0. -1.
        -24    2    1    2    0    0 -0.25924876774E+03 -0.17750037444E+03  0.97639307875E+03  0.10287092547E+04  0.78631927302E+02 0.  0.
        254    2    1    2    0    0  0.25924876774E+03  0.17750037444E+03 -0.68672454168E+03  0.11793164936E+04  0.90580378090E+03 0.  0.
         23    2    4    4    0    0  0.39728121354E+03  0.39693931452E+03 -0.70166020408E+03  0.90365384318E+03  0.94180912395E+02 0.  0.
         23    2    4    4    0    0 -0.13803244581E+03 -0.21943894008E+03  0.14935662403E+02  0.27566265044E+03  0.92522528716E+02 0.  0.
          1    1    3    3  502    0 -0.53991139011E+01 -0.20505395555E+02  0.11836817091E+03  0.12025242435E+03  0.00000000000E+00 0. -1.
         -2    1    3    3    0  502 -0.25384965383E+03 -0.15699497889E+03  0.85802490784E+03  0.90845683036E+03  0.00000000000E+00 0.  1.
         13    1    5    5    0    0  0.15702330367E+03  0.21638330724E+03 -0.29721104052E+03  0.39976550145E+03  0.00000000000E+00 0. -1.
        -13    1    5    5    0    0  0.24025790988E+03  0.18055600728E+03 -0.40444916356E+03  0.50388834173E+03  0.00000000000E+00 0.  1.
          1    1    6    6  503    0 -0.61612665630E+01 -0.65221284769E+01 -0.20825145240E+02  0.22675670658E+02  0.00000000000E+00 0. -1.
         -1    1    6    6    0  503 -0.13187117924E+03 -0.21291681160E+03  0.35760807643E+02  0.25298697978E+03  0.00000000000E+00 0.  1.
<mgrwt>
<rscale>  0 0.21889426E+04</rscale>
<asrwt>0</asrwt>
<pdfrwt beam="1">  1        1 0.14756594E+00 0.21889426E+04</pdfrwt>
<pdfrwt beam="2">  1       -2 0.19213033E+00 0.21889426E+04</pdfrwt>
<totfact> 0.19553018E+00</totfact>
</mgrwt>
</event>
<event>
12    5  0.5197392E-008  0.1530609E+04  0.7818608E-02  0.8864350E-01
          1   -1    0    0  501    0  0.00000000000E+00  0.00000000000E+00  0.23787271192E+04  0.23787271192E+04  0.00000000000E+00 0. -1.
         -2   -1    0    0    0  501 -0.00000000000E+00 -0.00000000000E+00 -0.24622025698E+03  0.24622025698E+03  0.00000000000E+00 0.  1.
        -24    2    1    2    0    0 -0.82296745051E+02 -0.32518514864E+03  0.13394880004E+04  0.13829874387E+04  0.76863628026E+02 0.  0.
        254    2    1    2    0    0  0.82296745051E+02  0.32518514864E+03  0.79301886179E+03  0.12419599374E+04  0.89502370686E+03 0.  0.
         23    2    4    4    0    0  0.38323589467E+03  0.11567848391E+02  0.81502776195E+02  0.40313940100E+03  0.94207791762E+02 0.  0.
         23    2    4    4    0    0 -0.30093914962E+03  0.31361730025E+03  0.71151608560E+03  0.83882053642E+03  0.91894338570E+02 0.  0.
          3    1    3    3  502    0 -0.67286544901E+02 -0.24236466412E+03  0.11203976188E+04  0.11482852144E+04  0.00000000000E+00 0. -1.
         -4    1    3    3    0  502 -0.15010200150E+02 -0.82820484523E+02  0.21909038162E+03  0.23470222428E+03  0.00000000000E+00 0.  1.
         13    1    5    5    0    0  0.16225437144E+02  0.99462791366E+01 -0.14326290763E+02  0.23820912791E+02  0.00000000000E+00 0.  1.
        -13    1    5    5    0    0  0.36701045753E+03  0.16215692542E+01  0.95829066958E+02  0.37931848821E+03  0.00000000000E+00 0. -1.
          1    1    6    6  503    0 -0.26846830713E+03  0.27084833001E+03  0.55536767676E+03  0.67369674646E+03  0.00000000000E+00 0. -1.
         -1    1    6    6    0  503 -0.32470842494E+02  0.42768970244E+02  0.15614840884E+03  0.16512378996E+03  0.00000000000E+00 0.  1.
<mgrwt>
<rscale>  0 0.15306088E+04</rscale>
<asrwt>0</asrwt>
<pdfrwt beam="1">  1        1 0.36595800E+00 0.15306088E+04</pdfrwt>
<pdfrwt beam="2">  1       -2 0.37880041E-01 0.15306088E+04</pdfrwt>
<totfact> 0.91741997E+00</totfact>
</mgrwt>
</event>
<event>
12    5  0.5197392E-008  0.4432807E+04  0.7818608E-02  0.7922507E-01
          1   -1    0    0  501    0  0.00000000000E+00  0.00000000000E+00  0.28914323560E+04  0.28914323560E+04  0.00000000000E+00 0. -1.
         -2   -1    0    0    0  501 -0.00000000000E+00 -0.00000000000E+00 -0.16989661002E+04  0.16989661002E+04  0.00000000000E+00 0.  1.
        -24    2    1    2    0    0  0.27580572090E+03 -0.19862845065E+04 -0.14399162511E+03  0.20118977711E+04  0.74860649896E+02 0.  0.
        254    2    1    2    0    0 -0.27580572090E+03  0.19862845065E+04  0.13364578809E+04  0.25785006852E+04  0.91714294389E+03 0.  0.
         23    2    4    4    0    0 -0.45398735036E+02  0.12178597569E+04  0.28856379126E+03  0.12557320520E+04  0.91381027835E+02 0.  0.
         23    2    4    4    0    0 -0.23040698587E+03  0.76842474958E+03  0.10478940897E+04  0.13227686331E+04  0.89837958289E+02 0.  0.
          3    1    3    3  502    0  0.73926927294E+02 -0.59971085285E+03 -0.10256339113E+02  0.60433723209E+03  0.00000000000E+00 0. -1.
         -4    1    3    3    0  502  0.20187879361E+03 -0.13865736536E+04 -0.13373528600E+03  0.14075605390E+04  0.00000000000E+00 0.  1.
         13    1    5    5    0    0 -0.31572792767E+02  0.30063091483E+03  0.37068004078E+02  0.30454855954E+03  0.00000000000E+00 0. -1.
        -13    1    5    5    0    0 -0.13825942270E+02  0.91722884208E+03  0.25149578718E+03  0.95118349249E+03  0.00000000000E+00 0.  1.
          1    1    6    6  503    0 -0.17533560312E+03  0.64091211585E+03  0.91258794858E+03  0.11288612306E+04  0.00000000000E+00 0. -1.
         -1    1    6    6    0  503 -0.55071382746E+02  0.12751263373E+03  0.13530614107E+03  0.19390740256E+03  0.00000000000E+00 0.  1.
<mgrwt>
<rscale>  0 0.44328075E+04</rscale>
<asrwt>0</asrwt>
<pdfrwt beam="1">  1        1 0.44483575E+00 0.44328075E+04</pdfrwt>
<pdfrwt beam="2">  1       -2 0.26137940E+00 0.44328075E+04</pdfrwt>
<totfact> 0.26070790E-02</totfact>
</mgrwt>
</event>
<event>
12    5  0.5197392E-008  0.1650924E+04  0.7818608E-02  0.8789860E-01
          1   -1    0    0  501    0  0.00000000000E+00  0.00000000000E+00  0.14194884842E+04  0.14194884842E+04  0.00000000000E+00 0. -1.
         -4   -1    0    0    0  501 -0.00000000000E+00 -0.00000000000E+00 -0.48002307233E+03  0.48002307233E+03  0.00000000000E+00 0.  1.
        -24    2    1    2    0    0 -0.69535650465E+02  0.23524124665E+03  0.93992984939E+03  0.97472285206E+03  0.80267463796E+02 0.  0.
        254    2    1    2    0    0  0.69535650465E+02 -0.23524124665E+03 -0.46443749841E+00  0.92478870449E+03  0.89166152852E+03 0.  0.
         23    2    4    4    0    0  0.18002506063E+02  0.33325244566E+03  0.20000128171E+02  0.34663359908E+03  0.91507180695E+02 0.  0.
         23    2    4    4    0    0  0.51533144402E+02 -0.56849369231E+03 -0.20464565670E+02  0.57815510542E+03  0.89463871476E+02 0.  0.
          1    1    3    3  502    0 -0.50162053828E+02  0.73839492975E+02  0.23733747840E+03  0.25356967685E+03  0.00000000000E+00 0. -1.
         -2    1    3    3    0  502 -0.19373596636E+02  0.16140175368E+03  0.70259237099E+03  0.72115317521E+03  0.00000000000E+00 0.  1.
         13    1    5    5    0    0  0.24781538233E+02  0.13551296903E+03  0.49924890552E+02  0.14652775883E+03  0.00000000000E+00 0. -1.
        -13    1    5    5    0    0 -0.67790321702E+01  0.19773947663E+03 -0.29924762381E+02  0.20010584024E+03  0.00000000000E+00 0.  1.
          2    1    6    6  503    0  0.12173456465E+01 -0.87904694926E+02 -0.35240967639E+02  0.94713479086E+02  0.00000000000E+00 0. -1.
         -2    1    6    6    0  503  0.50315798755E+02 -0.48058899739E+03  0.14776401969E+02  0.48344162633E+03  0.00000000000E+00 0.  1.
<mgrwt>
<rscale>  0 0.16509236E+04</rscale>
<asrwt>0</asrwt>
<pdfrwt beam="1">  1        1 0.21838284E+00 0.16509236E+04</pdfrwt>
<pdfrwt beam="2">  1       -4 0.73849704E-01 0.16509236E+04</pdfrwt>
<totfact> 0.57917113E+00</totfact>
</mgrwt>
</event>
<event>
12    5  0.5197392E-008  0.1628957E+04  0.7818608E-02  0.8802953E-01
          1   -1    0    0  501    0  0.00000000000E+00  0.00000000000E+00  0.23454311945E+04  0.23454311945E+04  0.00000000000E+00 0. -1.
         -2   -1    0    0    0  501 -0.00000000000E+00 -0.00000000000E+00 -0.28283725844E+03  0.28283725844E+03  0.00000000000E+00 0.  1.
        -24    2    1    2    0    0 -0.16651187033E+03  0.44146222710E+03  0.10870799582E+04  0.11877693343E+04  0.80237492188E+02 0.  0.
        254    2    1    2    0    0  0.16651187033E+03 -0.44146222710E+03  0.97551397789E+03  0.14404991186E+04  0.94910225412E+03 0.  0.
         23    2    4    4    0    0  0.53786258642E+03 -0.39664854728E+03  0.61015959758E+03  0.90968321397E+03  0.92750112250E+02 0.  0.
         23    2    4    4    0    0 -0.37135071609E+03 -0.44813679821E+02  0.36535438031E+03  0.53081590466E+03  0.91499077531E+02 0.  0.
          1    1    3    3  502    0 -0.14238762076E+02  0.45882339261E+02  0.18387232324E+03  0.19004463332E+03  0.00000000000E+00 0. -1.
         -2    1    3    3    0  502 -0.15227310826E+03  0.39557988784E+03  0.90320763493E+03  0.99772470099E+03  0.00000000000E+00 0.  1.
         13    1    5    5    0    0  0.48366502949E+03 -0.31757841747E+03  0.51487822595E+03  0.77452404711E+03  0.00000000000E+00 0. -1.
        -13    1    5    5    0    0  0.54197556928E+02 -0.79070129808E+02  0.95281371633E+02  0.13515916686E+03  0.00000000000E+00 0.  1.
          4    1    6    6  503    0 -0.27241333861E+03  0.82201679501E+01  0.26788067622E+03  0.38214742562E+03  0.00000000000E+00 0. -1.
         -4    1    6    6    0  503 -0.98937377481E+02 -0.53033847771E+02  0.97473704090E+02  0.14866847904E+03  0.00000000000E+00 0.  1.
<mgrwt>
<rscale>  0 0.16289571E+04</rscale>
<asrwt>0</asrwt>
<pdfrwt beam="1">  1        1 0.36083555E+00 0.16289571E+04</pdfrwt>
<pdfrwt beam="2">  1       -2 0.43513426E-01 0.16289571E+04</pdfrwt>
<totfact> 0.73012872E+00</totfact>
</mgrwt>
</event>
<event>
12    5  0.5545576E-008  0.1495864E+04  0.7818608E-02  0.8887208E-01
          1   -1    0    0  501    0  0.00000000000E+00  0.00000000000E+00  0.87118227437E+03  0.87118227437E+03  0.00000000000E+00 0. -1.
         -2   -1    0    0    0  501 -0.00000000000E+00 -0.00000000000E+00 -0.64211862850E+03  0.64211862850E+03  0.00000000000E+00 0.  1.
        -24    2    1    2    0    0  0.11690843760E+02 -0.18058158248E+02  0.55048776546E+03  0.55710954724E+03  0.82894479915E+02 0.  0.
        254    2    1    2    0    0 -0.11690843760E+02  0.18058158248E+02 -0.32142411959E+03  0.95619135563E+03  0.90029199209E+03 0.  0.
         23    2    4    4    0    0 -0.27473437729E+03 -0.22003618913E+03 -0.44060148839E+03  0.57116209102E+03  0.90562464959E+02 0.  0.
         23    2    4    4    0    0  0.26304353353E+03  0.23809434738E+03  0.11917736879E+03  0.38502926461E+03  0.90351926290E+02 0.  0.
          3    1    3    3  502    0  0.36942290528E+02 -0.36978471177E+02  0.39579494983E+03  0.39923148983E+03  0.00000000000E+00 0. -1.
         -4    1    3    3    0  502 -0.25251446768E+02  0.18920312928E+02  0.15469281563E+03  0.15787805741E+03  0.00000000000E+00 0.  1.
         13    1    5    5    0    0 -0.37869193863E+02 -0.19738673248E+02 -0.16631310540E+02  0.45828937973E+02  0.00000000000E+00 0. -1.
        -13    1    5    5    0    0 -0.23686518343E+03 -0.20029751588E+03 -0.42397017785E+03  0.52533315305E+03  0.00000000000E+00 0.  1.
          3    1    6    6  503    0  0.16049419410E+03  0.11647609415E+03  0.24265768728E+02  0.19978461998E+03  0.00000000000E+00 0. -1.
         -3    1    6    6    0  503  0.10254933943E+03  0.12161825323E+03  0.94911600063E+02  0.18524464463E+03  0.00000000000E+00 0.  1.
<mgrwt>
<rscale>  0 0.14958641E+04</rscale>
<asrwt>0</asrwt>
<pdfrwt beam="1">  1        1 0.13402804E+00 0.14958641E+04</pdfrwt>
<pdfrwt beam="2">  1       -2 0.98787482E-01 0.14958641E+04</pdfrwt>
<totfact> 0.13859598E+01</totfact>
</mgrwt>
</event>
<event>
12    5  0.5197392E-008  0.1617625E+04  0.7818608E-02  0.8809793E-01
         -2   -1    0    0    0  501 -0.00000000000E+00  0.00000000000E+00  0.35214059268E+03  0.35214059268E+03  0.00000000000E+00 0.  1.
          1   -1    0    0  501    0  0.00000000000E+00 -0.00000000000E+00 -0.18577179635E+04  0.18577179635E+04  0.00000000000E+00 0. -1.
        -24    2    1    2    0    0  0.52950930745E+02  0.37073504669E+03 -0.10762908362E+04  0.11424339304E+04  0.80653861992E+02 0.  0.
        254    2    1    2    0    0 -0.52950930745E+02 -0.37073504669E+03 -0.42928653468E+03  0.10674246258E+04  0.90269603244E+03 0.  0.
         23    2    4    4    0    0 -0.11236000697E+03 -0.63973467060E+03 -0.16315788582E+03  0.67578786432E+03  0.90462820619E+02 0.  0.
         23    2    4    4    0    0  0.59409076228E+02  0.26899962392E+03 -0.26612864886E+03  0.39163676148E+03  0.81637363937E+02 0.  0.
          1    1    3    3  502    0  0.51641549064E+02  0.28454335183E+03 -0.72099356143E+03  0.77682912167E+03  0.00000000000E+00 0. -1.
         -2    1    3    3    0  502  0.13093816808E+01  0.86191694859E+02 -0.35529727475E+03  0.36560480876E+03  0.00000000000E+00 0.  1.
         13    1    5    5    0    0 -0.92904149333E+02 -0.60892923333E+03 -0.16934815129E+03  0.63883079803E+03  0.00000000000E+00 0.  1.
        -13    1    5    5    0    0 -0.19455857640E+02 -0.30805437272E+02  0.61902654637E+01  0.36957066287E+02  0.00000000000E+00 0. -1.
          1    1    6    6  503    0  0.30029665606E+02  0.52829689304E+02 -0.22985319216E+02  0.64969852915E+02  0.00000000000E+00 0. -1.
         -1    1    6    6    0  503  0.29379410622E+02  0.21616993461E+03 -0.24314332964E+03  0.32666690856E+03  0.00000000000E+00 0.  1.
<mgrwt>
<rscale>  0 0.16176253E+04</rscale>
<asrwt>0</asrwt>
<pdfrwt beam="1">  1        1 0.28580277E+00 0.16176253E+04</pdfrwt>
<pdfrwt beam="2">  1       -2 0.54175475E-01 0.16176253E+04</pdfrwt>
<totfact> 0.10045705E+01</totfact>
</mgrwt>
</event>
<event>
12    5  0.5197392E-008  0.1495129E+04  0.7818608E-02  0.8887698E-01
          1   -1    0    0  501    0  0.00000000000E+00  0.00000000000E+00  0.17705666594E+04  0.17705666594E+04  0.00000000000E+00 0. -1.
         -2   -1    0    0    0  501 -0.00000000000E+00 -0.00000000000E+00 -0.31563510081E+03  0.31563510081E+03  0.00000000000E+00 0.  1.
        -24    2    1    2    0    0 -0.13171917475E+03 -0.49924640831E+02  0.11248863831E+04  0.11365677038E+04  0.81082425091E+02 0.  0.
        254    2    1    2    0    0  0.13171917475E+03  0.49924640831E+02  0.33004517548E+03  0.94963405642E+03  0.87922273202E+03 0.  0.
         23    2    4    4    0    0 -0.34863420659E+03  0.11605657024E+03  0.23858625069E+03  0.44768057002E+03  0.92084506057E+02 0.  0.
         23    2    4    4    0    0  0.48035338133E+03 -0.66131929407E+02  0.91458924792E+02  0.50195348640E+03  0.92085637005E+02 0.  0.
          1    1    3    3  502    0 -0.39705798926E+02 -0.45064094651E+02  0.65392338667E+03  0.65667580946E+03  0.00000000000E+00 0. -1.
         -2    1    3    3    0  502 -0.92013375822E+02 -0.48605461801E+01  0.47096299647E+03  0.47989189437E+03  0.00000000000E+00 0.  1.
         13    1    5    5    0    0 -0.89510612101E+02  0.49439332351E+01  0.22421319737E+02  0.92408374800E+02  0.00000000000E+00 0. -1.
        -13    1    5    5    0    0 -0.25912359448E+03  0.11111263700E+03  0.21616493095E+03  0.35527219522E+03  0.00000000000E+00 0.  1.
          1    1    6    6  503    0  0.38610081491E+03 -0.52938800799E+02  0.11011400835E+03  0.40497092579E+03  0.00000000000E+00 0. -1.
         -1    1    6    6    0  503  0.94252566423E+02 -0.13193128608E+02 -0.18655083555E+02  0.96982560609E+02  0.00000000000E+00 0.  1.
<mgrwt>
<rscale>  0 0.14951294E+04</rscale>
<asrwt>0</asrwt>
<pdfrwt beam="1">  1        1 0.27239487E+00 0.14951294E+04</pdfrwt>
<pdfrwt beam="2">  1       -2 0.48559247E-01 0.14951294E+04</pdfrwt>
<totfact> 0.14557933E+01</totfact>
</mgrwt>
</event>
<event>
12    5  0.5197392E-008  0.1672550E+04  0.7818608E-02  0.8777177E-01
          1   -1    0    0  501    0  0.00000000000E+00  0.00000000000E+00  0.10880565789E+04  0.10880565789E+04  0.00000000000E+00 0. -1.
         -2   -1    0    0    0  501 -0.00000000000E+00 -0.00000000000E+00 -0.64275684603E+03  0.64275684603E+03  0.00000000000E+00 0.  1.
        -24    2    1    2    0    0  0.41797914231E+03 -0.34898638215E+03  0.39528275314E+03  0.67763062685E+03  0.80229378556E+02 0.  0.
        254    2    1    2    0    0 -0.41797914231E+03  0.34898638215E+03  0.50016979777E+02  0.10531827981E+04  0.90010791002E+03 0.  0.
         23    2    4    4    0    0  0.94062250014E+02  0.13764767143E+02  0.34424154699E+03  0.36852705917E+03  0.90954796319E+02 0.  0.
         23    2    4    4    0    0 -0.51204139232E+03  0.33522161501E+03 -0.29422456721E+03  0.68465573896E+03  0.87323916108E+02 0.  0.
          1    1    3    3  502    0  0.38928839436E+03 -0.30463116670E+03  0.37721293497E+03  0.62179996785E+03  0.00000000000E+00 0. -1.
         -2    1    3    3    0  502  0.28690747942E+02 -0.44355215452E+02  0.18069818166E+02  0.55830658995E+02  0.00000000000E+00 0.  1.
         13    1    5    5    0    0  0.70452345807E+02  0.43073185922E+02  0.15545618025E+03  0.17602686259E+03  0.00000000000E+00 0. -1.
        -13    1    5    5    0    0  0.23609904207E+02 -0.29308418780E+02  0.18878536674E+03  0.19250019658E+03  0.00000000000E+00 0.  1.
          1    1    6    6  503    0 -0.46984203197E+03  0.27691314523E+03 -0.24799165995E+03  0.59910957964E+03  0.00000000000E+00 0. -1.
         -1    1    6    6    0  503 -0.42199360352E+02  0.58308469773E+02 -0.46232907260E+02  0.85546159324E+02  0.00000000000E+00 0.  1.
<mgrwt>
<rscale>  0 0.16725499E+04</rscale>
<asrwt>0</asrwt>
<pdfrwt beam="1">  1        1 0.16739332E+00 0.16725499E+04</pdfrwt>
<pdfrwt beam="2">  1       -2 0.98885668E-01 0.16725499E+04</pdfrwt>
<totfact> 0.91832415E+00</totfact>
</mgrwt>
</event>
<event>
12    5  0.5197392E-008  0.3155755E+04  0.7818608E-02  0.8200601E-01
         -2   -1    0    0    0  501 -0.00000000000E+00  0.00000000000E+00  0.11399693867E+04  0.11399693867E+04  0.00000000000E+00 0.  1.
          1   -1    0    0  501    0  0.00000000000E+00 -0.00000000000E+00 -0.21840030780E+04  0.21840030780E+04  0.00000000000E+00 0. -1.
        -24    2    1    2    0    0  0.10548417865E+04  0.70470274726E+03 -0.12220605699E+04  0.17632128020E+04  0.78677773455E+02 0.  0.
        254    2    1    2    0    0 -0.10548417865E+04 -0.70470274726E+03  0.17802687860E+03  0.15607596626E+04  0.89161650861E+03 0.  0.
         23    2    4    4    0    0 -0.59397384864E+03 -0.81637921578E+03  0.30938812152E+03  0.10602369032E+04  0.95400861619E+02 0.  0.
         23    2    4    4    0    0 -0.46086793787E+03  0.11167646852E+03 -0.13136124292E+03  0.50052275941E+03  0.91631690806E+02 0.  0.
          3    1    3    3  502    0  0.76789805098E+03  0.47394632967E+03 -0.84723373432E+03  0.12377792778E+04  0.00000000000E+00 0. -1.
         -4    1    3    3    0  502  0.28694373553E+03  0.23075641760E+03 -0.37482683559E+03  0.52543352415E+03  0.00000000000E+00 0.  1.
         13    1    5    5    0    0 -0.21095876226E+03 -0.22032564925E+03  0.10918968453E+03  0.32398978117E+03  0.00000000000E+00 0.  1.
        -13    1    5    5    0    0 -0.38301508637E+03 -0.59605356653E+03  0.20019843699E+03  0.73624712206E+03  0.00000000000E+00 0. -1.
          3    1    6    6  503    0 -0.37457553594E+03  0.71633174545E+02 -0.71165640263E+02  0.38794676461E+03  0.00000000000E+00 0. -1.
         -3    1    6    6    0  503 -0.86292401934E+02  0.40043293976E+02 -0.60195602661E+02  0.11257599479E+03  0.00000000000E+00 0.  1.
<mgrwt>
<rscale>  0 0.31557545E+04</rscale>
<asrwt>0</asrwt>
<pdfrwt beam="1">  1        1 0.33600047E+00 0.31557545E+04</pdfrwt>
<pdfrwt beam="2">  1       -2 0.17537991E+00 0.31557545E+04</pdfrwt>
<totfact> 0.32218849E-01</totfact>
</mgrwt>
</event>
<event>
12    5  0.5197392E-008  0.1278334E+04  0.7818608E-02  0.9046925E-01
         -2   -1    0    0    0  501 -0.00000000000E+00  0.00000000000E+00  0.57740487272E+03  0.57740487272E+03  0.00000000000E+00 0.  1.
          1   -1    0    0  501    0  0.00000000000E+00 -0.00000000000E+00 -0.70753577408E+03  0.70753577408E+03  0.00000000000E+00 0. -1.
        -24    2    1    2    0    0 -0.23751582941E+03  0.15203014760E+03  0.11469091196E+03  0.31350309999E+03  0.74854882387E+02 0.  0.
        254    2    1    2    0    0  0.23751582941E+03 -0.15203014760E+03 -0.24482181333E+03  0.97143754681E+03  0.89678662572E+03 0.  0.
         23    2    4    4    0    0 -0.32364134281E+03 -0.11815018455E+03 -0.10792808405E+02  0.35519511943E+03  0.85696576742E+02 0.  0.
         23    2    4    4    0    0  0.56115717222E+03 -0.33879963051E+02 -0.23402900493E+03  0.61624242739E+03  0.94551204833E+02 0.  0.
          3    1    3    3  502    0 -0.16651168306E+03  0.14181498012E+03  0.73250175455E+02  0.23065822636E+03  0.00000000000E+00 0. -1.
         -4    1    3    3    0  502 -0.71004146342E+02  0.10215167484E+02  0.41440736509E+02  0.82844873631E+02  0.00000000000E+00 0.  1.
         13    1    5    5    0    0 -0.17900107670E+03 -0.25154292222E+02 -0.25770139896E+02  0.18258757895E+03  0.00000000000E+00 0. -1.
        -13    1    5    5    0    0 -0.14464026612E+03 -0.92995892327E+02  0.14977331491E+02  0.17260754048E+03  0.00000000000E+00 0.  1.
          1    1    6    6  503    0  0.46929089957E+03 -0.57230085013E+02 -0.17259394331E+03  0.50328709532E+03  0.00000000000E+00 0. -1.
         -1    1    6    6    0  503  0.91866272645E+02  0.23350121962E+02 -0.61435061616E+02  0.11295533206E+03  0.00000000000E+00 0.  1.
<mgrwt>
<rscale>  0 0.12783342E+04</rscale>
<asrwt>0</asrwt>
<pdfrwt beam="1">  1        1 0.10885166E+00 0.12783342E+04</pdfrwt>
<pdfrwt beam="2">  1       -2 0.88831518E-01 0.12783342E+04</pdfrwt>
<totfact> 0.25162040E+01</totfact>
</mgrwt>
</event>
<event>
12    5  0.5197392E-008  0.1332908E+04  0.7818608E-02  0.9003869E-01
          3   -1    0    0  501    0  0.00000000000E+00  0.00000000000E+00  0.14436016281E+04  0.14436016281E+04  0.00000000000E+00 0. -1.
         -2   -1    0    0    0  501 -0.00000000000E+00 -0.00000000000E+00 -0.30767539519E+03  0.30767539519E+03  0.00000000000E+00 0.  1.
        -24    2    1    2    0    0  0.10426197916E+02 -0.34641099079E+03  0.32022001800E+03  0.47893867100E+03  0.82049439427E+02 0.  0.
        254    2    1    2    0    0 -0.10426197916E+02  0.34641099079E+03  0.81570621487E+03  0.12723383522E+04  0.91288497275E+03 0.  0.
         23    2    4    4    0    0  0.27290379120E+03 -0.15906129842E+03  0.52292210685E+03  0.61759740887E+03  0.90565190348E+02 0.  0.
         23    2    4    4    0    0 -0.28332998911E+03  0.50547228921E+03  0.29278410802E+03  0.65474094337E+03  0.84764680949E+02 0.  0.
          1    1    3    3  502    0 -0.13222980839E+02 -0.16264006371E+03  0.19976760849E+03  0.25794134013E+03  0.00000000000E+00 0. -1.
         -2    1    3    3    0  502  0.23649178755E+02 -0.18377092708E+03  0.12045240951E+03  0.22099733087E+03  0.00000000000E+00 0.  1.
         13    1    5    5    0    0  0.18110377095E+03 -0.10974596812E+03  0.42387720028E+03  0.47382975243E+03  0.00000000000E+00 0. -1.
        -13    1    5    5    0    0  0.91800020244E+02 -0.49315330304E+02  0.99044906568E+02  0.14376765643E+03  0.00000000000E+00 0.  1.
          3    1    6    6  503    0 -0.23433324570E+03  0.35452268136E+03  0.18889705974E+03  0.46505967447E+03  0.00000000000E+00 0. -1.
         -3    1    6    6    0  503 -0.48996743416E+02  0.15094960784E+03  0.10388704828E+03  0.18968126890E+03  0.00000000000E+00 0.  1.
<mgrwt>
<rscale>  0 0.13329077E+04</rscale>
<asrwt>0</asrwt>
<pdfrwt beam="1">  1        3 0.22209255E+00 0.13329077E+04</pdfrwt>
<pdfrwt beam="2">  1       -2 0.47334677E-01 0.13329077E+04</pdfrwt>
<totfact> 0.18265944E+00</totfact>
</mgrwt>
</event>
<event>
12    5  0.5197392E-008  0.3329204E+04  0.7818608E-02  0.8155504E-01
         -2   -1    0    0    0  501 -0.00000000000E+00  0.00000000000E+00  0.13581993979E+04  0.13581993979E+04  0.00000000000E+00 0.  1.
          1   -1    0    0  501    0  0.00000000000E+00 -0.00000000000E+00 -0.20401276994E+04  0.20401276994E+04  0.00000000000E+00 0. -1.
        -24    2    1    2    0    0 -0.30037810031E+03  0.14821296321E+04 -0.64498081230E+03  0.16458947795E+04  0.77679646446E+02 0.  0.
        254    2    1    2    0    0  0.30037810031E+03 -0.14821296321E+04 -0.36947489168E+02  0.17524323178E+04  0.88471388720E+03 0.  0.
         23    2    4    4    0    0 -0.30439950233E+03 -0.59251276197E+03 -0.11533579109E+02  0.67232360744E+03  0.90308247457E+02 0.  0.
         23    2    4    4    0    0  0.60477760264E+03 -0.88961687012E+03 -0.25413910059E+02  0.10801087104E+04  0.93887353794E+02 0.  0.
          3    1    3    3  502    0 -0.83220692219E+02  0.48219939636E+03 -0.24526701781E+03  0.54735532471E+03  0.00000000000E+00 0. -1.
         -4    1    3    3    0  502 -0.21715740809E+03  0.99993023573E+03 -0.39971379449E+03  0.10985394548E+04  0.00000000000E+00 0.  1.
         13    1    5    5    0    0 -0.13466678753E+03 -0.35766194035E+03  0.31314885340E+01  0.38218714455E+03  0.00000000000E+00 0. -1.
        -13    1    5    5    0    0 -0.16973271481E+03 -0.23485082162E+03 -0.14665067643E+02  0.29013646289E+03  0.00000000000E+00 0.  1.
          1    1    6    6  503    0  0.51666213945E+03 -0.72646580138E+03 -0.51069418160E+02  0.89291680037E+03  0.00000000000E+00 0. -1.
         -1    1    6    6    0  503  0.88115463189E+02 -0.16315106874E+03  0.25655508101E+02  0.18719191003E+03  0.00000000000E+00 0.  1.
<mgrwt>
<rscale>  0 0.33292042E+04</rscale>
<asrwt>0</asrwt>
<pdfrwt beam="1">  1        1 0.31386580E+00 0.33292042E+04</pdfrwt>
<pdfrwt beam="2">  1       -2 0.20895375E+00 0.33292042E+04</pdfrwt>
<totfact> 0.23686957E-01</totfact>
</mgrwt>
</event>
<event>
12    5  0.5197392E-008  0.1311804E+04  0.7818608E-02  0.9020257E-01
         -2   -1    0    0    0  501 -0.00000000000E+00  0.00000000000E+00  0.10851148623E+04  0.10851148623E+04  0.00000000000E+00 0.  1.
          1   -1    0    0  501    0  0.00000000000E+00 -0.00000000000E+00 -0.39646237796E+03  0.39646237796E+03  0.00000000000E+00 0. -1.
        -24    2    1    2    0    0  0.73280474322E+02  0.20982102892E+03  0.47117371773E+03  0.52721649227E+03  0.80979413121E+02 0.  0.
        254    2    1    2    0    0 -0.73280474322E+02 -0.20982102892E+03  0.21747876660E+03  0.95436074799E+03  0.90228184692E+03 0.  0.
         23    2    4    4    0    0  0.30618608752E+03 -0.38566526837E+03  0.85766812084E+02  0.50812759933E+03  0.91378836317E+02 0.  0.
         23    2    4    4    0    0 -0.37946656184E+03  0.17584423945E+03  0.13171195452E+03  0.44623314866E+03  0.82824609230E+02 0.  0.
          3    1    3    3  502    0  0.34977536849E+02  0.15604970104E+03  0.25329351175E+03  0.29955390228E+03  0.00000000000E+00 0. -1.
         -2    1    3    3    0  502  0.38302937473E+02  0.53771327873E+02  0.21788020598E+03  0.22766258999E+03  0.00000000000E+00 0.  1.
         13    1    5    5    0    0  0.29961842671E+03 -0.38962043464E+03  0.89524225866E+02  0.49958970339E+03  0.00000000000E+00 0.  1.
        -13    1    5    5    0    0  0.65676608089E+01  0.39551662724E+01 -0.37574137818E+01  0.85378959393E+01  0.00000000000E+00 0. -1.
          2    1    6    6  503    0 -0.17499548502E+03  0.12060588130E+03  0.87663426663E+02  0.22990014083E+03  0.00000000000E+00 0. -1.
         -2    1    6    6    0  503 -0.20447107682E+03  0.55238358154E+02  0.44048527854E+02  0.21633300783E+03  0.00000000000E+00 0.  1.
<mgrwt>
<rscale>  0 0.13118037E+04</rscale>
<asrwt>0</asrwt>
<pdfrwt beam="1">  1        1 0.60994213E-01 0.13118037E+04</pdfrwt>
<pdfrwt beam="2">  1       -2 0.16694075E+00 0.13118037E+04</pdfrwt>
<totfact> 0.11659707E+01</totfact>
</mgrwt>
</event>
<event>
12    5  0.5197392E-008  0.2609453E+04  0.7818608E-02  0.8364997E-01
          1   -1    0    0  501    0  0.00000000000E+00  0.00000000000E+00  0.16915470893E+04  0.16915470893E+04  0.00000000000E+00 0. -1.
         -2   -1    0    0    0  501 -0.00000000000E+00 -0.00000000000E+00 -0.10063635063E+04  0.10063635063E+04  0.00000000000E+00 0.  1.
        -24    2    1    2    0    0  0.99189378752E+03 -0.44584859830E+02 -0.29310401847E+03  0.10382804021E+04  0.79215733092E+02 0.  0.
        254    2    1    2    0    0 -0.99189378752E+03  0.44584859830E+02  0.97828760146E+03  0.16596301934E+04  0.90082442926E+03 0.  0.
         23    2    4    4    0    0 -0.41180366736E+03 -0.38138466753E+03  0.64873204955E+03  0.86270581903E+03  0.91496081925E+02 0.  0.
         23    2    4    4    0    0 -0.58009012015E+03  0.42596952736E+03  0.32955555191E+03  0.79692437440E+03  0.92341815985E+02 0.  0.
          1    1    3    3  502    0  0.20806564035E+02 -0.99522737710E+01 -0.15180214739E+02  0.27611587779E+02  0.00000000000E+00 0. -1.
         -2    1    3    3    0  502  0.97108722348E+03 -0.34632586059E+02 -0.27792380373E+03  0.10106688144E+04  0.00000000000E+00 0.  1.
         13    1    5    5    0    0 -0.11074842382E+02 -0.38798086383E+02  0.61291815014E+02  0.73380039715E+02  0.00000000000E+00 0. -1.
        -13    1    5    5    0    0 -0.40072882498E+03 -0.34258658114E+03  0.58744023453E+03  0.78932577932E+03  0.00000000000E+00 0.  1.
          1    1    6    6  503    0 -0.29759009466E+03  0.16289374792E+03  0.16578940064E+03  0.37759815004E+03  0.00000000000E+00 0. -1.
         -1    1    6    6    0  503 -0.28250002549E+03  0.26307577944E+03  0.16376615128E+03  0.41932622436E+03  0.00000000000E+00 0.  1.
<mgrwt>
<rscale>  0 0.26094530E+04</rscale>
<asrwt>0</asrwt>
<pdfrwt beam="1">  1        1 0.26023801E+00 0.26094530E+04</pdfrwt>
<pdfrwt beam="2">  1       -2 0.15482515E+00 0.26094530E+04</pdfrwt>
<totfact> 0.10281535E+00</totfact>
</mgrwt>
</event>
<event>
12    5  0.5197392E-008  0.2424228E+04  0.7818608E-02  0.8430488E-01
         -2   -1    0    0    0  501 -0.00000000000E+00  0.00000000000E+00  0.13525319169E+04  0.13525319169E+04  0.00000000000E+00 0.  1.
          1   -1    0    0  501    0  0.00000000000E+00 -0.00000000000E+00 -0.10862739891E+04  0.10862739891E+04  0.00000000000E+00 0. -1.
        -24    2    1    2    0    0  0.43905929019E+03 -0.64527949549E+03  0.77018221033E+03  0.10995534213E+04  0.81721487969E+02 0.  0.
        254    2    1    2    0    0 -0.43905929019E+03  0.64527949549E+03 -0.50392428251E+03  0.13392524847E+04  0.96462368186E+03 0.  0.
         23    2    4    4    0    0 -0.42453069476E+03  0.13233270033E+03  0.17265830875E+03  0.48512581726E+03  0.88305790376E+02 0.  0.
         23    2    4    4    0    0 -0.14528595424E+02  0.51294679516E+03 -0.67658259125E+03  0.85412666742E+03  0.91885072046E+02 0.  0.
          1    1    3    3  502    0  0.70775097065E+02 -0.11428644992E+03  0.92634312232E+02  0.16325324745E+03  0.00000000000E+00 0. -1.
         -2    1    3    3    0  502  0.36828419312E+03 -0.53099304557E+03  0.67754789810E+03  0.93630017386E+03  0.00000000000E+00 0.  1.
         13    1    5    5    0    0 -0.20319299356E+01  0.46568153661E+01  0.15987519638E+02  0.16775441955E+02  0.00000000000E+00 0. -1.
        -13    1    5    5    0    0 -0.42249876483E+03  0.12767588497E+03  0.15667078911E+03  0.46835037530E+03  0.00000000000E+00 0.  1.
          4    1    6    6  503    0  0.10625500575E+02  0.85482023899E+01 -0.66760926575E+01  0.15183650409E+02  0.00000000000E+00 0. -1.
         -4    1    6    6    0  503 -0.25154096000E+02  0.50439859277E+03 -0.66990649860E+03  0.83894301701E+03  0.00000000000E+00 0.  1.
<mgrwt>
<rscale>  0 0.24242279E+04</rscale>
<asrwt>0</asrwt>
<pdfrwt beam="1">  1        1 0.16711908E+00 0.24242279E+04</pdfrwt>
<pdfrwt beam="2">  1       -2 0.20808183E+00 0.24242279E+04</pdfrwt>
<totfact> 0.11999231E+00</totfact>
</mgrwt>
</event>
<event>
12    5  0.5197392E-008  0.1890047E+04  0.7818608E-02  0.8659827E-01
         -2   -1    0    0    0  501 -0.00000000000E+00  0.00000000000E+00  0.10673492504E+04  0.10673492504E+04  0.00000000000E+00 0.  1.
          1   -1    0    0  501    0  0.00000000000E+00 -0.00000000000E+00 -0.83671672671E+03  0.83671672671E+03  0.00000000000E+00 0. -1.
        -24    2    1    2    0    0 -0.48161361585E+03 -0.26796844518E+03 -0.39135887106E+03  0.68048613187E+03  0.78363557322E+02 0.  0.
        254    2    1    2    0    0  0.48161361585E+03  0.26796844518E+03  0.62199139472E+03  0.12235798452E+04  0.89806212475E+03 0.  0.
         23    2    4    4    0    0 -0.78220407762E+02 -0.80831421649E+02  0.53228809402E+03  0.55161512226E+03  0.91084999628E+02 0.  0.
         23    2    4    4    0    0  0.55983402361E+03  0.34879986683E+03  0.89703300705E+02  0.67196472295E+03  0.91730178468E+02 0.  0.
          3    1    3    3  502    0 -0.25728317941E+03 -0.10749049695E+03 -0.16770280599E+03  0.32538142614E+03  0.00000000000E+00 0. -1.
         -4    1    3    3    0  502 -0.22433043644E+03 -0.16047794823E+03 -0.22365606508E+03  0.35510470573E+03  0.00000000000E+00 0.  1.
         13    1    5    5    0    0 -0.97114386898E+02 -0.55545175627E+02  0.44311508251E+03  0.45702018230E+03  0.00000000000E+00 0. -1.
        -13    1    5    5    0    0  0.18893979137E+02 -0.25286246022E+02  0.89173011507E+02  0.94594939964E+02  0.00000000000E+00 0.  1.
          3    1    6    6  503    0  0.31005499384E+03  0.23470718836E+03  0.24006261420E+02  0.38961245367E+03  0.00000000000E+00 0. -1.
         -3    1    6    6    0  503  0.24977902978E+03  0.11409267847E+03  0.65697039285E+02  0.28235226928E+03  0.00000000000E+00 0.  1.
<mgrwt>
<rscale>  0 0.18900465E+04</rscale>
<asrwt>0</asrwt>
<pdfrwt beam="1">  1        1 0.12872565E+00 0.18900465E+04</pdfrwt>
<pdfrwt beam="2">  1       -2 0.16420758E+00 0.18900465E+04</pdfrwt>
<totfact> 0.39550221E+00</totfact>
</mgrwt>
</event>
<event>
12    5  0.5197392E-008  0.1913269E+04  0.7818608E-02  0.8648280E-01
          1   -1    0    0  501    0  0.00000000000E+00  0.00000000000E+00  0.21115280227E+04  0.21115280227E+04  0.00000000000E+00 0. -1.
         -2   -1    0    0    0  501 -0.00000000000E+00 -0.00000000000E+00 -0.43340636070E+03  0.43340636070E+03  0.00000000000E+00 0.  1.
        -24    2    1    2    0    0  0.64795242082E+03  0.34434949751E+03  0.52944042629E+03  0.90834985124E+03  0.79833396401E+02 0.  0.
        254    2    1    2    0    0 -0.64795242082E+03 -0.34434949751E+03  0.11486812357E+04  0.16365845321E+04  0.90582638155E+03 0.  0.
         23    2    4    4    0    0 -0.66928190390E+03  0.12203883445E+03  0.73912049209E+03  0.10085661459E+04  0.89860028621E+02 0.  0.
         23    2    4    4    0    0  0.21329483079E+02 -0.46638833196E+03  0.40956074360E+03  0.62801838627E+03  0.93241984997E+02 0.  0.
          3    1    3    3  502    0  0.32959743603E+03  0.19360477461E+03  0.32023608872E+03  0.49866665329E+03  0.00000000000E+00 0. -1.
         -4    1    3    3    0  502  0.31835498479E+03  0.15074472290E+03  0.20920433757E+03  0.40968319795E+03  0.00000000000E+00 0.  1.
         13    1    5    5    0    0 -0.63429073326E+03  0.10629268126E+03  0.66510590149E+03  0.92519658916E+03  0.00000000000E+00 0.  1.
        -13    1    5    5    0    0 -0.34991170641E+02  0.15746153195E+02  0.74014590605E+02  0.83369556708E+02  0.00000000000E+00 0. -1.
          4    1    6    6  503    0  0.14786218226E+02 -0.69291852798E+01  0.18059726008E+02  0.24347475466E+02  0.00000000000E+00 0. -1.
         -4    1    6    6    0  503  0.65432648521E+01 -0.45945914668E+03  0.39150101759E+03  0.60367091081E+03  0.00000000000E+00 0.  1.
<mgrwt>
<rscale>  0 0.19132691E+04</rscale>
<asrwt>0</asrwt>
<pdfrwt beam="1">  1        1 0.32485046E+00 0.19132691E+04</pdfrwt>
<pdfrwt beam="2">  1       -2 0.66677903E-01 0.19132691E+04</pdfrwt>
<totfact> 0.42451041E+00</totfact>
</mgrwt>
</event>
<event>
12    5  0.5197392E-008  0.4536513E+04  0.7818608E-02  0.7904275E-01
         -2   -1    0    0    0  501 -0.00000000000E+00  0.00000000000E+00  0.18256868524E+04  0.18256868524E+04  0.00000000000E+00 0.  1.
          1   -1    0    0  501    0  0.00000000000E+00 -0.00000000000E+00 -0.28181105691E+04  0.28181105691E+04  0.00000000000E+00 0. -1.
        -24    2    1    2    0    0 -0.10785013108E+04  0.16876665789E+04 -0.13510674957E+04  0.24171884440E+04  0.77672627053E+02 0.  0.
        254    2    1    2    0    0  0.10785013108E+04 -0.16876665789E+04  0.35864377895E+03  0.22266089775E+04  0.90431113003E+03 0.  0.
         23    2    4    4    0    0  0.11320689711E+04 -0.16890439804E+04  0.21242267290E+03  0.20464487708E+04  0.91539371953E+02 0.  0.
         23    2    4    4    0    0 -0.53567660335E+02  0.13774015016E+01  0.14622110606E+03  0.18016020673E+03  0.90585301032E+02 0.  0.
          1    1    3    3  502    0 -0.92764498095E+03  0.14083727120E+04 -0.11563408009E+04  0.20447892200E+04  0.00000000000E+00 0. -1.
         -2    1    3    3    0  502 -0.15085632981E+03  0.27929386686E+03 -0.19472669482E+03  0.37239922393E+03  0.00000000000E+00 0.  1.
         13    1    5    5    0    0  0.78695652501E+03 -0.11840448127E+04  0.10658880505E+03  0.14257011833E+04  0.00000000000E+00 0. -1.
        -13    1    5    5    0    0  0.34511244608E+03 -0.50499916763E+03  0.10583386784E+03  0.62074758745E+03  0.00000000000E+00 0.  1.
          1    1    6    6  503    0 -0.20285755706E+01 -0.32233587690E+02  0.94210882021E+02  0.99593220579E+02  0.00000000000E+00 0. -1.
         -1    1    6    6    0  503 -0.51539084764E+02  0.33610989192E+02  0.52010224036E+02  0.80566986148E+02  0.00000000000E+00 0.  1.
<mgrwt>
<rscale>  0 0.45365129E+04</rscale>
<asrwt>0</asrwt>
<pdfrwt beam="1">  1        1 0.43355547E+00 0.45365129E+04</pdfrwt>
<pdfrwt beam="2">  1       -2 0.28087490E+00 0.45365129E+04</pdfrwt>
<totfact> 0.22182728E-02</totfact>
</mgrwt>
</event>
<event>
12    5  0.5197392E-008  0.1651461E+04  0.7818608E-02  0.8789543E-01
         -2   -1    0    0    0  501 -0.00000000000E+00  0.00000000000E+00  0.49764709738E+03  0.49764709738E+03  0.00000000000E+00 0.  1.
          1   -1    0    0  501    0  0.00000000000E+00 -0.00000000000E+00 -0.13701090322E+04  0.13701090322E+04  0.00000000000E+00 0. -1.
        -24    2    1    2    0    0 -0.19688178913E+03  0.91817205029E+02 -0.91083736489E+03  0.93810976578E+03  0.56854105738E+02 0.  0.
        254    2    1    2    0    0  0.19688178913E+03 -0.91817205029E+02  0.38375430038E+02  0.92964636383E+03  0.90309293548E+03 0.  0.
         23    2    4    4    0    0  0.31968152033E+03 -0.39872508240E+03  0.19204073034E+03  0.55402304018E+03  0.94254555137E+02 0.  0.
         23    2    4    4    0    0 -0.12279973121E+03  0.30690787737E+03 -0.15366530031E+03  0.37562332364E+03  0.90596012977E+02 0.  0.
          3    1    3    3  502    0 -0.69278667357E+02  0.60402387195E+02 -0.42399858818E+03  0.43384649925E+03  0.00000000000E+00 0. -1.
         -4    1    3    3    0  502 -0.12760312177E+03  0.31414817834E+02 -0.48683877671E+03  0.50426326653E+03  0.00000000000E+00 0.  1.
         13    1    5    5    0    0  0.29480439665E+01 -0.42314193974E+02  0.95217009002E+01  0.43472344806E+02  0.00000000000E+00 0. -1.
        -13    1    5    5    0    0  0.31673347637E+03 -0.35641088843E+03  0.18251902944E+03  0.51055069538E+03  0.00000000000E+00 0.  1.
          1    1    6    6  503    0 -0.17595787239E+02  0.15924118927E+03 -0.56234306772E+02  0.16979300735E+03  0.00000000000E+00 0. -1.
         -1    1    6    6    0  503 -0.10520394397E+03  0.14766668811E+03 -0.97430993534E+02  0.20583031629E+03  0.00000000000E+00 0.  1.
<mgrwt>
<rscale>  0 0.16514609E+04</rscale>
<asrwt>0</asrwt>
<pdfrwt beam="1">  1        1 0.21078600E+00 0.16514609E+04</pdfrwt>
<pdfrwt beam="2">  1       -2 0.76561095E-01 0.16514609E+04</pdfrwt>
<totfact> 0.10311566E+01</totfact>
</mgrwt>
</event>
<event>
12    5  0.5197392E-008  0.2092047E+04  0.7818608E-02  0.8564755E-01
          1   -1    0    0  501    0  0.00000000000E+00  0.00000000000E+00  0.18801148187E+04  0.18801148187E+04  0.00000000000E+00 0. -1.
         -2   -1    0    0    0  501 -0.00000000000E+00 -0.00000000000E+00 -0.58196728483E+03  0.58196728483E+03  0.00000000000E+00 0.  1.
        -24    2    1    2    0    0  0.37494953260E+03  0.50390475570E+02  0.14276089907E+04  0.14790437180E+04  0.79853223964E+02 0.  0.
        254    2    1    2    0    0 -0.37494953260E+03 -0.50390475570E+02 -0.12946145689E+03  0.98303838549E+03  0.89804111627E+03 0.  0.
         23    2    4    4    0    0  0.14210257492E+03 -0.31521264119E+03 -0.16498965853E+03  0.39376070974E+03  0.90960200929E+02 0.  0.
         23    2    4    4    0    0 -0.51705210751E+03  0.26482216562E+03  0.35528201638E+02  0.58927767574E+03  0.92261935431E+02 0.  0.
          1    1    3    3  502    0  0.35244288392E+03  0.26561123038E+02  0.12855001798E+04  0.13332037324E+04  0.00000000000E+00 0. -1.
         -4    1    3    3    0  502  0.22506648680E+02  0.23829352532E+02  0.14210881089E+03  0.14583998564E+03  0.00000000000E+00 0.  1.
         13    1    5    5    0    0  0.11882733767E+03 -0.15631380233E+03 -0.10189966454E+03  0.22121817875E+03  0.00000000000E+00 0.  1.
        -13    1    5    5    0    0  0.23275237246E+02 -0.15889883886E+03 -0.63089993991E+02  0.17254253100E+03  0.00000000000E+00 0. -1.
          2    1    6    6  503    0 -0.28201063200E+03  0.19551803981E+03  0.20005055444E+02  0.34374045833E+03  0.00000000000E+00 0. -1.
         -2    1    6    6    0  503 -0.23504147552E+03  0.69304125816E+02  0.15523146194E+02  0.24553721742E+03  0.00000000000E+00 0.  1.
<mgrwt>
<rscale>  0 0.20920471E+04</rscale>
<asrwt>0</asrwt>
<pdfrwt beam="1">  1        1 0.28924843E+00 0.20920471E+04</pdfrwt>
<pdfrwt beam="2">  1       -2 0.89533430E-01 0.20920471E+04</pdfrwt>
<totfact> 0.31068309E+00</totfact>
</mgrwt>
</event>
<event>
12    5  0.5197392E-008  0.1673554E+04  0.7818608E-02  0.8776593E-01
          1   -1    0    0  501    0  0.00000000000E+00  0.00000000000E+00  0.32015679377E+04  0.32015679377E+04  0.00000000000E+00 0. -1.
         -2   -1    0    0    0  501 -0.00000000000E+00 -0.00000000000E+00 -0.21870405545E+03  0.21870405545E+03  0.00000000000E+00 0.  1.
        -24    2    1    2    0    0  0.21973498058E+03  0.54955856839E+03  0.99352489744E+03  0.11589607450E+04  0.76159075767E+02 0.  0.
        254    2    1    2    0    0 -0.21973498058E+03 -0.54955856839E+03  0.19893389848E+04  0.22613112482E+04  0.89764184548E+03 0.  0.
         23    2    4    4    0    0 -0.38423508311E+03 -0.69866691878E+03  0.17401468401E+04  0.19163489512E+04  0.92250827411E+02 0.  0.
         23    2    4    4    0    0  0.16450010253E+03  0.14910835039E+03  0.24919214477E+03  0.34496229701E+03  0.87227733298E+02 0.  0.
          3    1    3    3  502    0  0.16426432672E+03  0.47042935901E+03  0.86355041820E+03  0.99699843311E+03  0.00000000000E+00 0. -1.
         -4    1    3    3    0  502  0.55470653860E+02  0.79129209385E+02  0.12997447924E+03  0.16196231188E+03  0.00000000000E+00 0.  1.
         13    1    5    5    0    0 -0.99878161357E+02 -0.26629446639E+03  0.57764294783E+03  0.64386315714E+03  0.00000000000E+00 0. -1.
        -13    1    5    5    0    0 -0.28435692175E+03 -0.43237245239E+03  0.11625038922E+04  0.12724857940E+04  0.00000000000E+00 0.  1.
          4    1    6    6  503    0  0.11289248669E+03  0.14852170842E+03  0.18700659674E+03  0.26414934913E+03  0.00000000000E+00 0. -1.
         -4    1    6    6    0  503  0.51607615837E+02  0.58664197366E+00  0.62185548031E+02  0.80812947881E+02  0.00000000000E+00 0.  1.
<mgrwt>
<rscale>  0 0.16735542E+04</rscale>
<asrwt>0</asrwt>
<pdfrwt beam="1">  1        1 0.49254888E+00 0.16735542E+04</pdfrwt>
<pdfrwt beam="2">  1       -2 0.33646780E-01 0.16735542E+04</pdfrwt>
<totfact> 0.29498700E+00</totfact>
</mgrwt>
</event>
<event>
12    5  0.5197392E-008  0.1715451E+04  0.7818608E-02  0.8752601E-01
         -2   -1    0    0    0  501 -0.00000000000E+00  0.00000000000E+00  0.23019617780E+03  0.23019617780E+03  0.00000000000E+00 0.  1.
          1   -1    0    0  501    0  0.00000000000E+00 -0.00000000000E+00 -0.31959380782E+04  0.31959380782E+04  0.00000000000E+00 0. -1.
        -24    2    1    2    0    0  0.85100371222E+02  0.61452024727E+03 -0.94965992044E+03  0.11371173102E+04  0.79401543364E+02 0.  0.
        254    2    1    2    0    0 -0.85100371222E+02 -0.61452024727E+03 -0.20160819800E+04  0.22890169459E+04  0.88889528119E+03 0.  0.
         23    2    4    4    0    0 -0.34583140446E+03 -0.55045176685E+03 -0.18451885559E+04  0.19584815723E+04  0.91283921801E+02 0.  0.
         23    2    4    4    0    0  0.26073103323E+03 -0.64068480420E+02 -0.17089342412E+03  0.33053537357E+03  0.89239166832E+02 0.  0.
          1    1    3    3  502    0  0.36152520118E+02  0.77377443317E+02 -0.14866025116E+03  0.17144720388E+03  0.00000000000E+00 0. -1.
         -2    1    3    3    0  502  0.48947851104E+02  0.53714280395E+03 -0.80099966929E+03  0.96567010628E+03  0.00000000000E+00 0.  1.
         13    1    5    5    0    0 -0.32977047544E+03 -0.54728495204E+03 -0.17779561375E+04  0.18892848943E+04  0.00000000000E+00 0. -1.
        -13    1    5    5    0    0 -0.16060929011E+02 -0.31668148095E+01 -0.67232418410E+02  0.69196677969E+02  0.00000000000E+00 0.  1.
          2    1    6    6  503    0  0.14617966200E+03 -0.81012301466E+02 -0.10187283658E+03  0.19572828463E+03  0.00000000000E+00 0. -1.
         -2    1    6    6    0  503  0.11455137124E+03  0.16943821046E+02 -0.69020587538E+02  0.13480708894E+03  0.00000000000E+00 0.  1.
<mgrwt>
<rscale>  0 0.17154506E+04</rscale>
<asrwt>0</asrwt>
<pdfrwt beam="1">  1        1 0.49168277E+00 0.17154506E+04</pdfrwt>
<pdfrwt beam="2">  1       -2 0.35414797E-01 0.17154506E+04</pdfrwt>
<totfact> 0.26901935E+00</totfact>
</mgrwt>
</event>
<event>
12    5  0.5197392E-008  0.1497180E+04  0.7818608E-02  0.8886331E-01
          1   -1    0    0  501    0  0.00000000000E+00  0.00000000000E+00  0.10895154491E+04  0.10895154491E+04  0.00000000000E+00 0. -1.
         -2   -1    0    0    0  501 -0.00000000000E+00 -0.00000000000E+00 -0.51434486291E+03  0.51434486291E+03  0.00000000000E+00 0.  1.
        -24    2    1    2    0    0  0.18030322395E+03  0.19324749726E+03 -0.23622305865E+03  0.36400413934E+03  0.82727457672E+02 0.  0.
        254    2    1    2    0    0 -0.18030322395E+03 -0.19324749726E+03  0.81139364479E+03  0.12398561726E+04  0.89946085752E+03 0.  0.
         23    2    4    4    0    0  0.28133904836E+03 -0.33413806812E+03  0.39691431957E+03  0.59693156856E+03  0.89366726310E+02 0.  0.
         23    2    4    4    0    0 -0.46164227231E+03  0.14089057086E+03  0.41447932523E+03  0.64292460406E+03  0.92710274108E+02 0.  0.
          3    1    3    3  502    0  0.20017784481E+02  0.21072976214E+02  0.21000406273E+01  0.29140902400E+02  0.00000000000E+00 0. -1.
         -4    1    3    3    0  502  0.16028543947E+03  0.17217452104E+03 -0.23832309928E+03  0.33486323694E+03  0.00000000000E+00 0.  1.
         13    1    5    5    0    0  0.67873654595E+02 -0.10030398608E+03  0.16400616283E+03  0.20387678646E+03  0.00000000000E+00 0.  1.
        -13    1    5    5    0    0  0.21346539376E+03 -0.23383408204E+03  0.23290815674E+03  0.39305478210E+03  0.00000000000E+00 0. -1.
          4    1    6    6  503    0 -0.36831934168E+03  0.95429930184E+02  0.27688728436E+03  0.47056623048E+03  0.00000000000E+00 0. -1.
         -4    1    6    6    0  503 -0.93322930626E+02  0.45460640677E+02  0.13759204087E+03  0.17235837358E+03  0.00000000000E+00 0.  1.
<mgrwt>
<rscale>  0 0.14971796E+04</rscale>
<asrwt>0</asrwt>
<pdfrwt beam="1">  1        1 0.16761776E+00 0.14971796E+04</pdfrwt>
<pdfrwt beam="2">  1       -2 0.79129979E-01 0.14971796E+04</pdfrwt>
<totfact> 0.15520424E+01</totfact>
</mgrwt>
</event>
<event>
12    5  0.5197392E-008  0.1887615E+04  0.7818608E-02  0.8661046E-01
          1   -1    0    0  501    0  0.00000000000E+00  0.00000000000E+00  0.11206611466E+04  0.11206611466E+04  0.00000000000E+00 0. -1.
         -2   -1    0    0    0  501 -0.00000000000E+00 -0.00000000000E+00 -0.79486335032E+03  0.79486335032E+03  0.00000000000E+00 0.  1.
        -24    2    1    2    0    0 -0.55783591227E+03  0.15115246839E+03  0.57645206384E+03  0.82020871892E+03  0.80108594868E+02 0.  0.
        254    2    1    2    0    0  0.55783591227E+03 -0.15115246839E+03 -0.25065426755E+03  0.10953157780E+04  0.89602517711E+03 0.  0.
         23    2    4    4    0    0  0.35186800371E+03 -0.49893245823E+03 -0.28153940135E+03  0.67870468139E+03  0.92902745493E+02 0.  0.
         23    2    4    4    0    0  0.20596790855E+03  0.34777998984E+03  0.30885133798E+02  0.41661109662E+03  0.96110424295E+02 0.  0.
          3    1    3    3  502    0 -0.41179967961E+03  0.89367484592E+02  0.45744471683E+03  0.62194950951E+03  0.00000000000E+00 0. -1.
         -4    1    3    3    0  502 -0.14603623266E+03  0.61784983798E+02  0.11900734700E+03  0.19825920940E+03  0.00000000000E+00 0.  1.
         13    1    5    5    0    0  0.14853477403E+03 -0.13529116196E+03 -0.93736374801E+02  0.22170427502E+03  0.00000000000E+00 0.  1.
        -13    1    5    5    0    0  0.20333322969E+03 -0.36364129627E+03 -0.18780302655E+03  0.45700040637E+03  0.00000000000E+00 0. -1.
          2    1    6    6  503    0  0.20440871120E+03  0.30619385016E+03  0.48664769598E+02  0.37135677574E+03  0.00000000000E+00 0. -1.
         -2    1    6    6    0  503  0.15591973566E+01  0.41586139680E+02 -0.17779635800E+02  0.45254320888E+02  0.00000000000E+00 0.  1.
<mgrwt>
<rscale>  0 0.18876149E+04</rscale>
<asrwt>0</asrwt>
<pdfrwt beam="1">  1        1 0.17240941E+00 0.18876149E+04</pdfrwt>
<pdfrwt beam="2">  1       -2 0.12228667E+00 0.18876149E+04</pdfrwt>
<totfact> 0.50902749E+00</totfact>
</mgrwt>
</event>
<event>
12    5  0.5197392E-008  0.1272341E+04  0.7818608E-02  0.9051791E-01
         -2   -1    0    0    0  501 -0.00000000000E+00  0.00000000000E+00  0.21740484488E+03  0.21740484488E+03  0.00000000000E+00 0.  1.
          1   -1    0    0  501    0  0.00000000000E+00 -0.00000000000E+00 -0.18615629206E+04  0.18615629206E+04  0.00000000000E+00 0. -1.
        -24    2    1    2    0    0 -0.75356924983E+02 -0.14839978836E+03  0.24876462706E+02  0.18695288388E+03  0.81433279835E+02 0.  0.
        254    2    1    2    0    0  0.75356924983E+02  0.14839978836E+03 -0.16690345384E+04  0.18920148816E+04  0.87541010872E+03 0.  0.
         23    2    4    4    0    0  0.13409373580E+03 -0.14719448138E+02 -0.16875158171E+04  0.16953082041E+04  0.90346453697E+02 0.  0.
         23    2    4    4    0    0 -0.58736810815E+02  0.16311923650E+03  0.18481278680E+02  0.19670667753E+03  0.91071735817E+02 0.  0.
          1    1    3    3  502    0 -0.46065975766E+02 -0.15121848481E+02  0.15092202675E+01  0.48507959868E+02  0.00000000000E+00 0. -1.
         -2    1    3    3    0  502 -0.29290949217E+02 -0.13327793988E+03  0.23367242438E+02  0.13844492401E+03  0.00000000000E+00 0.  1.
         13    1    5    5    0    0 -0.12196291562E+02 -0.34395779075E+01 -0.68880589895E+02  0.70036532526E+02  0.00000000000E+00 0. -1.
        -13    1    5    5    0    0  0.14629002736E+03 -0.11279870231E+02 -0.16186352272E+04  0.16252716715E+04  0.00000000000E+00 0.  1.
          3    1    6    6  503    0 -0.17674790513E+01  0.66441367563E+01  0.29046128988E+02  0.29848720988E+02  0.00000000000E+00 0. -1.
         -3    1    6    6    0  503 -0.56969331764E+02  0.15647509974E+03 -0.10564850309E+02  0.16685795655E+03  0.00000000000E+00 0.  1.
<mgrwt>
<rscale>  0 0.12723408E+04</rscale>
<asrwt>0</asrwt>
<pdfrwt beam="1">  1        1 0.28639429E+00 0.12723408E+04</pdfrwt>
<pdfrwt beam="2">  1       -2 0.33446900E-01 0.12723408E+04</pdfrwt>
<totfact> 0.26732858E+01</totfact>
</mgrwt>
</event>
<event>
12    5  0.5197392E-008  0.1794049E+04  0.7818608E-02  0.8709470E-01
         -2   -1    0    0    0  501 -0.00000000000E+00  0.00000000000E+00  0.50545774036E+03  0.50545774036E+03  0.00000000000E+00 0.  1.
          1   -1    0    0  501    0  0.00000000000E+00 -0.00000000000E+00 -0.15919295687E+04  0.15919295687E+04  0.00000000000E+00 0. -1.
        -24    2    1    2    0    0  0.36218925017E+03  0.55946519307E+03 -0.43375113441E+03  0.79940373975E+03  0.81999617889E+02 0.  0.
        254    2    1    2    0    0 -0.36218925017E+03 -0.55946519307E+03 -0.65272069389E+03  0.12979835693E+04  0.90251575425E+03 0.  0.
         23    2    4    4    0    0  0.23883400219E+03 -0.38287455837E+03 -0.41860313374E+03  0.62165457279E+03  0.87127585988E+02 0.  0.
         23    2    4    4    0    0 -0.60102325236E+03 -0.17659063470E+03 -0.23411756015E+03  0.67632899648E+03  0.10097859859E+03 0.  0.
          3    1    3    3  502    0  0.11522939002E+03  0.23106665596E+03 -0.20058731042E+03  0.32696311860E+03  0.00000000000E+00 0. -1.
         -4    1    3    3    0  502  0.24695986015E+03  0.32839853710E+03 -0.23316382399E+03  0.47244062115E+03  0.00000000000E+00 0.  1.
         13    1    5    5    0    0  0.21368354091E+03 -0.27625869746E+03 -0.33387406419E+03  0.48316810151E+03  0.00000000000E+00 0. -1.
        -13    1    5    5    0    0  0.25150461283E+02 -0.10661586091E+03 -0.84729069558E+02  0.13848647128E+03  0.00000000000E+00 0.  1.
          1    1    6    6  503    0 -0.38453612051E+03 -0.67610678145E+02 -0.16843022442E+03  0.42521520701E+03  0.00000000000E+00 0. -1.
         -1    1    6    6    0  503 -0.21648713185E+03 -0.10897995655E+03 -0.65687335727E+02  0.25111378947E+03  0.00000000000E+00 0.  1.
<mgrwt>
<rscale>  0 0.17940492E+04</rscale>
<asrwt>0</asrwt>
<pdfrwt beam="1">  1        1 0.24491224E+00 0.17940492E+04</pdfrwt>
<pdfrwt beam="2">  1       -2 0.77762731E-01 0.17940492E+04</pdfrwt>
<totfact> 0.68988756E+00</totfact>
</mgrwt>
</event>
<event>
12    5  0.5197392E-008  0.1105220E+04  0.7818608E-02  0.9200119E-01
          1   -1    0    0  501    0  0.00000000000E+00  0.00000000000E+00  0.17447381180E+04  0.17447381180E+04  0.00000000000E+00 0. -1.
         -2   -1    0    0    0  501 -0.00000000000E+00 -0.00000000000E+00 -0.17502784590E+03  0.17502784590E+03  0.00000000000E+00 0.  1.
        -24    2    1    2    0    0  0.13726030833E+03  0.78002976415E+02  0.46503032718E+03  0.49791344137E+03  0.82095878866E+02 0.  0.
        254    2    1    2    0    0 -0.13726030833E+03 -0.78002976415E+02  0.11046799449E+04  0.14218525225E+04  0.88114809116E+03 0.  0.
         23    2    4    4    0    0  0.54704559891E+02 -0.38536954775E+03  0.20769103188E+03  0.45018727530E+03  0.89614401253E+02 0.  0.
         23    2    4    4    0    0 -0.19196486822E+03  0.30736657133E+03  0.89698891303E+03  0.97166524722E+03  0.90661583703E+02 0.  0.
          1    1    3    3  502    0  0.13073060504E+03  0.58886729974E+02  0.45119506333E+03  0.47342911109E+03  0.00000000000E+00 0. -1.
         -2    1    3    3    0  502  0.65297032957E+01  0.19116246441E+02  0.13835263849E+02  0.24484330272E+02  0.00000000000E+00 0.  1.
         13    1    5    5    0    0  0.10425989383E+02 -0.75172895288E+02  0.84292837993E+02  0.11342375403E+03  0.00000000000E+00 0.  1.
        -13    1    5    5    0    0  0.44278570508E+02 -0.31019665246E+03  0.12339819388E+03  0.33676352127E+03  0.00000000000E+00 0. -1.
          1    1    6    6  503    0 -0.73527004968E+02  0.14052535237E+03  0.50750304541E+03  0.53170756644E+03  0.00000000000E+00 0. -1.
         -1    1    6    6    0  503 -0.11843786326E+03  0.16684121897E+03  0.38948586762E+03  0.43995768078E+03  0.00000000000E+00 0.  1.
<mgrwt>
<rscale>  0 0.11052199E+04</rscale>
<asrwt>0</asrwt>
<pdfrwt beam="1">  1        1 0.26842124E+00 0.11052199E+04</pdfrwt>
<pdfrwt beam="2">  1       -2 0.26927362E-01 0.11052199E+04</pdfrwt>
<totfact> 0.48704658E+01</totfact>
</mgrwt>
</event>
<event>
12    5  0.5197392E-008  0.1716266E+04  0.7818608E-02  0.8752141E-01
         -2   -1    0    0    0  501 -0.00000000000E+00  0.00000000000E+00  0.27622223666E+03  0.27622223666E+03  0.00000000000E+00 0.  1.
          1   -1    0    0  501    0  0.00000000000E+00 -0.00000000000E+00 -0.26659416256E+04  0.26659416256E+04  0.00000000000E+00 0. -1.
        -24    2    1    2    0    0  0.58525074134E+03 -0.12854011962E+03 -0.58392873774E+03  0.84042802638E+03  0.79407204797E+02 0.  0.
        254    2    1    2    0    0 -0.58525074134E+03  0.12854011962E+03 -0.18057906512E+04  0.21017358359E+04  0.89295725278E+03 0.  0.
         23    2    4    4    0    0 -0.73851620694E+03 -0.48507382705E+02 -0.93456248296E+03  0.11955934274E+04  0.90980520096E+02 0.  0.
         23    2    4    4    0    0  0.15326546560E+03  0.17704750233E+03 -0.87122816825E+03  0.90614240847E+03  0.84967183425E+02 0.  0.
          1    1    3    3  502    0  0.96439978924E+02 -0.39017488172E+02 -0.13740377308E+03  0.17234509211E+03  0.00000000000E+00 0. -1.
         -2    1    3    3    0  502  0.48881076242E+03 -0.89522631448E+02 -0.44652496466E+03  0.66808293427E+03  0.00000000000E+00 0.  1.
         13    1    5    5    0    0 -0.58221179761E+03 -0.46340917599E+02 -0.79172583244E+03  0.98384340811E+03  0.00000000000E+00 0.  1.
        -13    1    5    5    0    0 -0.15630440933E+03 -0.21664651067E+01 -0.14283665052E+03  0.21175001931E+03  0.00000000000E+00 0. -1.
          3    1    6    6  503    0 -0.24336372804E+00  0.11002524418E+02 -0.75368363026E+01  0.13338615780E+02  0.00000000000E+00 0. -1.
         -3    1    6    6    0  503  0.15350882933E+03  0.16604497791E+03 -0.86369133195E+03  0.89280379269E+03  0.00000000000E+00 0.  1.
<mgrwt>
<rscale>  0 0.17162661E+04</rscale>
<asrwt>0</asrwt>
<pdfrwt beam="1">  1        1 0.41014486E+00 0.17162661E+04</pdfrwt>
<pdfrwt beam="2">  1       -2 0.42495730E-01 0.17162661E+04</pdfrwt>
<totfact> 0.45534452E+00</totfact>
</mgrwt>
</event>
<event>
12    5  0.5197392E-008  0.1443166E+04  0.7818608E-02  0.8923152E-01
          1   -1    0    0  501    0  0.00000000000E+00  0.00000000000E+00  0.10355117566E+04  0.10355117566E+04  0.00000000000E+00 0. -1.
         -2   -1    0    0    0  501 -0.00000000000E+00 -0.00000000000E+00 -0.50282605827E+03  0.50282605827E+03  0.00000000000E+00 0.  1.
        -24    2    1    2    0    0 -0.12767382188E+03  0.19716178368E+03 -0.22753619421E+03  0.33658264081E+03  0.79635297971E+02 0.  0.
        254    2    1    2    0    0  0.12767382188E+03 -0.19716178368E+03  0.76022189257E+03  0.12017551741E+04  0.90061356794E+03 0.  0.
         23    2    4    4    0    0 -0.14638328082E+03  0.28017292517E+03  0.46718584620E+03  0.57126174783E+03  0.90290845253E+02 0.  0.
         23    2    4    4    0    0  0.27405710270E+03 -0.47733470885E+03  0.29303604637E+03  0.63049342626E+03  0.93252969235E+02 0.  0.
          1    1    3    3  502    0 -0.20049346432E+02  0.11396591224E+02  0.91934892752E+00  0.23080376651E+02  0.00000000000E+00 0. -1.
         -2    1    3    3    0  502 -0.10762447544E+03  0.18576519246E+03 -0.22845554314E+03  0.31350226416E+03  0.00000000000E+00 0.  1.
         13    1    5    5    0    0 -0.13024938168E+03  0.25268272359E+03  0.45624368261E+03  0.53756093436E+03  0.00000000000E+00 0.  1.
        -13    1    5    5    0    0 -0.16133899140E+02  0.27490201579E+02  0.10942163596E+02  0.33700813469E+02  0.00000000000E+00 0. -1.
          4    1    6    6  503    0  0.22386754722E+03 -0.30229157380E+03  0.19794476598E+03  0.42506353015E+03  0.00000000000E+00 0.  1.
         -4    1    6    6    0  503  0.50189555481E+02 -0.17504313505E+03  0.95091280386E+02  0.20542989611E+03  0.00000000000E+00 0. -1.
<mgrwt>
<rscale>  0 0.14431664E+04</rscale>
<asrwt>0</asrwt>
<pdfrwt beam="1">  1        1 0.15930950E+00 0.14431664E+04</pdfrwt>
<pdfrwt beam="2">  1       -2 0.77357856E-01 0.14431664E+04</pdfrwt>
<totfact> 0.18031518E+01</totfact>
</mgrwt>
</event>
<event>
12    5  0.5197392E-008  0.2883413E+04  0.7818608E-02  0.8277830E-01
          1   -1    0    0  501    0  0.00000000000E+00  0.00000000000E+00  0.21344671865E+04  0.21344671865E+04  0.00000000000E+00 0. -1.
         -2   -1    0    0    0  501 -0.00000000000E+00 -0.00000000000E+00 -0.97378782524E+03  0.97378782524E+03  0.00000000000E+00 0.  1.
        -24    2    1    2    0    0  0.63408308321E+03 -0.45932609064E+03 -0.59364348767E+03  0.98581135757E+03  0.79809951199E+02 0.  0.
        254    2    1    2    0    0 -0.63408308321E+03  0.45932609064E+03  0.17543228489E+04  0.21224436541E+04  0.90226193139E+03 0.  0.
         23    2    4    4    0    0 -0.29821814118E+03  0.27894766407E+03  0.16699202137E+04  0.17215901432E+04  0.92158785921E+02 0.  0.
         23    2    4    4    0    0 -0.33586494203E+03  0.18037842657E+03  0.84402635143E+02  0.40085351094E+03  0.90653716727E+02 0.  0.
          1    1    3    3  502    0  0.41517407081E+03 -0.31478568028E+03 -0.34892438925E+03  0.62706280626E+03  0.00000000000E+00 0. -1.
         -2    1    3    3    0  502  0.21890901240E+03 -0.14454041037E+03 -0.24471909842E+03  0.35874855131E+03  0.00000000000E+00 0.  1.
         13    1    5    5    0    0 -0.19063806202E+03  0.13783498265E+03  0.10915489314E+04  0.11166111332E+04  0.00000000000E+00 0. -1.
        -13    1    5    5    0    0 -0.10758007916E+03  0.14111268142E+03  0.57837128235E+03  0.60497901000E+03  0.00000000000E+00 0.  1.
          1    1    6    6  503    0 -0.31847675566E+03  0.19069796516E+03  0.84190168033E+02  0.38063255537E+03  0.00000000000E+00 0. -1.
         -1    1    6    6    0  503 -0.17388186366E+02 -0.10319538591E+02  0.21246711040E+00  0.20220955568E+02  0.00000000000E+00 0.  1.
<mgrwt>
<rscale>  0 0.28834134E+04</rscale>
<asrwt>0</asrwt>
<pdfrwt beam="1">  1        1 0.32837957E+00 0.28834134E+04</pdfrwt>
<pdfrwt beam="2">  1       -2 0.14981351E+00 0.28834134E+04</pdfrwt>
<totfact> 0.54852210E-01</totfact>
</mgrwt>
</event>
<event>
12    5  0.5197392E-008  0.1542224E+04  0.7818608E-02  0.8856850E-01
         -2   -1    0    0    0  501 -0.00000000000E+00  0.00000000000E+00  0.10335689649E+04  0.10335689649E+04  0.00000000000E+00 0.  1.
          1   -1    0    0  501    0  0.00000000000E+00 -0.00000000000E+00 -0.57530145002E+03  0.57530145002E+03  0.00000000000E+00 0. -1.
        -24    2    1    2    0    0 -0.37522026681E+03  0.15390003414E+03 -0.16309891620E+03  0.44430279934E+03  0.79550310512E+02 0.  0.
        254    2    1    2    0    0  0.37522026681E+03 -0.15390003414E+03  0.62136643105E+03  0.11645676156E+04  0.89757786315E+03 0.  0.
         23    2    4    4    0    0  0.27062374208E+03 -0.34417210859E+03 -0.53514674370E+02  0.44995671801E+03  0.88913315074E+02 0.  0.
         23    2    4    4    0    0  0.10459652473E+03  0.19027207445E+03  0.67488110542E+03  0.71461089755E+03  0.89779358026E+02 0.  0.
          3    1    3    3  502    0 -0.15647086811E+03  0.80797827180E+02 -0.10998556822E+03  0.20762525536E+03  0.00000000000E+00 0. -1.
         -4    1    3    3    0  502 -0.21874939870E+03  0.73102206956E+02 -0.53113347982E+02  0.23667754398E+03  0.00000000000E+00 0.  1.
         13    1    5    5    0    0  0.34135476660E+02 -0.15958151757E+02  0.13256154830E+02  0.39945200152E+02  0.00000000000E+00 0. -1.
        -13    1    5    5    0    0  0.23648826542E+03 -0.32821395683E+03 -0.66770829200E+02  0.41001151785E+03  0.00000000000E+00 0.  1.
          3    1    6    6  503    0  0.32575539822E+01  0.30131581415E+02  0.21631851035E+03  0.21843127472E+03  0.00000000000E+00 0. -1.
         -3    1    6    6    0  503  0.10133897075E+03  0.16014049304E+03  0.45856259508E+03  0.49617962283E+03  0.00000000000E+00 0.  1.
<mgrwt>
<rscale>  0 0.15422240E+04</rscale>
<asrwt>0</asrwt>
<pdfrwt beam="1">  1        1 0.88507915E-01 0.15422240E+04</pdfrwt>
<pdfrwt beam="2">  1       -2 0.15901061E+00 0.15422240E+04</pdfrwt>
<totfact> 0.78568214E+00</totfact>
</mgrwt>
</event>
<event>
12    5  0.5197392E-008  0.2858537E+04  0.7818608E-02  0.8285322E-01
         -2   -1    0    0    0  501 -0.00000000000E+00  0.00000000000E+00  0.11116327075E+04  0.11116327075E+04  0.00000000000E+00 0.  1.
          1   -1    0    0  501    0  0.00000000000E+00 -0.00000000000E+00 -0.18376649627E+04  0.18376649627E+04  0.00000000000E+00 0. -1.
        -24    2    1    2    0    0  0.40497818695E+03 -0.14562133076E+03 -0.15742473150E+04  0.16340721545E+04  0.82001788523E+02 0.  0.
        254    2    1    2    0    0 -0.40497818695E+03  0.14562133076E+03  0.84821505991E+03  0.13152255157E+04  0.90837022484E+03 0.  0.
         23    2    4    4    0    0 -0.46870466655E+00 -0.31937781537E+03  0.11187569153E+03  0.35065156849E+03  0.91858279381E+02 0.  0.
         23    2    4    4    0    0 -0.40450948228E+03  0.46499914613E+03  0.73633936838E+03  0.96457394721E+03  0.91406274616E+02 0.  0.
          3    1    3    3  502    0  0.30485347267E+03 -0.93632957328E+02 -0.10294056019E+04  0.10776727999E+04  0.00000000000E+00 0. -1.
         -4    1    3    3    0  502  0.10012471428E+03 -0.51988373431E+02 -0.54484171314E+03  0.55639935456E+03  0.00000000000E+00 0.  1.
         13    1    5    5    0    0  0.16842559546E+02 -0.28709976604E+03  0.71923148099E+02  0.29645047934E+03  0.00000000000E+00 0.  1.
        -13    1    5    5    0    0 -0.17311264213E+02 -0.32278049333E+02  0.39952543432E+02  0.54201089141E+02  0.00000000000E+00 0. -1.
          3    1    6    6  503    0  0.28258224722E+01  0.17074114543E+02  0.15750302253E+02  0.23400484635E+02  0.00000000000E+00 0. -1.
         -3    1    6    6    0  503 -0.40733530475E+03  0.44792503159E+03  0.72058906613E+03  0.94117346257E+03  0.00000000000E+00 0.  1.
<mgrwt>
<rscale>  0 0.28585370E+04</rscale>
<asrwt>0</asrwt>
<pdfrwt beam="1">  1        1 0.28271768E+00 0.28585370E+04</pdfrwt>
<pdfrwt beam="2">  1       -2 0.17102042E+00 0.28585370E+04</pdfrwt>
<totfact> 0.60946480E-01</totfact>
</mgrwt>
</event>
<event>
12    5  0.5197392E-008  0.1410071E+04  0.7818608E-02  0.8946561E-01
          1   -1    0    0  501    0  0.00000000000E+00  0.00000000000E+00  0.62109782008E+03  0.62109782008E+03  0.00000000000E+00 0. -1.
         -2   -1    0    0    0  501 -0.00000000000E+00 -0.00000000000E+00 -0.80031699672E+03  0.80031699672E+03  0.00000000000E+00 0.  1.
        -24    2    1    2    0    0  0.24709409388E+03 -0.16012283401E+03  0.23528734692E+03  0.38516963815E+03  0.79376957174E+02 0.  0.
        254    2    1    2    0    0 -0.24709409388E+03  0.16012283401E+03 -0.41450652357E+03  0.10362451787E+04  0.90293609907E+03 0.  0.
         23    2    4    4    0    0  0.31615675546E+03 -0.66419945726E+02 -0.15049926335E+03  0.36783938483E+03  0.91044393258E+02 0.  0.
         23    2    4    4    0    0 -0.56325084934E+03  0.22654277973E+03 -0.26400726021E+03  0.66840579383E+03  0.92159217929E+02 0.  0.
          1    1    3    3  502    0  0.15387694566E+03 -0.11620077176E+03  0.19582915538E+03  0.27482683977E+03  0.00000000000E+00 0. -1.
         -2    1    3    3    0  502  0.93217148216E+02 -0.43922062250E+02  0.39458191547E+02  0.11034279838E+03  0.00000000000E+00 0.  1.
         13    1    5    5    0    0  0.28941441847E+02 -0.70828078366E+00 -0.47674316278E+02  0.55775883233E+02  0.00000000000E+00 0.  1.
        -13    1    5    5    0    0  0.28721531362E+03 -0.65711664942E+02 -0.10282494708E+03  0.31206350159E+03  0.00000000000E+00 0. -1.
          4    1    6    6  503    0 -0.28041624737E+03  0.64377296457E+02 -0.11300321409E+03  0.30910748047E+03  0.00000000000E+00 0. -1.
         -4    1    6    6    0  503 -0.28283460197E+03  0.16216548328E+03 -0.15100404612E+03  0.35929831336E+03  0.00000000000E+00 0.  1.
<mgrwt>
<rscale>  0 0.14100711E+04</rscale>
<asrwt>0</asrwt>
<pdfrwt beam="1">  1        1 0.95553511E-01 0.14100711E+04</pdfrwt>
<pdfrwt beam="2">  1       -2 0.12312569E+00 0.14100711E+04</pdfrwt>
<totfact> 0.13825735E+01</totfact>
</mgrwt>
</event>
<event>
12    5  0.5197392E-008  0.2015641E+04  0.7818608E-02  0.8599343E-01
         -2   -1    0    0    0  501 -0.00000000000E+00  0.00000000000E+00  0.10331018633E+04  0.10331018633E+04  0.00000000000E+00 0.  1.
          1   -1    0    0  501    0  0.00000000000E+00 -0.00000000000E+00 -0.98315798981E+03  0.98315798981E+03  0.00000000000E+00 0. -1.
        -24    2    1    2    0    0 -0.23214963113E+02  0.32237794903E+03  0.75529596070E+03  0.82542825726E+03  0.79958383547E+02 0.  0.
        254    2    1    2    0    0  0.23214963113E+02 -0.32237794903E+03 -0.70535208718E+03  0.11908315959E+04  0.90337801963E+03 0.  0.
         23    2    4    4    0    0 -0.14682309119E+03  0.27846240166E+03 -0.25731912229E+03  0.41682954811E+03  0.91844500333E+02 0.  0.
         23    2    4    4    0    0  0.17003805430E+03 -0.60084035068E+03 -0.44803296489E+03  0.77400204778E+03  0.91779983762E+02 0.  0.
          1    1    3    3  502    0 -0.39785119405E+02  0.10757713797E+03  0.21327358137E+03  0.24215969287E+03  0.00000000000E+00 0. -1.
         -2    1    3    3    0  502  0.16570156292E+02  0.21480081105E+03  0.54202237933E+03  0.58326856439E+03  0.00000000000E+00 0.  1.
         13    1    5    5    0    0 -0.13528425701E+03  0.27572059686E+03 -0.22031539524E+03  0.37797162738E+03  0.00000000000E+00 0. -1.
        -13    1    5    5    0    0 -0.11538834182E+02  0.27418047941E+01 -0.37003727047E+02  0.38857920727E+02  0.00000000000E+00 0.  1.
          1    1    6    6  503    0  0.18068983321E+03 -0.58075952197E+03 -0.42815964850E+03  0.74380852563E+03  0.00000000000E+00 0. -1.
         -1    1    6    6    0  503 -0.10651778914E+02 -0.20080828709E+02 -0.19873316392E+02  0.30193522154E+02  0.00000000000E+00 0.  1.
<mgrwt>
<rscale>  0 0.20156412E+04</rscale>
<asrwt>0</asrwt>
<pdfrwt beam="1">  1        1 0.15125508E+00 0.20156412E+04</pdfrwt>
<pdfrwt beam="2">  1       -2 0.15893875E+00 0.20156412E+04</pdfrwt>
<totfact> 0.32488927E+00</totfact>
</mgrwt>
</event>
<event>
12    5  0.5197392E-008  0.1833166E+04  0.7818608E-02  0.8688858E-01
         -2   -1    0    0    0  501 -0.00000000000E+00  0.00000000000E+00  0.11179699523E+04  0.11179699523E+04  0.00000000000E+00 0.  1.
          1   -1    0    0  501    0  0.00000000000E+00 -0.00000000000E+00 -0.75147343704E+03  0.75147343704E+03  0.00000000000E+00 0. -1.
        -24    2    1    2    0    0 -0.38117456406E+03 -0.26937131907E+03 -0.37940361291E+03  0.60674784077E+03  0.79629673833E+02 0.  0.
        254    2    1    2    0    0  0.38117456406E+03  0.26937131907E+03  0.74590012817E+03  0.12626955486E+04  0.90563684298E+03 0.  0.
         23    2    4    4    0    0  0.30613179878E+03 -0.22221008889E+03  0.35797865555E+02  0.39100179113E+03  0.92232920674E+02 0.  0.
         23    2    4    4    0    0  0.75042765286E+02  0.49158140796E+03  0.71010226262E+03  0.87169375745E+03  0.91219987535E+02 0.  0.
          1    1    3    3  502    0 -0.24444885074E+03 -0.20053321471E+03 -0.21644359406E+03  0.38316659593E+03  0.00000000000E+00 0. -1.
         -2    1    3    3    0  502 -0.13672571333E+03 -0.68838104363E+02 -0.16296001885E+03  0.22358124483E+03  0.00000000000E+00 0.  1.
         13    1    5    5    0    0  0.30994445046E+03 -0.20570376351E+03  0.30456666043E+02  0.37323880988E+03  0.00000000000E+00 0.  1.
        -13    1    5    5    0    0 -0.38126516846E+01 -0.16506325379E+02  0.53411995119E+01  0.17762981242E+02  0.00000000000E+00 0. -1.
          4    1    6    6  503    0 -0.19051925857E+02  0.64379135029E+02  0.11409275609E+03  0.13238128983E+03  0.00000000000E+00 0. -1.
         -4    1    6    6    0  503  0.94094691142E+02  0.42720227293E+03  0.59600950653E+03  0.73931246762E+03  0.00000000000E+00 0.  1.
<mgrwt>
<rscale>  0 0.18331664E+04</rscale>
<asrwt>0</asrwt>
<pdfrwt beam="1">  1        1 0.11561130E+00 0.18331664E+04</pdfrwt>
<pdfrwt beam="2">  1       -2 0.17199538E+00 0.18331664E+04</pdfrwt>
<totfact> 0.41493210E+00</totfact>
</mgrwt>
</event>
<event>
12    5  0.5197392E-008  0.1358303E+04  0.7818608E-02  0.8984566E-01
         -2   -1    0    0    0  501 -0.00000000000E+00  0.00000000000E+00  0.44160125379E+03  0.44160125379E+03  0.00000000000E+00 0.  1.
          1   -1    0    0  501    0  0.00000000000E+00 -0.00000000000E+00 -0.10444872313E+04  0.10444872313E+04  0.00000000000E+00 0. -1.
        -24    2    1    2    0    0  0.63349948939E+02  0.36993940007E+03 -0.22042942360E+03  0.44305566508E+03  0.82709224496E+02 0.  0.
        254    2    1    2    0    0 -0.63349948939E+02 -0.36993940007E+03 -0.38245655396E+03  0.10430328201E+04  0.89486092343E+03 0.  0.
         23    2    4    4    0    0  0.35152963219E+03 -0.14731529302E+02 -0.32403866790E+03  0.48622397830E+03  0.87307494060E+02 0.  0.
         23    2    4    4    0    0 -0.41487958112E+03 -0.35520787077E+03 -0.58417886054E+02  0.55680884175E+03  0.91245485086E+02 0.  0.
          3    1    3    3  502    0  0.80069412311E+02  0.26798051422E+03 -0.17692970657E+03  0.33095133760E+03  0.00000000000E+00 0. -1.
         -4    1    3    3    0  502 -0.16719463372E+02  0.10195888585E+03 -0.43499717030E+02  0.11210432748E+03  0.00000000000E+00 0.  1.
         13    1    5    5    0    0  0.33835255402E+03 -0.72964155795E+01 -0.32723099285E+03  0.47076088535E+03  0.00000000000E+00 0. -1.
        -13    1    5    5    0    0  0.13177078168E+02 -0.74351137228E+01  0.31923249493E+01  0.15463092954E+02  0.00000000000E+00 0.  1.
          3    1    6    6  503    0 -0.25304647412E+03 -0.19077059984E+03 -0.74479305262E+02  0.32553510831E+03  0.00000000000E+00 0. -1.
         -3    1    6    6    0  503 -0.16183310700E+03 -0.16443727093E+03  0.16061419208E+02  0.23127373344E+03  0.00000000000E+00 0.  1.
<mgrwt>
<rscale>  0 0.13583032E+04</rscale>
<asrwt>0</asrwt>
<pdfrwt beam="1">  1        1 0.16069034E+00 0.13583032E+04</pdfrwt>
<pdfrwt beam="2">  1       -2 0.67938654E-01 0.13583032E+04</pdfrwt>
<totfact> 0.23781515E+01</totfact>
</mgrwt>
</event>
<event>
12    5  0.5197392E-008  0.1933496E+04  0.7818608E-02  0.8638360E-01
          1   -1    0    0  501    0  0.00000000000E+00  0.00000000000E+00  0.12496744996E+04  0.12496744996E+04  0.00000000000E+00 0. -1.
         -2   -1    0    0    0  501 -0.00000000000E+00 -0.00000000000E+00 -0.74787636193E+03  0.74787636193E+03  0.00000000000E+00 0.  1.
        -24    2    1    2    0    0 -0.62403404475E+02  0.65084670487E+03  0.35182847260E+03  0.74675855706E+03  0.79808835801E+02 0.  0.
        254    2    1    2    0    0  0.62403404475E+02 -0.65084670487E+03  0.14996966504E+03  0.12507923044E+04  0.10556963912E+04 0.  0.
         23    2    4    4    0    0  0.35344060356E+03 -0.66603474790E+03 -0.20133264360E+03  0.78511645944E+03  0.85734916134E+02 0.  0.
         23    2    4    4    0    0 -0.29103719909E+03  0.15188043034E+02  0.35130230863E+03  0.46567584501E+03  0.92235311387E+02 0.  0.
          3    1    3    3  502    0 -0.49245376836E+02  0.63020181397E+03  0.34912769204E+03  0.72212850575E+03  0.00000000000E+00 0. -1.
         -4    1    3    3    0  502 -0.13158027638E+02  0.20644890901E+02  0.27007805648E+01  0.24630051306E+02  0.00000000000E+00 0.  1.
         13    1    5    5    0    0  0.16937417033E+03 -0.40683216835E+03 -0.10657186877E+03  0.45338458950E+03  0.00000000000E+00 0.  1.
        -13    1    5    5    0    0  0.18406643323E+03 -0.25920257955E+03 -0.94760774833E+02  0.33173186994E+03  0.00000000000E+00 0. -1.
          3    1    6    6  503    0 -0.11101310499E+03  0.21242239536E+02  0.74309774699E+02  0.13526671740E+03  0.00000000000E+00 0. -1.
         -3    1    6    6    0  503 -0.18002409410E+03 -0.60541965023E+01  0.27699253394E+03  0.33040912761E+03  0.00000000000E+00 0.  1.
<mgrwt>
<rscale>  0 0.19334963E+04</rscale>
<asrwt>0</asrwt>
<pdfrwt beam="1">  1        1 0.19225762E+00 0.19334963E+04</pdfrwt>
<pdfrwt beam="2">  1       -2 0.11505790E+00 0.19334963E+04</pdfrwt>
<totfact> 0.47392773E+00</totfact>
</mgrwt>
</event>
<event>
12    5  0.5197392E-008  0.1620309E+04  0.7818608E-02  0.8808168E-01
          1   -1    0    0  501    0  0.00000000000E+00  0.00000000000E+00  0.11059818221E+04  0.11059818221E+04  0.00000000000E+00 0. -1.
         -2   -1    0    0    0  501 -0.00000000000E+00 -0.00000000000E+00 -0.59345495181E+03  0.59345495181E+03  0.00000000000E+00 0.  1.
        -24    2    1    2    0    0 -0.41026480555E+03  0.22997728504E+03 -0.13819914341E+03  0.49579943983E+03  0.74238258285E+02 0.  0.
        254    2    1    2    0    0  0.41026480555E+03 -0.22997728504E+03  0.65072601368E+03  0.12036373341E+04  0.89671161739E+03 0.  0.
         23    2    4    4    0    0 -0.21153257611E+03  0.97271677939E+02  0.13441571406E+02  0.25011395890E+03  0.90379790366E+02 0.  0.
         23    2    4    4    0    0  0.62179738166E+03 -0.32724896298E+03  0.63728444227E+03  0.95352337516E+03  0.96703148887E+02 0.  0.
          1    1    3    3  502    0 -0.19830871854E+03  0.12043047209E+03 -0.30436375328E+02  0.23400046880E+03  0.00000000000E+00 0. -1.
         -2    1    3    3    0  502 -0.21195608701E+03  0.10954681295E+03 -0.10776276809E+03  0.26179897103E+03  0.00000000000E+00 0.  1.
         13    1    5    5    0    0 -0.18040335757E+03  0.42272781660E+02 -0.97761924307E+00  0.18529251261E+03  0.00000000000E+00 0.  1.
        -13    1    5    5    0    0 -0.31129218545E+02  0.54998896279E+02  0.14419190649E+02  0.64821446282E+02  0.00000000000E+00 0. -1.
          3    1    6    6  503    0  0.29363278381E+02 -0.37679243656E+02  0.63202806130E+02  0.79224505190E+02  0.00000000000E+00 0. -1.
         -3    1    6    6    0  503  0.59243410328E+03 -0.28956971932E+03  0.57408163614E+03  0.87429886997E+03  0.00000000000E+00 0.  1.
<mgrwt>
<rscale>  0 0.16203091E+04</rscale>
<asrwt>0</asrwt>
<pdfrwt beam="1">  1        1 0.17015105E+00 0.16203091E+04</pdfrwt>
<pdfrwt beam="2">  1       -2 0.91300762E-01 0.16203091E+04</pdfrwt>
<totfact> 0.10775643E+01</totfact>
</mgrwt>
</event>
<event>
12    5  0.5197392E-008  0.1671470E+04  0.7818608E-02  0.8777806E-01
          1   -1    0    0  501    0  0.00000000000E+00  0.00000000000E+00  0.79223757197E+03  0.79223757197E+03  0.00000000000E+00 0. -1.
         -2   -1    0    0    0  501 -0.00000000000E+00 -0.00000000000E+00 -0.88162021285E+03  0.88162021285E+03  0.00000000000E+00 0.  1.
        -24    2    1    2    0    0  0.52685991220E+03  0.13700413637E+03 -0.18366831552E+03  0.58010592796E+03  0.80233017242E+02 0.  0.
        254    2    1    2    0    0 -0.52685991220E+03 -0.13700413637E+03  0.94285674638E+02  0.10937518569E+04  0.94395542028E+03 0.  0.
         23    2    4    4    0    0  0.24832631943E+03  0.70775055506E+02 -0.31876456567E+02  0.27600617844E+03  0.92131605074E+02 0.  0.
         23    2    4    4    0    0 -0.77518623163E+03 -0.20777919188E+03  0.12616213120E+03  0.81774567842E+03  0.93301794912E+02 0.  0.
          1    1    3    3  502    0  0.32100308086E+01  0.35568480854E+00  0.58611710087E+01  0.66920949686E+01  0.00000000000E+00 0. -1.
         -2    1    3    3    0  502  0.52364988139E+03  0.13664845156E+03 -0.18952948653E+03  0.57341383299E+03  0.00000000000E+00 0.  1.
         13    1    5    5    0    0  0.29813949183E+02  0.22557812008E+02 -0.36416865413E+02  0.52191134640E+02  0.00000000000E+00 0.  1.
        -13    1    5    5    0    0  0.21851237025E+03  0.48217243498E+02  0.45404088465E+01  0.22381504380E+03  0.00000000000E+00 0. -1.
          1    1    6    6  503    0 -0.56130364882E+03 -0.11387587337E+03  0.11305192737E+03  0.58378955026E+03  0.00000000000E+00 0. -1.
         -1    1    6    6    0  503 -0.21388258281E+03 -0.93903318506E+02  0.13110203832E+02  0.23395612816E+03  0.00000000000E+00 0.  1.
<mgrwt>
<rscale>  0 0.16714696E+04</rscale>
<asrwt>0</asrwt>
<pdfrwt beam="1">  1        1 0.12188270E+00 0.16714696E+04</pdfrwt>
<pdfrwt beam="2">  1       -2 0.13563388E+00 0.16714696E+04</pdfrwt>
<totfact> 0.73128518E+00</totfact>
</mgrwt>
</event>
<event>
12    5  0.5197392E-008  0.1351114E+04  0.7818608E-02  0.8989985E-01
          1   -1    0    0  501    0  0.00000000000E+00  0.00000000000E+00  0.77572861660E+03  0.77572861660E+03  0.00000000000E+00 0. -1.
         -2   -1    0    0    0  501 -0.00000000000E+00 -0.00000000000E+00 -0.58832079541E+03  0.58832079541E+03  0.00000000000E+00 0.  1.
        -24    2    1    2    0    0 -0.11275488875E+03  0.11170023169E+03  0.39002410015E+03  0.42799286695E+03  0.76606062169E+02 0.  0.
        254    2    1    2    0    0  0.11275488875E+03 -0.11170023169E+03 -0.20261627896E+03  0.93605654507E+03  0.89997660657E+03 0.  0.
         23    2    4    4    0    0 -0.12413087048E+03 -0.45418728075E+03 -0.44865381265E+02  0.48114336884E+03  0.88269360169E+02 0.  0.
         23    2    4    4    0    0  0.23688575922E+03  0.34248704905E+03 -0.15775089769E+03  0.45491317623E+03  0.92996830544E+02 0.  0.
          1    1    3    3  502    0 -0.12112491063E+03  0.11431316564E+03  0.37841162272E+03  0.41344177344E+03  0.00000000000E+00 0. -1.
         -2    1    3    3    0  502  0.83700218865E+01 -0.26129339438E+01  0.11612477430E+02  0.14551093507E+02  0.00000000000E+00 0.  1.
         13    1    5    5    0    0 -0.10803562934E+03 -0.25443091243E+03 -0.31070803335E+01  0.27643523718E+03  0.00000000000E+00 0. -1.
        -13    1    5    5    0    0 -0.16095241134E+02 -0.19975636831E+03 -0.41758300931E+02  0.20470813165E+03  0.00000000000E+00 0.  1.
          2    1    6    6  503    0  0.23056327774E+03  0.30984426652E+03 -0.16643031144E+03  0.42054957271E+03  0.00000000000E+00 0. -1.
         -2    1    6    6    0  503  0.63224814792E+01  0.32642782536E+02  0.86794137528E+01  0.34363603520E+02  0.00000000000E+00 0.  1.
<mgrwt>
<rscale>  0 0.13511140E+04</rscale>
<asrwt>0</asrwt>
<pdfrwt beam="1">  1        1 0.11934286E+00 0.13511140E+04</pdfrwt>
<pdfrwt beam="2">  1       -2 0.90510891E-01 0.13511140E+04</pdfrwt>
<totfact> 0.20772702E+01</totfact>
</mgrwt>
</event>
<event>
12    5  0.5197392E-008  0.1931434E+04  0.7818608E-02  0.8639366E-01
          1   -1    0    0  501    0  0.00000000000E+00  0.00000000000E+00  0.18437060493E+04  0.18437060493E+04  0.00000000000E+00 0. -1.
         -2   -1    0    0    0  501 -0.00000000000E+00 -0.00000000000E+00 -0.50583400353E+03  0.50583400353E+03  0.00000000000E+00 0.  1.
        -24    2    1    2    0    0  0.25509515214E+03 -0.69325095768E+03  0.22631589872E+03  0.77615316141E+03  0.74326421890E+02 0.  0.
        254    2    1    2    0    0 -0.25509515214E+03  0.69325095768E+03  0.11115561471E+04  0.15733868915E+04  0.83325795232E+03 0.  0.
         23    2    4    4    0    0 -0.44673224015E+03  0.88534132291E+02  0.56120395453E+03  0.72844628401E+03  0.90973200060E+02 0.  0.
         23    2    4    4    0    0  0.19163708801E+03  0.60471682538E+03  0.55035219256E+03  0.84494060745E+03  0.92897157435E+02 0.  0.
          3    1    3    3  502    0  0.65232192429E+02 -0.12387108023E+03  0.66791861871E+02  0.15511426839E+03  0.00000000000E+00 0. -1.
         -4    1    3    3    0  502  0.18986295972E+03 -0.56937987744E+03  0.15952403685E+03  0.62103889302E+03  0.00000000000E+00 0.  1.
         13    1    5    5    0    0 -0.14058287222E+03  0.90949580604E+01  0.11690276027E+03  0.18306424442E+03  0.00000000000E+00 0. -1.
        -13    1    5    5    0    0 -0.30614936793E+03  0.79439174231E+02  0.44430119426E+03  0.54538203959E+03  0.00000000000E+00 0.  1.
          4    1    6    6  503    0  0.14235284751E+03  0.31938282440E+03  0.33318894311E+03  0.48299543841E+03  0.00000000000E+00 0. -1.
         -4    1    6    6    0  503  0.49284240499E+02  0.28533400098E+03  0.21716324946E+03  0.36194516904E+03  0.00000000000E+00 0.  1.
<mgrwt>
<rscale>  0 0.19314339E+04</rscale>
<asrwt>0</asrwt>
<pdfrwt beam="1">  1        1 0.28364708E+00 0.19314339E+04</pdfrwt>
<pdfrwt beam="2">  1       -2 0.77820617E-01 0.19314339E+04</pdfrwt>
<totfact> 0.45843122E+00</totfact>
</mgrwt>
</event>
<event>
12    5  0.5197392E-008  0.1309698E+04  0.7818608E-02  0.9021910E-01
          1   -1    0    0  501    0  0.00000000000E+00  0.00000000000E+00  0.14142591053E+04  0.14142591053E+04  0.00000000000E+00 0. -1.
         -2   -1    0    0    0  501 -0.00000000000E+00 -0.00000000000E+00 -0.30321686169E+03  0.30321686169E+03  0.00000000000E+00 0.  1.
        -24    2    1    2    0    0  0.18273054651E+03 -0.13458050122E+03  0.65629334926E+03  0.69880755580E+03  0.78158018278E+02 0.  0.
        254    2    1    2    0    0 -0.18273054651E+03  0.13458050122E+03  0.45474889435E+03  0.10186684112E+04  0.88282864199E+03 0.  0.
         23    2    4    4    0    0 -0.10670592407E+03  0.30237976630E+03  0.65291416388E+03  0.73315479937E+03  0.91648115891E+02 0.  0.
         23    2    4    4    0    0 -0.76024622445E+02 -0.16779926507E+03 -0.19816526952E+03  0.28551361183E+03  0.91171332761E+02 0.  0.
          1    1    3    3  502    0  0.17292627142E+03 -0.11258196721E+03  0.50372841896E+03  0.54435329957E+03  0.00000000000E+00 0. -1.
         -2    1    3    3    0  502  0.98042750910E+01 -0.21998534012E+02  0.15256493030E+03  0.15445425623E+03  0.00000000000E+00 0.  1.
         13    1    5    5    0    0 -0.10460068913E+03  0.19086322200E+03  0.37327970042E+03  0.43209698961E+03  0.00000000000E+00 0.  1.
        -13    1    5    5    0    0 -0.21052349312E+01  0.11151654430E+03  0.27963446345E+03  0.30105780976E+03  0.00000000000E+00 0. -1.
          3    1    6    6  503    0 -0.91261089386E+01  0.33953056944E+01 -0.45644187124E+02  0.46671252215E+02  0.00000000000E+00 0. -1.
         -3    1    6    6    0  503 -0.66898513507E+02 -0.17119457077E+03 -0.15252108240E+03  0.23884235962E+03  0.00000000000E+00 0.  1.
<mgrwt>
<rscale>  0 0.13096980E+04</rscale>
<asrwt>0</asrwt>
<pdfrwt beam="1">  1        1 0.21757832E+00 0.13096980E+04</pdfrwt>
<pdfrwt beam="2">  1       -2 0.46648749E-01 0.13096980E+04</pdfrwt>
<totfact> 0.28170861E+01</totfact>
</mgrwt>
</event>
<event>
12    5  0.5197392E-008  0.1331176E+04  0.7818608E-02  0.9005202E-01
         -4   -1    0    0    0  501 -0.00000000000E+00  0.00000000000E+00  0.61101329908E+03  0.61101329908E+03  0.00000000000E+00 0.  1.
          3   -1    0    0  501    0  0.00000000000E+00 -0.00000000000E+00 -0.72503669719E+03  0.72503669719E+03  0.00000000000E+00 0. -1.
        -24    2    1    2    0    0  0.14575006454E+03  0.20185095884E+03 -0.27957930802E+03  0.38285598612E+03  0.80169980296E+02 0.  0.
        254    2    1    2    0    0 -0.14575006454E+03 -0.20185095884E+03  0.16555590991E+03  0.95319401014E+03  0.90508738295E+03 0.  0.
         23    2    4    4    0    0  0.30407255674E+03  0.15742573852E+03  0.91826803532E+02  0.36572256921E+03  0.89876876169E+02 0.  0.
         23    2    4    4    0    0 -0.44982262129E+03 -0.35927669735E+03  0.73729106379E+02  0.58747144093E+03  0.90920717671E+02 0.  0.
          1    1    3    3  502    0  0.13191877760E+03  0.14849832440E+03 -0.25302390652E+03  0.32167594486E+03  0.00000000000E+00 0. -1.
         -2    1    3    3    0  502  0.13831286947E+02  0.53352634438E+02 -0.26555401498E+02  0.61180041262E+02  0.00000000000E+00 0.  1.
         13    1    5    5    0    0  0.28356935764E+03  0.16536451962E+03  0.98538706987E+02  0.34273441864E+03  0.00000000000E+00 0. -1.
        -13    1    5    5    0    0  0.20503199100E+02 -0.79387811032E+01 -0.67119034554E+01  0.22988150572E+02  0.00000000000E+00 0.  1.
          1    1    6    6  503    0 -0.41498758739E+03 -0.35763640706E+03  0.72157715906E+02  0.55256242481E+03  0.00000000000E+00 0. -1.
         -1    1    6    6    0  503 -0.34835033900E+02 -0.16402902925E+01  0.15713904731E+01  0.34909016129E+02  0.00000000000E+00 0.  1.
<mgrwt>
<rscale>  0 0.13311755E+04</rscale>
<asrwt>0</asrwt>
<pdfrwt beam="1">  1        3 0.11154411E+00 0.13311755E+04</pdfrwt>
<pdfrwt beam="2">  1       -4 0.94002046E-01 0.13311755E+04</pdfrwt>
<totfact> 0.14456497E+00</totfact>
</mgrwt>
</event>
<event>
12    5  0.5197392E-008  0.1836690E+04  0.7818608E-02  0.8687028E-01
          1   -1    0    0  501    0  0.00000000000E+00  0.00000000000E+00  0.13001640796E+04  0.13001640796E+04  0.00000000000E+00 0. -1.
         -2   -1    0    0    0  501 -0.00000000000E+00 -0.00000000000E+00 -0.64865486645E+03  0.64865486645E+03  0.00000000000E+00 0.  1.
        -24    2    1    2    0    0  0.64056775605E+03 -0.34239430504E+02 -0.31332759866E+02  0.64722916934E+03  0.80152773573E+02 0.  0.
        254    2    1    2    0    0 -0.64056775605E+03  0.34239430504E+02  0.68284197297E+03  0.13015897767E+04  0.90352830504E+03 0.  0.
         23    2    4    4    0    0 -0.52487607992E+03 -0.24117807156E+03  0.77957386110E+03  0.97444035904E+03  0.90204472925E+02 0.  0.
         23    2    4    4    0    0 -0.11569167613E+03  0.27541750206E+03 -0.96731888137E+02  0.32714941763E+03  0.91816768122E+02 0.  0.
          1    1    3    3  502    0  0.13263710132E+03 -0.31385452997E+02  0.15292484089E+02  0.13715504867E+03  0.00000000000E+00 0. -1.
         -2    1    3    3    0  502  0.50793065473E+03 -0.28539775069E+01 -0.46625243954E+02  0.51007412067E+03  0.00000000000E+00 0.  1.
         13    1    5    5    0    0 -0.49136719668E+03 -0.21689373761E+03  0.75417031035E+03  0.92588199702E+03  0.00000000000E+00 0. -1.
        -13    1    5    5    0    0 -0.33508883239E+02 -0.24284333949E+02  0.25403550752E+02  0.48558362020E+02  0.00000000000E+00 0.  1.
          1    1    6    6  503    0 -0.97876710284E+02  0.13823953431E+03 -0.24649960369E+02  0.17116553335E+03  0.00000000000E+00 0. -1.
         -1    1    6    6    0  503 -0.17814965848E+02  0.13717796775E+03 -0.72081927768E+02  0.15598388428E+03  0.00000000000E+00 0.  1.
<mgrwt>
<rscale>  0 0.18366902E+04</rscale>
<asrwt>0</asrwt>
<pdfrwt beam="1">  1        1 0.20002524E+00 0.18366902E+04</pdfrwt>
<pdfrwt beam="2">  1       -2 0.99793057E-01 0.18366902E+04</pdfrwt>
<totfact> 0.61950469E+00</totfact>
</mgrwt>
</event>
<event>
12    5  0.5197392E-008  0.1576372E+04  0.7818608E-02  0.8835197E-01
         -2   -1    0    0    0  501 -0.00000000000E+00  0.00000000000E+00  0.63896655942E+03  0.63896655942E+03  0.00000000000E+00 0.  1.
          1   -1    0    0  501    0  0.00000000000E+00 -0.00000000000E+00 -0.97225275941E+03  0.97225275941E+03  0.00000000000E+00 0. -1.
        -24    2    1    2    0    0 -0.15311427307E+03  0.16699138761E+03 -0.59750184572E+03  0.64417692382E+03  0.81396249175E+02 0.  0.
        254    2    1    2    0    0  0.15311427307E+03 -0.16699138761E+03  0.26421564574E+03  0.96704239501E+03  0.90223665528E+03 0.  0.
         23    2    4    4    0    0 -0.13853026391E+03  0.27100820959E+03 -0.84578113793E+02  0.32908575325E+03  0.92238234879E+02 0.  0.
         23    2    4    4    0    0  0.29164453699E+03 -0.43799959720E+03  0.34879375953E+03  0.63795664176E+03  0.91822693175E+02 0.  0.
          3    1    3    3  502    0 -0.11135392797E+03  0.66338978568E+02 -0.36694115217E+03  0.38916110611E+03  0.00000000000E+00 0. -1.
         -4    1    3    3    0  502 -0.41760345101E+02  0.10065240904E+03 -0.23056069355E+03  0.25501581771E+03  0.00000000000E+00 0.  1.
         13    1    5    5    0    0 -0.51684884953E+02  0.16710989629E+03 -0.11712088700E+02  0.17531177312E+03  0.00000000000E+00 0. -1.
        -13    1    5    5    0    0 -0.86845378961E+02  0.10389831330E+03 -0.72866025094E+02  0.15377398013E+03  0.00000000000E+00 0.  1.
          1    1    6    6  503    0  0.49230830125E+02 -0.12495539321E+03  0.55936187807E+02  0.14548670741E+03  0.00000000000E+00 0. -1.
         -1    1    6    6    0  503  0.24241370686E+03 -0.31304420399E+03  0.29285757172E+03  0.49246993435E+03  0.00000000000E+00 0.  1.
<mgrwt>
<rscale>  0 0.15763718E+04</rscale>
<asrwt>0</asrwt>
<pdfrwt beam="1">  1        1 0.14957735E+00 0.15763718E+04</pdfrwt>
<pdfrwt beam="2">  1       -2 0.98302547E-01 0.15763718E+04</pdfrwt>
<totfact> 0.11533989E+01</totfact>
</mgrwt>
</event>
<event>
12    5  0.5197392E-008  0.1713008E+04  0.7818608E-02  0.8753980E-01
         -2   -1    0    0    0  501 -0.00000000000E+00  0.00000000000E+00  0.81164756642E+03  0.81164756642E+03  0.00000000000E+00 0.  1.
          1   -1    0    0  501    0  0.00000000000E+00 -0.00000000000E+00 -0.90383916925E+03  0.90383916925E+03  0.00000000000E+00 0. -1.
        -24    2    1    2    0    0  0.11175158176E+03 -0.22948507001E+03 -0.58247478507E+03  0.64191069983E+03  0.87296379852E+02 0.  0.
        254    2    1    2    0    0 -0.11175158176E+03  0.22948507001E+03  0.49028318225E+03  0.10735760358E+04  0.92034563755E+03 0.  0.
         23    2    4    4    0    0 -0.32522269891E+03 -0.12249210697E+02 -0.13384052087E+03  0.36442139888E+03  0.94709154190E+02 0.  0.
         23    2    4    4    0    0  0.21347111715E+03  0.24173428070E+03  0.62412370312E+03  0.70915463696E+03  0.96770460384E+02 0.  0.
          3    1    3    3  502    0  0.74457971293E+02 -0.17032349863E+03 -0.50190651187E+03  0.53522353305E+03  0.00000000000E+00 0. -1.
         -4    1    3    3    0  502  0.37293610464E+02 -0.59161571374E+02 -0.80568273197E+02  0.10668716678E+03  0.00000000000E+00 0.  1.
         13    1    5    5    0    0 -0.39638494211E+02  0.30553351066E+02 -0.23425340128E+02  0.55258158174E+02  0.00000000000E+00 0. -1.
        -13    1    5    5    0    0 -0.28558420470E+03 -0.42802561762E+02 -0.11041518074E+03  0.30916324071E+03  0.00000000000E+00 0.  1.
          4    1    6    6  503    0  0.88725284238E+02  0.12398539514E+03  0.39136245809E+03  0.42001086638E+03  0.00000000000E+00 0. -1.
         -4    1    6    6    0  503  0.12474583291E+03  0.11774888556E+03  0.23276124503E+03  0.28914377058E+03  0.00000000000E+00 0.  1.
<mgrwt>
<rscale>  0 0.17130077E+04</rscale>
<asrwt>0</asrwt>
<pdfrwt beam="1">  1        1 0.13905218E+00 0.17130077E+04</pdfrwt>
<pdfrwt beam="2">  1       -2 0.12486886E+00 0.17130077E+04</pdfrwt>
<totfact> 0.72338346E+00</totfact>
</mgrwt>
</event>
<event>
12    5  0.5197392E-008  0.1695965E+04  0.7818608E-02  0.8763669E-01
         -2   -1    0    0    0  501 -0.00000000000E+00  0.00000000000E+00  0.14479512780E+04  0.14479512780E+04  0.00000000000E+00 0.  1.
          1   -1    0    0  501    0  0.00000000000E+00 -0.00000000000E+00 -0.49661502345E+03  0.49661502345E+03  0.00000000000E+00 0. -1.
        -24    2    1    2    0    0 -0.59342375190E+03  0.12981093906E+03  0.31802365608E+03  0.69005464957E+03  0.77677180321E+02 0.  0.
        254    2    1    2    0    0  0.59342375190E+03 -0.12981093906E+03  0.63331259850E+03  0.12545116519E+04  0.89649986511E+03 0.  0.
         23    2    4    4    0    0  0.10625300973E+02 -0.73001037260E+02 -0.20030817030E+03  0.23181163433E+03  0.90394813243E+02 0.  0.
         23    2    4    4    0    0  0.58279845093E+03 -0.56809901802E+02  0.83362076879E+03  0.10227000176E+04  0.90057428535E+02 0.  0.
          1    1    3    3  502    0 -0.56413789792E+03  0.11567810822E+03  0.28099261998E+03  0.64077284983E+03  0.00000000000E+00 0. -1.
         -2    1    3    3    0  502 -0.29285853975E+02  0.14132830839E+02  0.37031036099E+02  0.49281799735E+02  0.00000000000E+00 0.  1.
         13    1    5    5    0    0 -0.10431392703E+02 -0.87198597098E+02 -0.17581868120E+03  0.19653146809E+03  0.00000000000E+00 0. -1.
        -13    1    5    5    0    0  0.21056693675E+02  0.14197559838E+02 -0.24489489099E+02  0.35280166244E+02  0.00000000000E+00 0.  1.
          3    1    6    6  503    0  0.21777146876E+03 -0.64659754354E+02  0.33156677642E+03  0.40192265881E+03  0.00000000000E+00 0.  1.
         -3    1    6    6    0  503  0.36502698217E+03  0.78498525518E+01  0.50205399237E+03  0.62077735877E+03  0.00000000000E+00 0. -1.
<mgrwt>
<rscale>  0 0.16959650E+04</rscale>
<asrwt>0</asrwt>
<pdfrwt beam="1">  1        1 0.76402312E-01 0.16959650E+04</pdfrwt>
<pdfrwt beam="2">  1       -2 0.22276173E+00 0.16959650E+04</pdfrwt>
<totfact> 0.35352968E+00</totfact>
</mgrwt>
</event>
<event>
12    5  0.5197392E-008  0.2074814E+04  0.7818608E-02  0.8572420E-01
         -2   -1    0    0    0  501 -0.00000000000E+00  0.00000000000E+00  0.12725518677E+04  0.12725518677E+04  0.00000000000E+00 0.  1.
          1   -1    0    0  501    0  0.00000000000E+00 -0.00000000000E+00 -0.84571253459E+03  0.84571253459E+03  0.00000000000E+00 0. -1.
        -24    2    1    2    0    0  0.70377778622E+03 -0.20811532755E+03 -0.25474869941E+03  0.78084644411E+03  0.78797890127E+02 0.  0.
        254    2    1    2    0    0 -0.70377778622E+03  0.20811532755E+03  0.68158803248E+03  0.13374179581E+04  0.88628967431E+03 0.  0.
         23    2    4    4    0    0 -0.15576024582E+03 -0.23858295209E+03  0.52993532682E+03  0.60858449749E+03  0.91436102122E+02 0.  0.
         23    2    4    4    0    0 -0.54801754040E+03  0.44669827963E+03  0.15165270566E+03  0.72883346065E+03  0.91307680982E+02 0.  0.
          1    1    3    3  502    0  0.48835381826E+03 -0.12116730539E+03 -0.20470674452E+03  0.54320881708E+03  0.00000000000E+00 0. -1.
         -2    1    3    3    0  502  0.21542396797E+03 -0.86948022155E+02 -0.50041954883E+02  0.23763762703E+03  0.00000000000E+00 0.  1.
         13    1    5    5    0    0 -0.52580202010E+02 -0.18448263680E+02  0.86999210849E+02  0.10331446542E+03  0.00000000000E+00 0.  1.
        -13    1    5    5    0    0 -0.10318004381E+03 -0.22013468841E+03  0.44293611597E+03  0.50527003207E+03  0.00000000000E+00 0. -1.
          4    1    6    6  503    0 -0.31763340971E+03  0.22188504251E+03  0.46720467252E+02  0.39026498320E+03  0.00000000000E+00 0.  1.
         -4    1    6    6    0  503 -0.23038413069E+03  0.22481323713E+03  0.10493223841E+03  0.33856847745E+03  0.00000000000E+00 0. -1.
<mgrwt>
<rscale>  0 0.20748138E+04</rscale>
<asrwt>0</asrwt>
<pdfrwt beam="1">  1        1 0.13010962E+00 0.20748138E+04</pdfrwt>
<pdfrwt beam="2">  1       -2 0.19577721E+00 0.20748138E+04</pdfrwt>
<totfact> 0.23125892E+00</totfact>
</mgrwt>
</event>
<event>
12    5  0.5197392E-008  0.2088210E+04  0.7818608E-02  0.8566455E-01
         -2   -1    0    0    0  501 -0.00000000000E+00  0.00000000000E+00  0.65330898470E+03  0.65330898470E+03  0.00000000000E+00 0.  1.
          1   -1    0    0  501    0  0.00000000000E+00 -0.00000000000E+00 -0.16686677829E+04  0.16686677829E+04  0.00000000000E+00 0. -1.
        -24    2    1    2    0    0  0.63778480038E+03  0.31201124550E+03  0.10873394678E+03  0.72270675298E+03  0.79759079130E+02 0.  0.
        254    2    1    2    0    0 -0.63778480038E+03 -0.31201124550E+03 -0.11240927450E+04  0.15992700146E+04  0.88879672111E+03 0.  0.
         23    2    4    4    0    0 -0.67844717368E+03  0.10111174782E+03 -0.54506676128E+03  0.88071525938E+03  0.89707529448E+02 0.  0.
         23    2    4    4    0    0  0.40662373303E+02 -0.41312299332E+03 -0.57902598373E+03  0.71855475526E+03  0.93412045608E+02 0.  0.
          1    1    3    3  502    0  0.94277266011E+02  0.76838327867E+02  0.69826072639E+01  0.12182400552E+03  0.00000000000E+00 0. -1.
         -2    1    3    3    0  502  0.54350753437E+03  0.23517291764E+03  0.10175133952E+03  0.60088274746E+03  0.00000000000E+00 0.  1.
         13    1    5    5    0    0 -0.44379651136E+03  0.98238176571E+02 -0.32284858713E+03  0.55752784060E+03  0.00000000000E+00 0. -1.
        -13    1    5    5    0    0 -0.23465066233E+03  0.28735712438E+01 -0.22221817415E+03  0.32318741879E+03  0.00000000000E+00 0.  1.
          1    1    6    6  503    0  0.74689141891E+01 -0.32734144370E+03 -0.39695545808E+03  0.51456956881E+03  0.00000000000E+00 0. -1.
         -1    1    6    6    0  503  0.33193459114E+02 -0.85781549619E+02 -0.18207052565E+03  0.20398518645E+03  0.00000000000E+00 0.  1.
<mgrwt>
<rscale>  0 0.20882104E+04</rscale>
<asrwt>0</asrwt>
<pdfrwt beam="1">  1        1 0.25671812E+00 0.20882104E+04</pdfrwt>
<pdfrwt beam="2">  1       -2 0.10050907E+00 0.20882104E+04</pdfrwt>
<totfact> 0.33028091E+00</totfact>
</mgrwt>
</event>
<event>
12    5  0.5197392E-008  0.2573329E+04  0.7818608E-02  0.8377317E-01
          1   -1    0    0  501    0  0.00000000000E+00  0.00000000000E+00  0.16736386497E+04  0.16736386497E+04  0.00000000000E+00 0. -1.
         -2   -1    0    0    0  501 -0.00000000000E+00 -0.00000000000E+00 -0.98916577342E+03  0.98916577342E+03  0.00000000000E+00 0.  1.
        -24    2    1    2    0    0 -0.72707298073E+03 -0.63838015896E+03  0.90851974781E+03  0.13296966857E+04  0.80751452337E+02 0.  0.
        254    2    1    2    0    0  0.72707298073E+03  0.63838015896E+03 -0.22404687153E+03  0.13331077375E+04  0.88927773635E+03 0.  0.
         23    2    4    4    0    0  0.45559325910E+03  0.16000061137E+03  0.29305228422E+03  0.57257722129E+03  0.93806288039E+02 0.  0.
         23    2    4    4    0    0  0.27147972163E+03  0.47837954758E+03 -0.51709915575E+03  0.76053051617E+03  0.92015750510E+02 0.  0.
          3    1    3    3  502    0 -0.54687962529E+03 -0.47211351003E+03  0.72425004294E+03  0.10229890594E+04  0.00000000000E+00 0. -1.
         -4    1    3    3    0  502 -0.18019335544E+03 -0.16626664893E+03  0.18426970487E+03  0.30670762628E+03  0.00000000000E+00 0.  1.
         13    1    5    5    0    0  0.28311432394E+02  0.28310410316E+02  0.48709039127E+02  0.63052256336E+02  0.00000000000E+00 0.  1.
        -13    1    5    5    0    0  0.42728182670E+03  0.13169020105E+03  0.24434324510E+03  0.50952496495E+03  0.00000000000E+00 0. -1.
          2    1    6    6  503    0  0.99564060035E+02  0.17595240161E+03 -0.25248611851E+03  0.32345245357E+03  0.00000000000E+00 0. -1.
         -2    1    6    6    0  503  0.17191566160E+03  0.30242714597E+03 -0.26461303724E+03  0.43707806259E+03  0.00000000000E+00 0.  1.
<mgrwt>
<rscale>  0 0.25733294E+04</rscale>
<asrwt>0</asrwt>
<pdfrwt beam="1">  1        1 0.25748287E+00 0.25733294E+04</pdfrwt>
<pdfrwt beam="2">  1       -2 0.15217935E+00 0.25733294E+04</pdfrwt>
<totfact> 0.11108165E+00</totfact>
</mgrwt>
</event>
<event>
12    5  0.5197392E-008  0.1703598E+04  0.7818608E-02  0.8759315E-01
          1   -1    0    0  501    0  0.00000000000E+00  0.00000000000E+00  0.42748936015E+03  0.42748936015E+03  0.00000000000E+00 0. -1.
         -2   -1    0    0    0  501 -0.00000000000E+00 -0.00000000000E+00 -0.16972613028E+04  0.16972613028E+04  0.00000000000E+00 0.  1.
        -24    2    1    2    0    0 -0.13098771601E+02 -0.11454741127E+03  0.28593713304E+03  0.31715539585E+03  0.74396329330E+02 0.  0.
        254    2    1    2    0    0  0.13098771601E+02  0.11454741127E+03 -0.15557090757E+04  0.18075952671E+04  0.91316878736E+03 0.  0.
         23    2    4    4    0    0  0.92729850534E+02  0.43919513550E+03 -0.42627596207E+03  0.62637141622E+03  0.95596877540E+02 0.  0.
         23    2    4    4    0    0 -0.79631078933E+02 -0.32464772423E+03 -0.11294331137E+04  0.11812238509E+04  0.89069490589E+02 0.  0.
          1    1    3    3  502    0 -0.41089988830E+02 -0.85642598533E+02  0.17453682577E+03  0.19871121110E+03  0.00000000000E+00 0. -1.
         -2    1    3    3    0  502  0.27991217229E+02 -0.28904812734E+02  0.11140030727E+03  0.11844418475E+03  0.00000000000E+00 0.  1.
         13    1    5    5    0    0  0.62732156053E+01  0.83937734672E+02 -0.35891815422E+02  0.91504748239E+02  0.00000000000E+00 0. -1.
        -13    1    5    5    0    0  0.86456634929E+02  0.35525740082E+03 -0.39038414665E+03  0.53486666798E+03  0.00000000000E+00 0.  1.
          3    1    6    6  503    0 -0.19379080951E+02 -0.22737142097E+03 -0.82568149653E+03  0.85663483794E+03  0.00000000000E+00 0. -1.
         -3    1    6    6    0  503 -0.60251997982E+02 -0.97276303255E+02 -0.30375161713E+03  0.32458901298E+03  0.00000000000E+00 0.  1.
<mgrwt>
<rscale>  0 0.17035975E+04</rscale>
<asrwt>0</asrwt>
<pdfrwt beam="1">  1        1 0.65767595E-01 0.17035975E+04</pdfrwt>
<pdfrwt beam="2">  1       -2 0.26111712E+00 0.17035975E+04</pdfrwt>
<totfact> 0.25090114E+00</totfact>
</mgrwt>
</event>
<event>
12    5  0.5197392E-008  0.1348387E+04  0.7818608E-02  0.8992050E-01
         -2   -1    0    0    0  501 -0.00000000000E+00  0.00000000000E+00  0.85171390670E+03  0.85171390670E+03  0.00000000000E+00 0.  1.
          1   -1    0    0  501    0  0.00000000000E+00 -0.00000000000E+00 -0.53367299028E+03  0.53367299028E+03  0.00000000000E+00 0. -1.
        -24    2    1    2    0    0 -0.10575119140E+02  0.34704365213E+03 -0.30713565515E+02  0.36036700451E+03  0.91487295320E+02 0.  0.
        254    2    1    2    0    0  0.10575119140E+02 -0.34704365213E+03  0.34875448194E+03  0.10250198925E+04  0.89915791809E+03 0.  0.
         23    2    4    4    0    0 -0.10369971541E+03 -0.41978231075E+03 -0.17511654654E+03  0.47525805569E+03  0.90739160423E+02 0.  0.
         23    2    4    4    0    0  0.11427483455E+03  0.72738658620E+02  0.52387102848E+03  0.54976183678E+03  0.97198623584E+02 0.  0.
          1    1    3    3  502    0 -0.19364941183E+02  0.20310322232E+03 -0.61130401418E+02  0.21298555313E+03  0.00000000000E+00 0. -1.
         -2    1    3    3    0  502  0.87898220436E+01  0.14394042980E+03  0.30416835902E+02  0.14738145138E+03  0.00000000000E+00 0.  1.
         13    1    5    5    0    0 -0.11382336923E+01 -0.14323055248E+02  0.10392231364E+02  0.17732567787E+02  0.00000000000E+00 0. -1.
        -13    1    5    5    0    0 -0.10256148172E+03 -0.40545925550E+03 -0.18550877791E+03  0.45752548790E+03  0.00000000000E+00 0.  1.
          4    1    6    6  503    0  0.43855967301E+02 -0.67360067377E+01  0.28391941988E+03  0.28736554533E+03  0.00000000000E+00 0. -1.
         -4    1    6    6    0  503  0.70418867248E+02  0.79474665358E+02  0.23995160860E+03  0.26239629145E+03  0.00000000000E+00 0.  1.
<mgrwt>
<rscale>  0 0.13483868E+04</rscale>
<asrwt>0</asrwt>
<pdfrwt beam="1">  1        1 0.82103537E-01 0.13483868E+04</pdfrwt>
<pdfrwt beam="2">  1       -2 0.13103291E+00 0.13483868E+04</pdfrwt>
<totfact> 0.14745138E+01</totfact>
</mgrwt>
</event>
<event>
12    5  0.5197392E-008  0.1383195E+04  0.7818608E-02  0.8966074E-01
         -2   -1    0    0    0  501 -0.00000000000E+00  0.00000000000E+00  0.12128826806E+04  0.12128826806E+04  0.00000000000E+00 0.  1.
          1   -1    0    0  501    0  0.00000000000E+00 -0.00000000000E+00 -0.39435534468E+03  0.39435534468E+03  0.00000000000E+00 0. -1.
        -24    2    1    2    0    0  0.13039242763E+03 -0.17137643551E+03  0.62128730895E+03  0.66236596555E+03  0.79741358291E+02 0.  0.
        254    2    1    2    0    0 -0.13039242763E+03  0.17137643551E+03  0.19724002701E+03  0.94487205977E+03  0.89861421825E+03 0.  0.
         23    2    4    4    0    0 -0.39885455396E+03  0.34961291358E+03 -0.30572601769E+02  0.53944471821E+03  0.93550924484E+02 0.  0.
         23    2    4    4    0    0  0.26846212633E+03 -0.17823647807E+03  0.22781262878E+03  0.40542734156E+03  0.92911678840E+02 0.  0.
          1    1    3    3  502    0 -0.81913904892E+01 -0.26502197813E+02  0.54261576186E+02  0.60940823897E+02  0.00000000000E+00 0. -1.
         -2    1    3    3    0  502  0.13858381812E+03 -0.14487423770E+03  0.56702573277E+03  0.60142514165E+03  0.00000000000E+00 0.  1.
         13    1    5    5    0    0 -0.27196488810E+03  0.25596681050E+03 -0.62147156378E+02  0.37861085231E+03  0.00000000000E+00 0. -1.
        -13    1    5    5    0    0 -0.12688966585E+03  0.93646103075E+02  0.31574554609E+02  0.16083386590E+03  0.00000000000E+00 0.  1.
          1    1    6    6  503    0  0.22962117011E+03 -0.17421904295E+03  0.22611623738E+03  0.36634233921E+03  0.00000000000E+00 0. -1.
         -1    1    6    6    0  503  0.38840956215E+02 -0.40174351162E+01  0.16963913962E+01  0.39085002346E+02  0.00000000000E+00 0.  1.
<mgrwt>
<rscale>  0 0.13831945E+04</rscale>
<asrwt>0</asrwt>
<pdfrwt beam="1">  1        1 0.60670054E-01 0.13831945E+04</pdfrwt>
<pdfrwt beam="2">  1       -2 0.18659733E+00 0.13831945E+04</pdfrwt>
<totfact> 0.85153554E+00</totfact>
</mgrwt>
</event>
<event>
12    5  0.5197392E-008  0.1448888E+04  0.7818608E-02  0.8919172E-01
          1   -1    0    0  501    0  0.00000000000E+00  0.00000000000E+00  0.22404486414E+04  0.22404486414E+04  0.00000000000E+00 0. -1.
         -2   -1    0    0    0  501 -0.00000000000E+00 -0.00000000000E+00 -0.23424718626E+03  0.23424718626E+03  0.00000000000E+00 0.  1.
        -24    2    1    2    0    0 -0.37626622193E+02  0.49615039612E+03  0.54239849049E+03  0.74033833804E+03  0.79522034829E+02 0.  0.
        254    2    1    2    0    0  0.37626622193E+02 -0.49615039612E+03  0.14638029647E+04  0.17343574896E+04  0.78593625962E+03 0.  0.
         23    2    4    4    0    0  0.23320606511E+03 -0.78611748361E+01  0.98931499591E+03  0.10205496518E+04  0.91271922377E+02 0.  0.
         23    2    4    4    0    0 -0.19557944291E+03 -0.48828922128E+03  0.47448796875E+03  0.71380783780E+03  0.87778782803E+02 0.  0.
          1    1    3    3  502    0  0.25184268379E+01  0.11810843689E+03  0.84781636768E+02  0.14540932319E+03  0.00000000000E+00 0. -1.
         -2    1    3    3    0  502 -0.40145049031E+02  0.37804195923E+03  0.45761685372E+03  0.59492901485E+03  0.00000000000E+00 0.  1.
         13    1    5    5    0    0  0.21055994318E+03 -0.87132250324E+01  0.96314616480E+03  0.98593201831E+03  0.00000000000E+00 0. -1.
        -13    1    5    5    0    0  0.22646121923E+02  0.85205019632E+00  0.26168831112E+02  0.34617633505E+02  0.00000000000E+00 0.  1.
          4    1    6    6  503    0 -0.29258140083E+02 -0.18114119661E+02  0.34728247132E+02  0.48889786675E+02  0.00000000000E+00 0.  1.
         -4    1    6    6    0  503 -0.16632130283E+03 -0.47017510162E+03  0.43975972161E+03  0.66491805113E+03  0.00000000000E+00 0. -1.
<mgrwt>
<rscale>  0 0.14488876E+04</rscale>
<asrwt>0</asrwt>
<pdfrwt beam="1">  1        1 0.34468439E+00 0.14488876E+04</pdfrwt>
<pdfrwt beam="2">  1       -2 0.36038030E-01 0.14488876E+04</pdfrwt>
<totfact> 0.12647892E+01</totfact>
</mgrwt>
</event>
<event>
12    5  0.5197392E-008  0.2056198E+04  0.7818608E-02  0.8580788E-01
          1   -1    0    0  501    0  0.00000000000E+00  0.00000000000E+00  0.12103399454E+04  0.12103399454E+04  0.00000000000E+00 0. -1.
         -2   -1    0    0    0  501 -0.00000000000E+00 -0.00000000000E+00 -0.87329779826E+03  0.87329779826E+03  0.00000000000E+00 0.  1.
        -24    2    1    2    0    0 -0.75624475098E+03  0.32781277622E+03  0.15709735782E+03  0.84275473994E+03  0.78667860184E+02 0.  0.
        254    2    1    2    0    0  0.75624475098E+03 -0.32781277622E+03  0.17994478929E+03  0.12408830037E+04  0.90996876982E+03 0.  0.
         23    2    4    4    0    0  0.32131633958E+03  0.19180395589E+03  0.36754560890E+03  0.53156271916E+03  0.86233416986E+02 0.  0.
         23    2    4    4    0    0  0.43492841140E+03 -0.51961673211E+03 -0.18760081961E+03  0.70932028454E+03  0.93685256067E+02 0.  0.
          1    1    3    3  502    0 -0.75362833042E+03  0.32592166502E+03  0.14961390246E+03  0.83460464410E+03  0.00000000000E+00 0. -1.
         -2    1    3    3    0  502 -0.26164205522E+01  0.18911111984E+01  0.74834553576E+01  0.81500958375E+01  0.00000000000E+00 0.  1.
         13    1    5    5    0    0  0.24571488069E+03  0.11539211730E+03  0.30011105125E+03  0.40466997221E+03  0.00000000000E+00 0. -1.
        -13    1    5    5    0    0  0.75601458887E+02  0.76411838595E+02  0.67434557654E+02  0.12689274695E+03  0.00000000000E+00 0.  1.
          2    1    6    6  503    0  0.18122536130E+03 -0.18001550949E+03 -0.11117542158E+03  0.27858246463E+03  0.00000000000E+00 0. -1.
         -2    1    6    6    0  503  0.25370305010E+03 -0.33960122262E+03 -0.76425398035E+02  0.43073781991E+03  0.00000000000E+00 0.  1.
<mgrwt>
<rscale>  0 0.20561977E+04</rscale>
<asrwt>0</asrwt>
<pdfrwt beam="1">  1        1 0.18620615E+00 0.20561977E+04</pdfrwt>
<pdfrwt beam="2">  1       -2 0.13435351E+00 0.20561977E+04</pdfrwt>
<totfact> 0.33965245E+00</totfact>
</mgrwt>
</event>
<event>
12    5  0.5197392E-008  0.1470267E+04  0.7818608E-02  0.8904470E-01
          1   -1    0    0  501    0  0.00000000000E+00  0.00000000000E+00  0.60805333350E+03  0.60805333350E+03  0.00000000000E+00 0. -1.
         -2   -1    0    0    0  501 -0.00000000000E+00 -0.00000000000E+00 -0.88877234331E+03  0.88877234331E+03  0.00000000000E+00 0.  1.
        -24    2    1    2    0    0 -0.18726856632E+03 -0.41236018422E+03 -0.28245585516E+03  0.53972922719E+03  0.80099257856E+02 0.  0.
        254    2    1    2    0    0  0.18726856632E+03  0.41236018422E+03  0.17368453481E+01  0.95709644961E+03  0.84316081489E+03 0.  0.
         23    2    4    4    0    0 -0.20075515078E+03 -0.10872569226E+03  0.14591925404E+03  0.28579817110E+03  0.90907970938E+02 0.  0.
         23    2    4    4    0    0  0.38802371710E+03  0.52108587648E+03 -0.14418240870E+03  0.67129827852E+03  0.88090385764E+02 0.  0.
          3    1    3    3  502    0 -0.30201716396E+02 -0.64987093596E+02 -0.12869436224E+02  0.72808573644E+02  0.00000000000E+00 0. -1.
         -4    1    3    3    0  502 -0.15706684992E+03 -0.34737309063E+03 -0.26958641893E+03  0.46692065355E+03  0.00000000000E+00 0.  1.
         13    1    5    5    0    0 -0.95356082459E+02 -0.55354278116E+02  0.18084445848E+02  0.11173148952E+03  0.00000000000E+00 0. -1.
        -13    1    5    5    0    0 -0.10539906832E+03 -0.53371414140E+02  0.12783480820E+03  0.17406668158E+03  0.00000000000E+00 0.  1.
          3    1    6    6  503    0  0.31573663210E+03  0.46305087778E+03 -0.10289472551E+03  0.56981844547E+03  0.00000000000E+00 0. -1.
         -3    1    6    6    0  503  0.72287084995E+02  0.58034998698E+02 -0.41287683190E+02  0.10147983304E+03  0.00000000000E+00 0.  1.
<mgrwt>
<rscale>  0 0.14702666E+04</rscale>
<asrwt>0</asrwt>
<pdfrwt beam="1">  1        1 0.93546666E-01 0.14702666E+04</pdfrwt>
<pdfrwt beam="2">  1       -2 0.13673421E+00 0.14702666E+04</pdfrwt>
<totfact> 0.10878615E+01</totfact>
</mgrwt>
</event>
<event>
12    5  0.5197392E-008  0.1765037E+04  0.7818608E-02  0.8725116E-01
          1   -1    0    0  501    0  0.00000000000E+00  0.00000000000E+00  0.28006304189E+04  0.28006304189E+04  0.00000000000E+00 0. -1.
         -2   -1    0    0    0  501 -0.00000000000E+00 -0.00000000000E+00 -0.27809421827E+03  0.27809421827E+03  0.00000000000E+00 0.  1.
        -24    2    1    2    0    0 -0.28727129931E+03 -0.69306235691E+02  0.19323889298E+04  0.19564836267E+04  0.79831394627E+02 0.  0.
        254    2    1    2    0    0  0.28727129931E+03  0.69306235691E+02  0.59014727082E+03  0.11222410105E+04  0.90764691964E+03 0.  0.
         23    2    4    4    0    0 -0.25428155861E+03 -0.82621281605E+02 -0.25535997406E+02  0.28322536186E+03  0.89883987530E+02 0.  0.
         23    2    4    4    0    0  0.54155285792E+03  0.15192751730E+03  0.61568326822E+03  0.83901564866E+03  0.92303323315E+02 0.  0.
          1    1    3    3  502    0 -0.21600577904E+03 -0.46843898622E+02  0.16340028303E+04  0.16488838943E+04  0.00000000000E+00 0. -1.
         -4    1    3    3    0  502 -0.71265520268E+02 -0.22462337069E+02  0.29838609956E+03  0.30759973240E+03  0.00000000000E+00 0.  1.
         13    1    5    5    0    0 -0.25639450096E+03 -0.79200861797E+02 -0.37175282900E+02  0.27091127384E+03  0.00000000000E+00 0. -1.
        -13    1    5    5    0    0  0.21129423530E+01 -0.34204198079E+01  0.11639285493E+02  0.12314088023E+02  0.00000000000E+00 0.  1.
          2    1    6    6  503    0  0.44307647030E+03  0.93686876716E+02  0.52259641741E+03  0.69152079137E+03  0.00000000000E+00 0. -1.
         -2    1    6    6    0  503  0.98476387620E+02  0.58240640580E+02  0.93086850808E+02  0.14749485729E+03  0.00000000000E+00 0.  1.
<mgrwt>
<rscale>  0 0.17650373E+04</rscale>
<asrwt>0</asrwt>
<pdfrwt beam="1">  1        1 0.43086620E+00 0.17650373E+04</pdfrwt>
<pdfrwt beam="2">  1       -2 0.42783728E-01 0.17650373E+04</pdfrwt>
<totfact> 0.35928764E+00</totfact>
</mgrwt>
</event>
<event>
12    5  0.5197392E-008  0.1760166E+04  0.7818608E-02  0.8727774E-01
          1   -1    0    0  501    0  0.00000000000E+00  0.00000000000E+00  0.20606483269E+04  0.20606483269E+04  0.00000000000E+00 0. -1.
         -2   -1    0    0    0  501 -0.00000000000E+00 -0.00000000000E+00 -0.37587488944E+03  0.37587488944E+03  0.00000000000E+00 0.  1.
        -24    2    1    2    0    0  0.11521579257E+03 -0.57350103521E+03  0.93592779200E+03  0.11065559809E+04  0.79543641258E+02 0.  0.
        254    2    1    2    0    0 -0.11521579257E+03  0.57350103521E+03  0.74884564548E+03  0.13299672354E+04  0.93051863512E+03 0.  0.
         23    2    4    4    0    0  0.15276932680E+03  0.11681439141E+03 -0.16588352842E+03  0.26982951068E+03  0.91140279692E+02 0.  0.
         23    2    4    4    0    0 -0.26798511937E+03  0.45668664380E+03  0.91472917389E+03  0.10601377247E+04  0.82363942465E+02 0.  0.
          3    1    3    3  502    0  0.79153785386E+02 -0.27551489952E+03  0.51766839823E+03  0.59173841529E+03  0.00000000000E+00 0. -1.
         -4    1    3    3    0  502  0.36062007186E+02 -0.29798613570E+03  0.41825939377E+03  0.51481756565E+03  0.00000000000E+00 0.  1.
         13    1    5    5    0    0  0.45508802247E+02 -0.62682827746E+01 -0.17331241655E+02  0.49099026346E+02  0.00000000000E+00 0. -1.
        -13    1    5    5    0    0  0.10726052455E+03  0.12308267419E+03 -0.14855228676E+03  0.22073048434E+03  0.00000000000E+00 0.  1.
          2    1    6    6  503    0 -0.75262597626E+02  0.20263078989E+03  0.34077949813E+03  0.40355217997E+03  0.00000000000E+00 0. -1.
         -2    1    6    6    0  503 -0.19272252175E+03  0.25405585391E+03  0.57394967577E+03  0.65658554477E+03  0.00000000000E+00 0.  1.
<mgrwt>
<rscale>  0 0.17601659E+04</rscale>
<asrwt>0</asrwt>
<pdfrwt beam="1">  1        1 0.31702281E+00 0.17601659E+04</pdfrwt>
<pdfrwt beam="2">  1       -2 0.57826907E-01 0.17601659E+04</pdfrwt>
<totfact> 0.63097457E+00</totfact>
</mgrwt>
</event>
<event>
12    5  0.5197392E-008  0.1686245E+04  0.7818608E-02  0.8769248E-01
         -2   -1    0    0    0  501 -0.00000000000E+00  0.00000000000E+00  0.55932883153E+03  0.55932883153E+03  0.00000000000E+00 0.  1.
          1   -1    0    0  501    0  0.00000000000E+00 -0.00000000000E+00 -0.12709082632E+04  0.12709082632E+04  0.00000000000E+00 0. -1.
        -24    2    1    2    0    0  0.30280072159E+03 -0.28494149314E+03 -0.79282320705E+03  0.89874469268E+03  0.79331289390E+02 0.  0.
        254    2    1    2    0    0 -0.30280072159E+03  0.28494149314E+03  0.81243775379E+02  0.93149240205E+03  0.82957676712E+03 0.  0.
         23    2    4    4    0    0 -0.49776532276E+03 -0.37615831179E+02 -0.77458423973E+02  0.51301138206E+03  0.89418137870E+02 0.  0.
         23    2    4    4    0    0  0.19496460117E+03  0.32255732432E+03  0.15870219935E+03  0.41848102000E+03  0.88800635366E+02 0.  0.
          3    1    3    3  502    0  0.26765469152E+03 -0.26598501877E+03 -0.66232881542E+03  0.76227719619E+03  0.00000000000E+00 0. -1.
         -2    1    3    3    0  502  0.35146030067E+02 -0.18956474371E+02 -0.13049439163E+03  0.13646749649E+03  0.00000000000E+00 0.  1.
         13    1    5    5    0    0 -0.12242553347E+03 -0.15786850539E+02  0.18920397366E+02  0.12488081250E+03  0.00000000000E+00 0.  1.
        -13    1    5    5    0    0 -0.37533978929E+03 -0.21828980641E+02 -0.96378821338E+02  0.38813056955E+03  0.00000000000E+00 0. -1.
          3    1    6    6  503    0  0.10141695866E+03  0.20205362827E+03  0.13711659123E+03  0.26440882699E+03  0.00000000000E+00 0. -1.
         -3    1    6    6    0  503  0.93547642510E+02  0.12050369604E+03  0.21585608121E+02  0.15407219300E+03  0.00000000000E+00 0.  1.
<mgrwt>
<rscale>  0 0.16862451E+04</rscale>
<asrwt>0</asrwt>
<pdfrwt beam="1">  1        1 0.19552435E+00 0.16862451E+04</pdfrwt>
<pdfrwt beam="2">  1       -2 0.86050590E-01 0.16862451E+04</pdfrwt>
<totfact> 0.92932511E+00</totfact>
</mgrwt>
</event>
<event>
12    5  0.5197392E-008  0.1714350E+04  0.7818608E-02  0.8753222E-01
          1   -1    0    0  501    0  0.00000000000E+00  0.00000000000E+00  0.25089512873E+03  0.25089512873E+03  0.00000000000E+00 0. -1.
         -2   -1    0    0    0  501 -0.00000000000E+00 -0.00000000000E+00 -0.29285102063E+04  0.29285102063E+04  0.00000000000E+00 0.  1.
        -24    2    1    2    0    0 -0.17346294885E+03 -0.52830897101E+03 -0.14776054161E+04  0.15809694859E+04  0.83348581909E+02 0.  0.
        254    2    1    2    0    0  0.17346294885E+03  0.52830897101E+03 -0.12000096615E+04  0.15984358491E+04  0.89764927046E+03 0.  0.
         23    2    4    4    0    0  0.29284963215E+03 -0.16042618051E+03 -0.47446051588E+03  0.58721561193E+03  0.90619685090E+02 0.  0.
         23    2    4    4    0    0 -0.11938668330E+03  0.68873515152E+03 -0.72554914559E+03  0.10112202372E+04  0.86807352236E+02 0.  0.
          3    1    3    3  502    0 -0.15164149184E+01 -0.14234985710E+02 -0.91966893561E+02  0.93074399507E+02  0.00000000000E+00 0. -1.
         -4    1    3    3    0  502 -0.17194653393E+03 -0.51407398530E+03 -0.13856385226E+04  0.14878950864E+04  0.00000000000E+00 0.  1.
         13    1    5    5    0    0  0.28854911853E+03 -0.15658655958E+03 -0.42309289903E+03  0.53552548553E+03  0.00000000000E+00 0. -1.
        -13    1    5    5    0    0  0.43005136178E+01 -0.38396209264E+01 -0.51367616849E+02  0.51690126398E+02  0.00000000000E+00 0.  1.
          1    1    6    6  503    0 -0.85747599565E+02  0.40848894758E+03 -0.48929011651E+03  0.64313349255E+03  0.00000000000E+00 0. -1.
         -1    1    6    6    0  503 -0.33639083734E+02  0.28024620394E+03 -0.23625902908E+03  0.36808674467E+03  0.00000000000E+00 0.  1.
<mgrwt>
<rscale>  0 0.17143500E+04</rscale>
<asrwt>0</asrwt>
<pdfrwt beam="1">  1        1 0.38599250E-01 0.17143500E+04</pdfrwt>
<pdfrwt beam="2">  1       -2 0.45054004E+00 0.17143500E+04</pdfrwt>
<totfact> 0.31780493E-01</totfact>
</mgrwt>
</event>
<event>
12    5  0.5197392E-008  0.1834330E+04  0.7818608E-02  0.8688253E-01
         -2   -1    0    0    0  501 -0.00000000000E+00  0.00000000000E+00  0.38039676177E+03  0.38039676177E+03  0.00000000000E+00 0.  1.
          1   -1    0    0  501    0  0.00000000000E+00 -0.00000000000E+00 -0.22113538820E+04  0.22113538820E+04  0.00000000000E+00 0. -1.
        -24    2    1    2    0    0  0.66701669599E+03  0.14459075596E+03 -0.84135699356E+03  0.10863530649E+04  0.80396713973E+02 0.  0.
        254    2    1    2    0    0 -0.66701669599E+03 -0.14459075596E+03 -0.98960012664E+03  0.15053975788E+04  0.90614331107E+03 0.  0.
         23    2    4    4    0    0 -0.76761269217E+03 -0.35468521875E+03 -0.59646854863E+03  0.10385218615E+04  0.87875353449E+02 0.  0.
         23    2    4    4    0    0  0.10059599618E+03  0.21009446279E+03 -0.39313157801E+03  0.46687571731E+03  0.95714471405E+02 0.  0.
          1    1    3    3  502    0  0.50863428620E+03  0.10009228870E+03 -0.68808355807E+03  0.86150234256E+03  0.00000000000E+00 0. -1.
         -2    1    3    3    0  502  0.15838240978E+03  0.44498467255E+02 -0.15327343549E+03  0.22485072235E+03  0.00000000000E+00 0.  1.
         13    1    5    5    0    0 -0.66120694854E+03 -0.27976841984E+03 -0.47786977163E+03  0.86245261677E+03  0.00000000000E+00 0. -1.
        -13    1    5    5    0    0 -0.10640574363E+03 -0.74916798908E+02 -0.11859877699E+03  0.17606924473E+03  0.00000000000E+00 0.  1.
          2    1    6    6  503    0  0.11837807656E+03  0.17425941953E+03 -0.31266414614E+03  0.37701270879E+03  0.00000000000E+00 0. -1.
         -2    1    6    6    0  503 -0.17782080379E+02  0.35835043263E+02 -0.80467431871E+02  0.89863008519E+02  0.00000000000E+00 0.  1.
<mgrwt>
<rscale>  0 0.18343302E+04</rscale>
<asrwt>0</asrwt>
<pdfrwt beam="1">  1        1 0.34020829E+00 0.18343302E+04</pdfrwt>
<pdfrwt beam="2">  1       -2 0.58522579E-01 0.18343302E+04</pdfrwt>
<totfact> 0.48287624E+00</totfact>
</mgrwt>
</event>
<event>
12    5  0.5197392E-008  0.3391396E+04  0.7818608E-02  0.8140021E-01
         -2   -1    0    0    0  501 -0.00000000000E+00  0.00000000000E+00  0.14718109403E+04  0.14718109403E+04  0.00000000000E+00 0.  1.
          1   -1    0    0  501    0  0.00000000000E+00 -0.00000000000E+00 -0.19536421045E+04  0.19536421045E+04  0.00000000000E+00 0. -1.
        -24    2    1    2    0    0 -0.70574061617E+03  0.10369154832E+04 -0.11848960515E+04  0.17273014855E+04  0.79550186404E+02 0.  0.
        254    2    1    2    0    0  0.70574061617E+03 -0.10369154832E+04  0.70306488731E+03  0.16981515594E+04  0.90341294330E+03 0.  0.
         23    2    4    4    0    0  0.18659545386E+03 -0.89727021479E+03  0.69460981461E+03  0.11536702280E+04  0.92522963563E+02 0.  0.
         23    2    4    4    0    0  0.51914516231E+03 -0.13964526843E+03  0.84550727093E+01  0.54448133131E+03  0.85883242522E+02 0.  0.
          3    1    3    3  502    0 -0.64666064159E+03  0.91021378586E+03 -0.10376719989E+04  0.15242776317E+04  0.00000000000E+00 0. -1.
         -4    1    3    3    0  502 -0.59079974580E+02  0.12670169736E+03 -0.14722405266E+03  0.20302385375E+03  0.00000000000E+00 0.  1.
         13    1    5    5    0    0  0.50652247754E+02 -0.14772274857E+03  0.83642885722E+02  0.17715471481E+03  0.00000000000E+00 0. -1.
        -13    1    5    5    0    0  0.13594320610E+03 -0.74954746622E+03  0.61096692888E+03  0.97651551323E+03  0.00000000000E+00 0.  1.
          2    1    6    6  503    0  0.30541684996E+03 -0.12210769343E+03 -0.11383516308E+02  0.32911901415E+03  0.00000000000E+00 0. -1.
         -2    1    6    6    0  503  0.21372831235E+03 -0.17537575003E+02  0.19838589018E+02  0.21536231716E+03  0.00000000000E+00 0.  1.
<mgrwt>
<rscale>  0 0.33913961E+04</rscale>
<asrwt>0</asrwt>
<pdfrwt beam="1">  1        1 0.30056032E+00 0.33913961E+04</pdfrwt>
<pdfrwt beam="2">  1       -2 0.22643245E+00 0.33913961E+04</pdfrwt>
<totfact> 0.20875777E-01</totfact>
</mgrwt>
</event>
<event>
12    5  0.5197392E-008  0.1777484E+04  0.7818608E-02  0.8718366E-01
          1   -1    0    0  501    0  0.00000000000E+00  0.00000000000E+00  0.13557100420E+04  0.13557100420E+04  0.00000000000E+00 0. -1.
         -2   -1    0    0    0  501 -0.00000000000E+00 -0.00000000000E+00 -0.58261894716E+03  0.58261894716E+03  0.00000000000E+00 0.  1.
        -24    2    1    2    0    0 -0.50139088146E+03  0.31802157999E+03  0.57405869141E+03  0.82974815133E+03  0.80050434804E+02 0.  0.
        254    2    1    2    0    0  0.50139088146E+03 -0.31802157999E+03  0.19903240341E+03  0.11085808378E+04  0.91477157530E+03 0.  0.
         23    2    4    4    0    0  0.14148114243E+03 -0.42712842145E+03 -0.24494473295E+03  0.52008741946E+03  0.89651545500E+02 0.  0.
         23    2    4    4    0    0  0.35990973902E+03  0.10910684146E+03  0.44397713636E+03  0.58849341833E+03  0.88144669223E+02 0.  0.
          1    1    3    3  502    0 -0.50335744586E+03  0.31685325253E+03  0.57499638581E+03  0.82727597913E+03  0.00000000000E+00 0. -1.
         -2    1    3    3    0  502  0.19665644038E+01  0.11683274576E+01 -0.93769440758E+00  0.24721722037E+01  0.00000000000E+00 0.  1.
         13    1    5    5    0    0 -0.12506611993E+02 -0.31023182439E+02 -0.23418294853E+02  0.40832214317E+02  0.00000000000E+00 0. -1.
        -13    1    5    5    0    0  0.15398775443E+03 -0.39610523901E+03 -0.22152643810E+03  0.47925520515E+03  0.00000000000E+00 0.  1.
          4    1    6    6  503    0  0.21699191121E+03  0.36949127758E+02  0.20465310715E+03  0.30055552206E+03  0.00000000000E+00 0. -1.
         -4    1    6    6    0  503  0.14291782781E+03  0.72157713705E+02  0.23932402921E+03  0.28793789628E+03  0.00000000000E+00 0.  1.
<mgrwt>
<rscale>  0 0.17774840E+04</rscale>
<asrwt>0</asrwt>
<pdfrwt beam="1">  1        1 0.20857077E+00 0.17774840E+04</pdfrwt>
<pdfrwt beam="2">  1       -2 0.89633685E-01 0.17774840E+04</pdfrwt>
<totfact> 0.73059894E+00</totfact>
</mgrwt>
</event>
<event>
12    5  0.5197392E-008  0.1793017E+04  0.7818608E-02  0.8710022E-01
          1   -1    0    0  501    0  0.00000000000E+00  0.00000000000E+00  0.23871774271E+04  0.23871774271E+04  0.00000000000E+00 0. -1.
         -2   -1    0    0    0  501 -0.00000000000E+00 -0.00000000000E+00 -0.33668510970E+03  0.33668510970E+03  0.00000000000E+00 0.  1.
        -24    2    1    2    0    0 -0.25528126517E+03 -0.28338397117E+03  0.16270934863E+04  0.16730648881E+04  0.78980423191E+02 0.  0.
        254    2    1    2    0    0  0.25528126517E+03  0.28338397117E+03  0.42339883108E+03  0.10507976487E+04  0.88285566703E+03 0.  0.
         23    2    4    4    0    0 -0.27571084168E+03  0.24692866410E+03  0.32747572038E+03  0.50298412271E+03  0.93607942435E+02 0.  0.
         23    2    4    4    0    0  0.53099210684E+03  0.36455307068E+02  0.95923110700E+02  0.54781352595E+03  0.87274332443E+02 0.  0.
          3    1    3    3  502    0 -0.23291847448E+03 -0.21295301669E+03  0.13236711650E+04  0.13607738078E+04  0.00000000000E+00 0. -1.
         -4    1    3    3    0  502 -0.22362790684E+02 -0.70430954477E+02  0.30342232130E+03  0.31229108028E+03  0.00000000000E+00 0.  1.
         13    1    5    5    0    0 -0.21421816707E+03  0.14739968271E+03  0.18764694987E+03  0.32066722215E+03  0.00000000000E+00 0.  1.
        -13    1    5    5    0    0 -0.61492674602E+02  0.99528981393E+02  0.13982877051E+03  0.18231690056E+03  0.00000000000E+00 0. -1.
          4    1    6    6  503    0  0.49351151095E+03  0.55390671144E+02  0.80575269565E+02  0.50310447419E+03  0.00000000000E+00 0.  1.
         -4    1    6    6    0  503  0.37480595893E+02 -0.18935364076E+02  0.15347841135E+02  0.44709051753E+02  0.00000000000E+00 0. -1.
<mgrwt>
<rscale>  0 0.17930166E+04</rscale>
<asrwt>0</asrwt>
<pdfrwt beam="1">  1        1 0.36725806E+00 0.17930166E+04</pdfrwt>
<pdfrwt beam="2">  1       -2 0.51797711E-01 0.17930166E+04</pdfrwt>
<totfact> 0.47361158E+00</totfact>
</mgrwt>
</event>
<event>
12    5  0.5197392E-008  0.1354931E+04  0.7818608E-02  0.8987104E-01
         -2   -1    0    0    0  501 -0.00000000000E+00  0.00000000000E+00  0.19628556464E+03  0.19628556464E+03  0.00000000000E+00 0.  1.
          1   -1    0    0  501    0  0.00000000000E+00 -0.00000000000E+00 -0.23382234138E+04  0.23382234138E+04  0.00000000000E+00 0. -1.
        -24    2    1    2    0    0 -0.58663525151E+02  0.20032949055E+03 -0.30414232685E+02  0.22702794565E+03  0.83924660177E+02 0.  0.
        254    2    1    2    0    0  0.58663525151E+02 -0.20032949055E+03 -0.21115236165E+04  0.23074810328E+04  0.90684255512E+03 0.  0.
         23    2    4    4    0    0 -0.26928233442E+03 -0.40599715756E+03 -0.84308965572E+03  0.97804567687E+03  0.91796028662E+02 0.  0.
         23    2    4    4    0    0  0.32794585957E+03  0.20566766701E+03 -0.12684339608E+04  0.13294353559E+04  0.92876136430E+02 0.  0.
          1    1    3    3  502    0  0.21505292185E+02  0.33529049029E+02 -0.77398832776E+01  0.40578079229E+02  0.00000000000E+00 0. -1.
         -2    1    3    3    0  502 -0.80168817336E+02  0.16680044153E+03 -0.22674349408E+02  0.18644986642E+03  0.00000000000E+00 0.  1.
         13    1    5    5    0    0 -0.25949000169E+03 -0.39403442231E+03 -0.83814700024E+03  0.96181525302E+03  0.00000000000E+00 0. -1.
        -13    1    5    5    0    0 -0.97923327261E+01 -0.11962735258E+02 -0.49426554880E+01  0.16230423850E+02  0.00000000000E+00 0.  1.
          1    1    6    6  503    0  0.23920698709E+03  0.12658226174E+03 -0.99774131117E+03  0.10337943585E+04  0.00000000000E+00 0. -1.
         -1    1    6    6    0  503  0.88738872477E+02  0.79085405272E+02 -0.27069264961E+03  0.29564099744E+03  0.00000000000E+00 0.  1.
<mgrwt>
<rscale>  0 0.13549310E+04</rscale>
<asrwt>0</asrwt>
<pdfrwt beam="1">  1        1 0.35972668E+00 0.13549310E+04</pdfrwt>
<pdfrwt beam="2">  1       -2 0.30197779E-01 0.13549310E+04</pdfrwt>
<totfact> 0.15289652E+01</totfact>
</mgrwt>
</event>
<event>
12    5  0.5197392E-008  0.1087819E+04  0.7818608E-02  0.9217146E-01
         -2   -1    0    0    0  501 -0.00000000000E+00  0.00000000000E+00  0.95182174377E+02  0.95182174377E+02  0.00000000000E+00 0.  1.
          1   -1    0    0  501    0  0.00000000000E+00 -0.00000000000E+00 -0.31081202029E+04  0.31081202029E+04  0.00000000000E+00 0. -1.
        -24    2    1    2    0    0 -0.11576404798E+02  0.14395048973E+03 -0.28685997072E+03  0.33045186950E+03  0.77807702778E+02 0.  0.
        254    2    1    2    0    0  0.11576404798E+02 -0.14395048973E+03 -0.27260780578E+04  0.28728505078E+04  0.89493726382E+03 0.  0.
         23    2    4    4    0    0 -0.14795759871E+03  0.24399784583E+03 -0.36172939324E+03  0.46944889727E+03  0.90042842181E+02 0.  0.
         23    2    4    4    0    0  0.15953400351E+03 -0.38794833556E+03 -0.23643486646E+04  0.24034016105E+04  0.10119132585E+03 0.  0.
          3    1    3    3  502    0  0.15181983883E+02  0.57963952930E+02 -0.18514904031E+03  0.19460339052E+03  0.00000000000E+00 0. -1.
         -4    1    3    3    0  502 -0.26758388681E+02  0.85986536802E+02 -0.10171093041E+03  0.13584847898E+03  0.00000000000E+00 0.  1.
         13    1    5    5    0    0  0.11608095433E+02  0.14975003018E+02 -0.34341348743E+02  0.39221509768E+02  0.00000000000E+00 0. -1.
        -13    1    5    5    0    0 -0.15956569414E+03  0.22902284281E+03 -0.32738804449E+03  0.43022738750E+03  0.00000000000E+00 0.  1.
          3    1    6    6  503    0  0.60097770461E+02 -0.14367793541E+03 -0.62176450764E+03  0.64097284974E+03  0.00000000000E+00 0. -1.
         -3    1    6    6    0  503  0.99436233048E+02 -0.24427040015E+03 -0.17425841570E+04  0.17624287608E+04  0.00000000000E+00 0.  1.
<mgrwt>
<rscale>  0 0.10878192E+04</rscale>
<asrwt>0</asrwt>
<pdfrwt beam="1">  1        1 0.47817226E+00 0.10878192E+04</pdfrwt>
<pdfrwt beam="2">  1       -2 0.14643414E-01 0.10878192E+04</pdfrwt>
<totfact> 0.16262572E+01</totfact>
</mgrwt>
</event>
<event>
12    5  0.5197392E-008  0.1861084E+04  0.7818608E-02  0.8674473E-01
          1   -1    0    0  501    0  0.00000000000E+00  0.00000000000E+00  0.53892174043E+03  0.53892174043E+03  0.00000000000E+00 0. -1.
         -2   -1    0    0    0  501 -0.00000000000E+00 -0.00000000000E+00 -0.16067426248E+04  0.16067426248E+04  0.00000000000E+00 0.  1.
        -24    2    1    2    0    0  0.20101075041E+03  0.80031372668E+02  0.37134621415E+03  0.43723296882E+03  0.80400969341E+02 0.  0.
        254    2    1    2    0    0 -0.20101075041E+03 -0.80031372668E+02 -0.14391670985E+04  0.17084313964E+04  0.89483269742E+03 0.  0.
         23    2    4    4    0    0  0.33179856425E+03  0.26326124431E+01 -0.77773064497E+03  0.85048415784E+03  0.91439207886E+02 0.  0.
         23    2    4    4    0    0 -0.53280931465E+03 -0.82663985111E+02 -0.66143645355E+03  0.85794723855E+03  0.88635105072E+02 0.  0.
          1    1    3    3  502    0  0.18795057889E+03  0.63235484679E+02  0.36437972498E+03  0.41484542977E+03  0.00000000000E+00 0. -1.
         -2    1    3    3    0  502  0.13060171519E+02  0.16795887989E+02  0.69664891752E+01  0.22387539053E+02  0.00000000000E+00 0.  1.
         13    1    5    5    0    0  0.20351096879E+03  0.28030567840E+02 -0.56006604270E+03  0.59655376902E+03  0.00000000000E+00 0.  1.
        -13    1    5    5    0    0  0.12828759546E+03 -0.25397955396E+02 -0.21766460227E+03  0.25393038882E+03  0.00000000000E+00 0. -1.
          2    1    6    6  503    0 -0.16354049916E+03 -0.26899221812E+02 -0.27097721551E+03  0.31764400564E+03  0.00000000000E+00 0. -1.
         -2    1    6    6    0  503 -0.36926881550E+03 -0.55764763299E+02 -0.39045923804E+03  0.54030323291E+03  0.00000000000E+00 0.  1.
<mgrwt>
<rscale>  0 0.18610841E+04</rscale>
<asrwt>0</asrwt>
<pdfrwt beam="1">  1        1 0.82911037E-01 0.18610841E+04</pdfrwt>
<pdfrwt beam="2">  1       -2 0.24719117E+00 0.18610841E+04</pdfrwt>
<totfact> 0.21931827E+00</totfact>
</mgrwt>
</event>
<event>
12    5  0.5197392E-008  0.2860474E+04  0.7818608E-02  0.8284736E-01
          1   -1    0    0  501    0  0.00000000000E+00  0.00000000000E+00  0.22195186653E+04  0.22195186653E+04  0.00000000000E+00 0. -1.
         -4   -1    0    0    0  501 -0.00000000000E+00 -0.00000000000E+00 -0.92163150825E+03  0.92163150825E+03  0.00000000000E+00 0.  1.
        -24    2    1    2    0    0  0.68348357442E+03  0.22788435942E+03 -0.59193156774E+03  0.93533985037E+03  0.73461398257E+02 0.  0.
        254    2    1    2    0    0 -0.68348357442E+03 -0.22788435942E+03  0.18898187248E+04  0.22058103232E+04  0.88039950676E+03 0.  0.
         23    2    4    4    0    0 -0.45657842513E+02  0.22150522532E+03  0.12465486990E+03  0.27363281352E+03  0.90481360602E+02 0.  0.
         23    2    4    4    0    0 -0.63782573191E+03 -0.44938958475E+03  0.17651638549E+04  0.19321775097E+04  0.93454968032E+02 0.  0.
          3    1    3    3  502    0  0.29144646012E+02  0.25078584248E+02 -0.41314025994E+02  0.56437527611E+02  0.00000000000E+00 0. -1.
         -4    1    3    3    0  502  0.65433892841E+03  0.20280577517E+03 -0.55061754175E+03  0.87890232276E+03  0.00000000000E+00 0.  1.
         13    1    5    5    0    0 -0.10495236279E+02  0.11327654511E+03  0.13505823888E+02  0.11456060813E+03  0.00000000000E+00 0.  1.
        -13    1    5    5    0    0 -0.35162606234E+02  0.10822868021E+03  0.11114904601E+03  0.15907220539E+03  0.00000000000E+00 0. -1.
          1    1    6    6  503    0 -0.25842747243E+03 -0.17720483067E+03  0.82354821055E+03  0.88114582540E+03  0.00000000000E+00 0. -1.
         -1    1    6    6    0  503 -0.37939825948E+03 -0.27218475408E+03  0.94161564435E+03  0.10510316843E+04  0.00000000000E+00 0.  1.
<mgrwt>
<rscale>  0 0.28604743E+04</rscale>
<asrwt>0</asrwt>
<pdfrwt beam="1">  1        1 0.34146441E+00 0.28604743E+04</pdfrwt>
<pdfrwt beam="2">  1       -4 0.14178946E+00 0.28604743E+04</pdfrwt>
<totfact> 0.30870065E-01</totfact>
</mgrwt>
</event>
<event>
12    5  0.5197392E-008  0.1763224E+04  0.7818608E-02  0.8726105E-01
          1   -1    0    0  501    0  0.00000000000E+00  0.00000000000E+00  0.19076497137E+04  0.19076497137E+04  0.00000000000E+00 0. -1.
         -2   -1    0    0    0  501 -0.00000000000E+00 -0.00000000000E+00 -0.40743313278E+03  0.40743313278E+03  0.00000000000E+00 0.  1.
        -24    2    1    2    0    0 -0.52524566308E+02 -0.56799718108E+03  0.13126680163E+03  0.59085819785E+03  0.80639996125E+02 0.  0.
        254    2    1    2    0    0  0.52524566308E+02  0.56799718108E+03  0.13689497793E+04  0.17242246487E+04  0.87951549899E+03 0.  0.
         23    2    4    4    0    0 -0.81129987212E+02 -0.10733089485E+03 -0.27453148222E+02  0.16476280138E+03  0.91055530072E+02 0.  0.
         23    2    4    4    0    0  0.13365455352E+03  0.67532807593E+03  0.13964029275E+04  0.15594618473E+04  0.89713807609E+02 0.  0.
          1    1    3    3  502    0 -0.55339856119E+02 -0.43068613354E+03  0.13086351349E+03  0.45351770028E+03  0.00000000000E+00 0. -1.
         -2    1    3    3    0  502  0.28152898109E+01 -0.13731104754E+03  0.40328814521E+00  0.13734049758E+03  0.00000000000E+00 0.  1.
         13    1    5    5    0    0 -0.36484816566E+02  0.19964926502E+01  0.14682625352E+02  0.39379021192E+02  0.00000000000E+00 0. -1.
        -13    1    5    5    0    0 -0.44645170646E+02 -0.10932738750E+03 -0.42135773575E+02  0.12538378019E+03  0.00000000000E+00 0.  1.
          2    1    6    6  503    0  0.11679260352E+03  0.55378548301E+03  0.12163000638E+04  0.13415307371E+04  0.00000000000E+00 0.  1.
         -2    1    6    6    0  503  0.16861950005E+02  0.12154259293E+03  0.18010286376E+03  0.21793111018E+03  0.00000000000E+00 0. -1.
<mgrwt>
<rscale>  0 0.17632240E+04</rscale>
<asrwt>0</asrwt>
<pdfrwt beam="1">  1        1 0.29348457E+00 0.17632240E+04</pdfrwt>
<pdfrwt beam="2">  1       -2 0.62682021E-01 0.17632240E+04</pdfrwt>
<totfact> 0.67524746E+00</totfact>
</mgrwt>
</event>
<event>
12    5  0.5197392E-008  0.1651876E+04  0.7818608E-02  0.8789297E-01
         -2   -1    0    0    0  501 -0.00000000000E+00  0.00000000000E+00  0.51939396249E+03  0.51939396249E+03  0.00000000000E+00 0.  1.
          1   -1    0    0  501    0  0.00000000000E+00 -0.00000000000E+00 -0.13134029170E+04  0.13134029170E+04  0.00000000000E+00 0. -1.
        -24    2    1    2    0    0  0.25085565528E+03 -0.10539930924E+03  0.27886052869E+03  0.39761502693E+03  0.79353267119E+02 0.  0.
        254    2    1    2    0    0 -0.25085565528E+03  0.10539930924E+03 -0.10728694832E+04  0.14351818525E+04  0.91359753051E+03 0.  0.
         23    2    4    4    0    0  0.92813062192E+02 -0.19739352658E+03 -0.91059837944E+03  0.94092774659E+03  0.92612886794E+02 0.  0.
         23    2    4    4    0    0 -0.34366871747E+03  0.30279283582E+03 -0.16227110374E+03  0.49425410596E+03  0.90352207253E+02 0.  0.
          1    1    3    3  502    0 -0.10643872736E+01 -0.78413926027E+01  0.27485360920E+02  0.28601843002E+02  0.00000000000E+00 0. -1.
         -2    1    3    3    0  502  0.25192004255E+03 -0.97557916636E+02  0.25137516777E+03  0.36901318392E+03  0.00000000000E+00 0.  1.
         13    1    5    5    0    0  0.10781534402E+02 -0.52624477458E+02 -0.40753000609E+03  0.41105508509E+03  0.00000000000E+00 0. -1.
        -13    1    5    5    0    0  0.82031527790E+02 -0.14476904913E+03 -0.50306837335E+03  0.52987266150E+03  0.00000000000E+00 0.  1.
          1    1    6    6  503    0 -0.32584259375E+02  0.11741883868E+02 -0.35928211640E+02  0.49904330348E+02  0.00000000000E+00 0. -1.
         -1    1    6    6    0  503 -0.31108445810E+03  0.29105095195E+03 -0.12634289210E+03  0.44434977561E+03  0.00000000000E+00 0.  1.
<mgrwt>
<rscale>  0 0.16518760E+04</rscale>
<asrwt>0</asrwt>
<pdfrwt beam="1">  1        1 0.20206199E+00 0.16518760E+04</pdfrwt>
<pdfrwt beam="2">  1       -2 0.79906763E-01 0.16518760E+04</pdfrwt>
<totfact> 0.10278564E+01</totfact>
</mgrwt>
</event>
<event>
12    5  0.5197392E-008  0.2183688E+04  0.7818608E-02  0.8525248E-01
          1   -1    0    0  501    0  0.00000000000E+00  0.00000000000E+00  0.13589529060E+04  0.13589529060E+04  0.00000000000E+00 0. -1.
         -2   -1    0    0    0  501 -0.00000000000E+00 -0.00000000000E+00 -0.87723657450E+03  0.87723657450E+03  0.00000000000E+00 0.  1.
        -24    2    1    2    0    0  0.60683169875E+03  0.57165154588E+03 -0.16170975156E+03  0.85270024706E+03  0.76925074347E+02 0.  0.
        254    2    1    2    0    0 -0.60683169875E+03 -0.57165154588E+03  0.64342608311E+03  0.13834892335E+04  0.89722635618E+03 0.  0.
         23    2    4    4    0    0 -0.40095701727E+03  0.16927307967E+03  0.29224395460E+03  0.53188467873E+03  0.89860320867E+02 0.  0.
         23    2    4    4    0    0 -0.20587468148E+03 -0.74092462554E+03  0.35118212851E+03  0.85160455475E+03  0.10270221557E+03 0.  0.
          3    1    3    3  502    0  0.30198100997E+02  0.48920534757E+02  0.13252832775E+01  0.57505655378E+02  0.00000000000E+00 0. -1.
         -4    1    3    3    0  502  0.57663359776E+03  0.52273101112E+03 -0.16303503484E+03  0.79519459168E+03  0.00000000000E+00 0.  1.
         13    1    5    5    0    0 -0.36970696068E+02  0.18892905191E+01  0.54943088266E+02  0.66250620636E+02  0.00000000000E+00 0. -1.
        -13    1    5    5    0    0 -0.36398632120E+03  0.16738378915E+03  0.23730086633E+03  0.46563405809E+03  0.00000000000E+00 0.  1.
          1    1    6    6  503    0 -0.36861536826E+02 -0.18223721033E+03  0.40150001228E+02  0.19021355453E+03  0.00000000000E+00 0. -1.
         -1    1    6    6    0  503 -0.16901314466E+03 -0.55868741521E+03  0.31103212728E+03  0.66139100023E+03  0.00000000000E+00 0.  1.
<mgrwt>
<rscale>  0 0.21836879E+04</rscale>
<asrwt>0</asrwt>
<pdfrwt beam="1">  1        1 0.20906968E+00 0.21836879E+04</pdfrwt>
<pdfrwt beam="2">  1       -2 0.13495947E+00 0.21836879E+04</pdfrwt>
<totfact> 0.25982608E+00</totfact>
</mgrwt>
</event>
<event>
12    5  0.5197392E-008  0.2537785E+04  0.7818608E-02  0.8389647E-01
          1   -1    0    0  501    0  0.00000000000E+00  0.00000000000E+00  0.11687423722E+04  0.11687423722E+04  0.00000000000E+00 0. -1.
         -2   -1    0    0    0  501 -0.00000000000E+00 -0.00000000000E+00 -0.13776244273E+04  0.13776244273E+04  0.00000000000E+00 0.  1.
        -24    2    1    2    0    0  0.79232723998E+03 -0.68454643343E+03 -0.44506274990E+03  0.11404823360E+04  0.78948291037E+02 0.  0.
        254    2    1    2    0    0 -0.79232723998E+03  0.68454643343E+03  0.23618069485E+03  0.14058844635E+04  0.90793365914E+03 0.  0.
         23    2    4    4    0    0 -0.83660089357E+03  0.65375241994E+03  0.45577345089E+03  0.11594543970E+04  0.96497557297E+02 0.  0.
         23    2    4    4    0    0  0.44273653590E+02  0.30794013487E+02 -0.21959275604E+03  0.24643006649E+03  0.97971278935E+02 0.  0.
          3    1    3    3  502    0  0.10471596128E+03 -0.96143282098E+02 -0.32224540036E+02  0.14576482504E+03  0.00000000000E+00 0. -1.
         -4    1    3    3    0  502  0.68761127870E+03 -0.58840315133E+03 -0.41283820986E+03  0.99471751096E+03  0.00000000000E+00 0.  1.
         13    1    5    5    0    0 -0.40466056786E+03  0.26128847801E+03  0.18348019306E+03  0.51544817894E+03  0.00000000000E+00 0. -1.
        -13    1    5    5    0    0 -0.43194032570E+03  0.39246394193E+03  0.27229325783E+03  0.64400621809E+03  0.00000000000E+00 0.  1.
          4    1    6    6  503    0 -0.84390110399E+00  0.10411988591E+02 -0.18669864889E+03  0.18699066066E+03  0.00000000000E+00 0.  1.
         -4    1    6    6    0  503  0.45117554694E+02  0.20382024896E+02 -0.32894107146E+02  0.59439405829E+02  0.00000000000E+00 0. -1.
<mgrwt>
<rscale>  0 0.25377849E+04</rscale>
<asrwt>0</asrwt>
<pdfrwt beam="1">  1        1 0.17980652E+00 0.25377849E+04</pdfrwt>
<pdfrwt beam="2">  1       -2 0.21194222E+00 0.25377849E+04</pdfrwt>
<totfact> 0.97387016E-01</totfact>
</mgrwt>
</event>
<event>
12    5  0.5519189E-008  0.1673327E+04  0.7818608E-02  0.8776725E-01
          1   -1    0    0  501    0  0.00000000000E+00  0.00000000000E+00  0.97323133337E+03  0.97323133337E+03  0.00000000000E+00 0. -1.
         -2   -1    0    0    0  501 -0.00000000000E+00 -0.00000000000E+00 -0.71925954617E+03  0.71925954617E+03  0.00000000000E+00 0.  1.
        -24    2    1    2    0    0 -0.47049801269E+03 -0.14560110727E+03  0.43077719600E+03  0.65925606711E+03  0.80507807318E+02 0.  0.
        254    2    1    2    0    0  0.47049801269E+03  0.14560110727E+03 -0.17680540880E+03  0.10332348124E+04  0.89092421825E+03 0.  0.
         23    2    4    4    0    0  0.19616972565E+03 -0.32065503448E+03 -0.27693195482E+03  0.47562551361E+03  0.90697900729E+02 0.  0.
         23    2    4    4    0    0  0.27432828704E+03  0.46625614175E+03  0.10012654603E+03  0.55760929883E+03  0.90840553350E+02 0.  0.
          3    1    3    3  502    0 -0.37243328051E+03 -0.98714689328E+02  0.29459301197E+03  0.48501152669E+03  0.00000000000E+00 0. -1.
         -4    1    3    3    0  502 -0.98064732182E+02 -0.46886417944E+02  0.13618418403E+03  0.17424454042E+03  0.00000000000E+00 0.  1.
         13    1    5    5    0    0  0.18104880864E+03 -0.22516046007E+03 -0.22253980775E+03  0.36469147223E+03  0.00000000000E+00 0. -1.
        -13    1    5    5    0    0  0.15120917018E+02 -0.95494574410E+02 -0.54392147076E+02  0.11093404138E+03  0.00000000000E+00 0.  1.
          3    1    6    6  503    0  0.22443584385E+03  0.43386681894E+03  0.97183626394E+02  0.49805272996E+03  0.00000000000E+00 0. -1.
         -3    1    6    6    0  503  0.49892443188E+02  0.32389322806E+02  0.29429196314E+01  0.59556568866E+02  0.00000000000E+00 0.  1.
<mgrwt>
<rscale>  0 0.16733271E+04</rscale>
<asrwt>0</asrwt>
<pdfrwt beam="1">  1        1 0.14972790E+00 0.16733271E+04</pdfrwt>
<pdfrwt beam="2">  1       -2 0.11065531E+00 0.16733271E+04</pdfrwt>
<totfact> 0.85994551E+00</totfact>
</mgrwt>
</event>
<event>
12    5  0.5197392E-008  0.1927393E+04  0.7818608E-02  0.8641340E-01
         -2   -1    0    0    0  501 -0.00000000000E+00  0.00000000000E+00  0.25982418065E+03  0.25982418065E+03  0.00000000000E+00 0.  1.
          1   -1    0    0  501    0  0.00000000000E+00 -0.00000000000E+00 -0.35743813438E+04  0.35743813438E+04  0.00000000000E+00 0. -1.
        -24    2    1    2    0    0 -0.99398430033E+02  0.27188211048E+03  0.81938013207E+02  0.31167086818E+03  0.81393870577E+02 0.  0.
        254    2    1    2    0    0  0.99398430033E+02 -0.27188211048E+03 -0.33964951764E+04  0.35225346563E+04  0.88784626579E+03 0.  0.
         23    2    4    4    0    0  0.14704749714E+03 -0.46097047745E+03 -0.98438142109E+03  0.11008265870E+04  0.93250442678E+02 0.  0.
         23    2    4    4    0    0 -0.47649067109E+02  0.18908836697E+03 -0.24121137553E+04  0.24217080692E+04  0.91391247144E+02 0.  0.
          1    1    3    3  502    0  0.11368212014E+02  0.12465880829E+02 -0.28909252736E+01  0.17117005526E+02  0.00000000000E+00 0. -1.
         -2    1    3    3    0  502 -0.11076664205E+03  0.25941622966E+03  0.84828938480E+02  0.29455386265E+03  0.00000000000E+00 0.  1.
         13    1    5    5    0    0  0.19103629963E+02 -0.20140881701E+03 -0.36980632185E+03  0.42152956708E+03  0.00000000000E+00 0. -1.
        -13    1    5    5    0    0  0.12794386718E+03 -0.25956166045E+03 -0.61457509924E+03  0.67929701996E+03  0.00000000000E+00 0.  1.
          2    1    6    6  503    0 -0.14284493106E+01  0.17016385077E+02 -0.49060838597E+02  0.51947701704E+02  0.00000000000E+00 0.  1.
         -2    1    6    6    0  503 -0.46220617798E+02  0.17207198189E+03 -0.23630529167E+04  0.23697603675E+04  0.00000000000E+00 0. -1.
<mgrwt>
<rscale>  0 0.19273928E+04</rscale>
<asrwt>0</asrwt>
<pdfrwt beam="1">  1        1 0.54990480E+00 0.19273928E+04</pdfrwt>
<pdfrwt beam="2">  1       -2 0.39972952E-01 0.19273928E+04</pdfrwt>
<totfact> 0.10651876E+00</totfact>
</mgrwt>
</event>
<event>
12    5  0.5197392E-008  0.1123017E+04  0.7818608E-02  0.9183043E-01
          1   -1    0    0  501    0  0.00000000000E+00  0.00000000000E+00  0.10971833133E+04  0.10971833133E+04  0.00000000000E+00 0. -1.
         -2   -1    0    0    0  501 -0.00000000000E+00 -0.00000000000E+00 -0.28736498378E+03  0.28736498378E+03  0.00000000000E+00 0.  1.
        -24    2    1    2    0    0  0.17906278438E+02  0.18186363997E+03  0.16278301763E+03  0.26552994234E+03  0.10301854736E+03 0.  0.
        254    2    1    2    0    0 -0.17906278438E+02 -0.18186363997E+03  0.64703531193E+03  0.11190183548E+04  0.89451236164E+03 0.  0.
         23    2    4    4    0    0 -0.39660535811E+03 -0.32669659288E+02  0.55980315804E+03  0.69296908196E+03  0.91997043891E+02 0.  0.
         23    2    4    4    0    0  0.37869907967E+03 -0.14919398068E+03  0.87232153896E+02  0.42604927283E+03  0.90756252615E+02 0.  0.
          1    1    3    3  502    0  0.41499402784E+01 -0.89607373575E+01  0.32743468248E+02  0.34200168585E+02  0.00000000000E+00 0. -1.
         -2    1    3    3    0  502  0.13756338159E+02  0.19082437733E+03  0.13003954938E+03  0.23132977376E+03  0.00000000000E+00 0.  1.
         13    1    5    5    0    0 -0.94397547523E+02 -0.12285798914E+02  0.20793101797E+03  0.22868569275E+03  0.00000000000E+00 0.  1.
        -13    1    5    5    0    0 -0.30220781059E+03 -0.20383860374E+02  0.35187214007E+03  0.46428338921E+03  0.00000000000E+00 0. -1.
          1    1    6    6  503    0  0.28057956458E+03 -0.98400096955E+02  0.10251398573E+03  0.31451007680E+03  0.00000000000E+00 0. -1.
         -1    1    6    6    0  503  0.98119515097E+02 -0.50793883727E+02 -0.15281831833E+02  0.11153919603E+03  0.00000000000E+00 0.  1.
<mgrwt>
<rscale>  0 0.11230175E+04</rscale>
<asrwt>0</asrwt>
<pdfrwt beam="1">  1        1 0.16879743E+00 0.11230175E+04</pdfrwt>
<pdfrwt beam="2">  1       -2 0.44209998E-01 0.11230175E+04</pdfrwt>
<totfact> 0.53919101E+01</totfact>
</mgrwt>
</event>
<event>
12    5  0.5197392E-008  0.2138177E+04  0.7818608E-02  0.8544610E-01
         -2   -1    0    0    0  501 -0.00000000000E+00  0.00000000000E+00  0.12935217447E+04  0.12935217447E+04  0.00000000000E+00 0.  1.
          1   -1    0    0  501    0  0.00000000000E+00 -0.00000000000E+00 -0.88359559223E+03  0.88359559223E+03  0.00000000000E+00 0. -1.
        -24    2    1    2    0    0 -0.36748202950E+03 -0.70343571279E+03  0.55323965311E+03  0.97073208378E+03  0.79886298382E+02 0.  0.
        254    2    1    2    0    0  0.36748202950E+03  0.70343571279E+03 -0.14331350061E+03  0.12063852532E+04  0.89719662037E+03 0.  0.
         23    2    4    4    0    0  0.53669416293E+03  0.16315207987E+03  0.11094173940E+03  0.57930334507E+03  0.92871257018E+02 0.  0.
         23    2    4    4    0    0 -0.16921213342E+03  0.54028363292E+03 -0.25425524001E+03  0.62708190812E+03  0.89704193413E+02 0.  0.
          3    1    3    3  502    0 -0.25287050729E+03 -0.52781615656E+03  0.44147983615E+03  0.73310151705E+03  0.00000000000E+00 0. -1.
         -4    1    3    3    0  502 -0.11461152222E+03 -0.17561955624E+03  0.11175981697E+03  0.23763056673E+03  0.00000000000E+00 0.  1.
         13    1    5    5    0    0  0.10319616949E+03  0.70786626824E+02  0.30994542476E+02  0.12892190504E+03  0.00000000000E+00 0.  1.
        -13    1    5    5    0    0  0.43349799344E+03  0.92365453046E+02  0.79947196920E+02  0.45038144003E+03  0.00000000000E+00 0. -1.
          3    1    6    6  503    0 -0.15519295561E+03  0.42904136772E+03 -0.23536685990E+03  0.51337988607E+03  0.00000000000E+00 0. -1.
         -3    1    6    6    0  503 -0.14019177818E+02  0.11124226521E+03 -0.18888380108E+02  0.11370202205E+03  0.00000000000E+00 0.  1.
<mgrwt>
<rscale>  0 0.21381769E+04</rscale>
<asrwt>0</asrwt>
<pdfrwt beam="1">  1        1 0.13593778E+00 0.21381769E+04</pdfrwt>
<pdfrwt beam="2">  1       -2 0.19900334E+00 0.21381769E+04</pdfrwt>
<totfact> 0.20358437E+00</totfact>
</mgrwt>
</event>
<event>
12    5  0.5197392E-008  0.2783644E+04  0.7818608E-02  0.8308364E-01
          1   -1    0    0  501    0  0.00000000000E+00  0.00000000000E+00  0.30677084566E+04  0.30677084566E+04  0.00000000000E+00 0. -1.
         -2   -1    0    0    0  501 -0.00000000000E+00 -0.00000000000E+00 -0.63147103031E+03  0.63147103031E+03  0.00000000000E+00 0.  1.
        -24    2    1    2    0    0  0.11740055212E+04  0.23388683917E+03  0.64217812358E+03  0.13607943538E+04  0.79853075092E+02 0.  0.
        254    2    1    2    0    0 -0.11740055212E+04 -0.23388683917E+03  0.17940593027E+04  0.23383851331E+04  0.90355090152E+03 0.  0.
         23    2    4    4    0    0 -0.12912199163E+04 -0.22623249174E+03  0.17371410734E+04  0.21782436652E+04  0.93039473095E+02 0.  0.
         23    2    4    4    0    0  0.11721439510E+03 -0.76543474298E+01  0.56918229308E+02  0.16014146787E+03  0.92778238032E+02 0.  0.
          1    1    3    3  502    0  0.10713992750E+04  0.20405386411E+03  0.60759836858E+03  0.12484831450E+04  0.00000000000E+00 0. -1.
         -2    1    3    3    0  502  0.10260624621E+03  0.29832975057E+02  0.34579754994E+02  0.11231120878E+03  0.00000000000E+00 0.  1.
         13    1    5    5    0    0 -0.49989431303E+03 -0.11409309617E+03  0.61798801006E+03  0.80300730967E+03  0.00000000000E+00 0.  1.
        -13    1    5    5    0    0 -0.79132560328E+03 -0.11213939557E+03  0.11191530633E+04  0.13752363555E+04  0.00000000000E+00 0. -1.
          1    1    6    6  503    0  0.12600498369E+03  0.90541327643E+01  0.34747981664E+02  0.13102158397E+03  0.00000000000E+00 0. -1.
         -1    1    6    6    0  503 -0.87905885933E+01 -0.16708480194E+02  0.22170247644E+02  0.29119883908E+02  0.00000000000E+00 0.  1.
<mgrwt>
<rscale>  0 0.27836444E+04</rscale>
<asrwt>0</asrwt>
<pdfrwt beam="1">  1        1 0.47195514E+00 0.27836444E+04</pdfrwt>
<pdfrwt beam="2">  1       -2 0.97149391E-01 0.27836444E+04</pdfrwt>
<totfact> 0.35943762E-01</totfact>
</mgrwt>
</event>
<event>
12    5  0.5197392E-008  0.1774856E+04  0.7818608E-02  0.8719786E-01
         -2   -1    0    0    0  501 -0.00000000000E+00  0.00000000000E+00  0.62231591666E+03  0.62231591666E+03  0.00000000000E+00 0.  1.
          1   -1    0    0  501    0  0.00000000000E+00 -0.00000000000E+00 -0.12654800282E+04  0.12654800282E+04  0.00000000000E+00 0. -1.
        -24    2    1    2    0    0  0.58321303278E+03  0.47066579870E+02  0.66685646572E+02  0.59453117828E+03  0.81655630147E+02 0.  0.
        254    2    1    2    0    0 -0.58321303278E+03 -0.47066579870E+02 -0.70984975812E+03  0.12932647666E+04  0.90900735577E+03 0.  0.
         23    2    4    4    0    0 -0.55950840229E+03 -0.93026260804E+02 -0.90555371153E+03  0.10715712766E+04  0.80832784051E+02 0.  0.
         23    2    4    4    0    0 -0.23704630490E+02  0.45959680934E+02  0.19570395341E+03  0.22169348997E+03  0.90408873111E+02 0.  0.
          3    1    3    3  502    0  0.47962319463E+03  0.37653662920E+02  0.22809667412E+02  0.48163937556E+03  0.00000000000E+00 0. -1.
         -4    1    3    3    0  502  0.10358983815E+03  0.94129169504E+01  0.43875979161E+02  0.11289180272E+03  0.00000000000E+00 0.  1.
         13    1    5    5    0    0 -0.13663475467E+03 -0.56762326822E+02 -0.25482645933E+03  0.29466513588E+03  0.00000000000E+00 0. -1.
        -13    1    5    5    0    0 -0.42287364762E+03 -0.36263933982E+02 -0.65072725220E+03  0.77690614074E+03  0.00000000000E+00 0.  1.
          1    1    6    6  503    0 -0.44925020889E+02  0.40986148162E+02  0.64330024599E+02  0.88523860670E+02  0.00000000000E+00 0. -1.
         -1    1    6    6    0  503  0.21220390400E+02  0.49735327712E+01  0.13137392881E+03  0.13316962930E+03  0.00000000000E+00 0.  1.
<mgrwt>
<rscale>  0 0.17748559E+04</rscale>
<asrwt>0</asrwt>
<pdfrwt beam="1">  1        1 0.19468923E+00 0.17748559E+04</pdfrwt>
<pdfrwt beam="2">  1       -2 0.95740911E-01 0.17748559E+04</pdfrwt>
<totfact> 0.72711127E+00</totfact>
</mgrwt>
</event>
<event>
12    5  0.5197392E-008  0.1055248E+04  0.7818608E-02  0.9249942E-01
         -2   -1    0    0    0  501 -0.00000000000E+00  0.00000000000E+00  0.50181722173E+03  0.50181722173E+03  0.00000000000E+00 0.  1.
          1   -1    0    0  501    0  0.00000000000E+00 -0.00000000000E+00 -0.55475841471E+03  0.55475841471E+03  0.00000000000E+00 0. -1.
        -24    2    1    2    0    0 -0.11969977406E+02  0.22974745772E+02 -0.13070412190E+03  0.15512417384E+03  0.79428096576E+02 0.  0.
        254    2    1    2    0    0  0.11969977406E+02 -0.22974745772E+02  0.77762928912E+02  0.90145146260E+03  0.89771740933E+03 0.  0.
         23    2    4    4    0    0 -0.11140902184E+03 -0.21487359587E+03 -0.33248548609E+03  0.42119059085E+03  0.90952091866E+02 0.  0.
         23    2    4    4    0    0  0.12337899925E+03  0.19189885009E+03  0.41024841500E+03  0.48026087175E+03  0.10148495851E+03 0.  0.
          3    1    3    3  502    0  0.19891117384E+02 -0.17815231948E+02 -0.72364435194E+02  0.77133977735E+02  0.00000000000E+00 0. -1.
         -4    1    3    3    0  502 -0.31861094791E+02  0.40789977721E+02 -0.58339686704E+02  0.77990196104E+02  0.00000000000E+00 0.  1.
         13    1    5    5    0    0 -0.80098224080E+02 -0.11703662679E+03 -0.25762754745E+03  0.29408374779E+03  0.00000000000E+00 0. -1.
        -13    1    5    5    0    0 -0.31310797763E+02 -0.97836969079E+02 -0.74857938632E+02  0.12710684305E+03  0.00000000000E+00 0.  1.
          1    1    6    6  503    0 -0.11051009147E+02  0.44479257526E+00  0.46375597115E+02  0.47676185369E+02  0.00000000000E+00 0. -1.
         -1    1    6    6    0  503  0.13443000840E+03  0.19145405752E+03  0.36387281788E+03  0.43258468638E+03  0.00000000000E+00 0.  1.
<mgrwt>
<rscale>  0 0.10552485E+04</rscale>
<asrwt>0</asrwt>
<pdfrwt beam="1">  1        1 0.85347448E-01 0.10552485E+04</pdfrwt>
<pdfrwt beam="2">  1       -2 0.77202650E-01 0.10552485E+04</pdfrwt>
<totfact> 0.50189487E+01</totfact>
</mgrwt>
</event>
<event>
12    5  0.5197392E-008  0.1247034E+04  0.7818608E-02  0.9072655E-01
          1   -1    0    0  501    0  0.00000000000E+00  0.00000000000E+00  0.40564372294E+03  0.40564372294E+03  0.00000000000E+00 0. -1.
         -2   -1    0    0    0  501 -0.00000000000E+00 -0.00000000000E+00 -0.95841186312E+03  0.95841186312E+03  0.00000000000E+00 0.  1.
        -24    2    1    2    0    0  0.81688430222E+02  0.27484509014E+03 -0.10714051527E+03  0.31698414356E+03  0.82383457356E+02 0.  0.
        254    2    1    2    0    0 -0.81688430222E+02 -0.27484509014E+03 -0.44562762491E+03  0.10470714425E+04  0.90308460424E+03 0.  0.
         23    2    4    4    0    0 -0.22973318397E+03 -0.32256085201E+03  0.14394920031E+03  0.43084661819E+03  0.89914387428E+02 0.  0.
         23    2    4    4    0    0  0.14804475375E+03  0.47715761866E+02 -0.58957682522E+03  0.61622482432E+03  0.89096342412E+02 0.  0.
          3    1    3    3  502    0  0.33927894078E+02  0.41897096678E+02  0.48680973253E+01  0.54131017709E+02  0.00000000000E+00 0. -1.
         -4    1    3    3    0  502  0.47760536144E+02  0.23294799346E+03 -0.11200861260E+03  0.26285312585E+03  0.00000000000E+00 0.  1.
         13    1    5    5    0    0 -0.19121834412E+03 -0.23200861797E+03  0.14181349875E+03  0.33242070087E+03  0.00000000000E+00 0. -1.
        -13    1    5    5    0    0 -0.38514839852E+02 -0.90552234039E+02  0.21357015615E+01  0.98425917315E+02  0.00000000000E+00 0.  1.
          2    1    6    6  503    0  0.73950231472E+02  0.22810459297E+02 -0.44678088245E+03  0.45343368943E+03  0.00000000000E+00 0. -1.
         -2    1    6    6    0  503  0.74094522277E+02  0.24905302569E+02 -0.14279594277E+03  0.16279113489E+03  0.00000000000E+00 0.  1.
<mgrwt>
<rscale>  0 0.12470345E+04</rscale>
<asrwt>0</asrwt>
<pdfrwt beam="1">  1        1 0.62406727E-01 0.12470345E+04</pdfrwt>
<pdfrwt beam="2">  1       -2 0.14744798E+00 0.12470345E+04</pdfrwt>
<totfact> 0.15896855E+01</totfact>
</mgrwt>
</event>
<event>
12    5  0.5197392E-008  0.2498737E+04  0.7818608E-02  0.8403436E-01
         -2   -1    0    0    0  501 -0.00000000000E+00  0.00000000000E+00  0.48890282977E+03  0.48890282977E+03  0.00000000000E+00 0.  1.
          1   -1    0    0  501    0  0.00000000000E+00 -0.00000000000E+00 -0.31927031559E+04  0.31927031559E+04  0.00000000000E+00 0. -1.
        -24    2    1    2    0    0 -0.96007306937E+03 -0.42015849235E+03 -0.15462535052E+04  0.18696360779E+04  0.79785362088E+02 0.  0.
        254    2    1    2    0    0  0.96007306937E+03  0.42015849235E+03 -0.11575468208E+04  0.18119699078E+04  0.91926429657E+03 0.  0.
         23    2    4    4    0    0  0.55252557335E+03  0.25128599121E+03 -0.49460830974E+02  0.61591977621E+03  0.92095810608E+02 0.  0.
         23    2    4    4    0    0  0.40754749601E+03  0.16887250114E+03 -0.11080859899E+04  0.11960501316E+04  0.89824679741E+02 0.  0.
          3    1    3    3  502    0 -0.77690873727E+03 -0.35636087324E+03 -0.12098353695E+04  0.14813108652E+04  0.00000000000E+00 0. -1.
         -4    1    3    3    0  502 -0.18316433210E+03 -0.63797619112E+02 -0.33641813570E+03  0.38832521266E+03  0.00000000000E+00 0.  1.
         13    1    5    5    0    0  0.33992069824E+03  0.18389770064E+03  0.43069719483E+01  0.38650096429E+03  0.00000000000E+00 0. -1.
        -13    1    5    5    0    0  0.21260487511E+03  0.67388290575E+02 -0.53767802922E+02  0.22941881191E+03  0.00000000000E+00 0.  1.
          2    1    6    6  503    0  0.57143848779E+02  0.22764017929E+02 -0.86001118540E+02  0.10573463177E+03  0.00000000000E+00 0. -1.
         -2    1    6    6    0  503  0.35040364724E+03  0.14610848321E+03 -0.10220848713E+04  0.10903154998E+04  0.00000000000E+00 0.  1.
<mgrwt>
<rscale>  0 0.24987370E+04</rscale>
<asrwt>0</asrwt>
<pdfrwt beam="1">  1        1 0.49118512E+00 0.24987370E+04</pdfrwt>
<pdfrwt beam="2">  1       -2 0.75215818E-01 0.24987370E+04</pdfrwt>
<totfact> 0.53376481E-01</totfact>
</mgrwt>
</event>
<event>
12    5  0.5197392E-008  0.1179452E+04  0.7818608E-02  0.9131034E-01
          1   -1    0    0  501    0  0.00000000000E+00  0.00000000000E+00  0.99235231111E+03  0.99235231111E+03  0.00000000000E+00 0. -1.
         -2   -1    0    0    0  501 -0.00000000000E+00 -0.00000000000E+00 -0.35045708149E+03  0.35045708149E+03  0.00000000000E+00 0.  1.
        -24    2    1    2    0    0  0.15378114872E+03 -0.26733574966E+02 -0.77814189475E+02  0.19170562202E+03  0.79578085551E+02 0.  0.
        254    2    1    2    0    0 -0.15378114872E+03  0.26733574966E+02  0.71970941910E+03  0.11511037706E+04  0.88470046736E+03 0.  0.
         23    2    4    4    0    0  0.93358975670E+01 -0.40382215397E+03  0.44331035496E+03  0.60647224444E+03  0.90138900791E+02 0.  0.
         23    2    4    4    0    0 -0.16311704629E+03  0.43055572893E+03  0.27639906413E+03  0.54463152613E+03  0.90783534272E+02 0.  0.
          3    1    3    3  502    0  0.43016692660E+01  0.18039474777E+02 -0.13460882730E+02  0.22915548708E+02  0.00000000000E+00 0. -1.
         -4    1    3    3    0  502  0.14947947945E+03 -0.44773049743E+02 -0.64353306745E+02  0.16879007332E+03  0.00000000000E+00 0.  1.
         13    1    5    5    0    0 -0.18585008454E+02 -0.26169707074E+03  0.23159872579E+03  0.34995532452E+03  0.00000000000E+00 0. -1.
        -13    1    5    5    0    0  0.27920906021E+02 -0.14212508323E+03  0.21171162918E+03  0.25651691992E+03  0.00000000000E+00 0.  1.
          3    1    6    6  503    0 -0.16664643545E+03  0.34397038311E+03  0.21628392108E+03  0.43916442641E+03  0.00000000000E+00 0. -1.
         -3    1    6    6    0  503  0.35293891657E+01  0.86585345823E+02  0.60115143053E+02  0.10546709972E+03  0.00000000000E+00 0.  1.
<mgrwt>
<rscale>  0 0.11794522E+04</rscale>
<asrwt>0</asrwt>
<pdfrwt beam="1">  1        1 0.15266958E+00 0.11794522E+04</pdfrwt>
<pdfrwt beam="2">  1       -2 0.53916475E-01 0.11794522E+04</pdfrwt>
<totfact> 0.43190941E+01</totfact>
</mgrwt>
</event>
<event>
12    5  0.5197392E-008  0.1568467E+04  0.7818608E-02  0.8840158E-01
         -2   -1    0    0    0  501 -0.00000000000E+00  0.00000000000E+00  0.50621781198E+03  0.50621781198E+03  0.00000000000E+00 0.  1.
          1   -1    0    0  501    0  0.00000000000E+00 -0.00000000000E+00 -0.12149360001E+04  0.12149360001E+04  0.00000000000E+00 0. -1.
        -24    2    1    2    0    0  0.26325727925E+03  0.22003157149E+03 -0.66299431317E+03  0.75068677594E+03  0.79062562306E+02 0.  0.
        254    2    1    2    0    0 -0.26325727925E+03 -0.22003157149E+03 -0.45723874948E+02  0.97046703613E+03  0.90664067191E+03 0.  0.
         23    2    4    4    0    0  0.60219652210E+02 -0.14006458350E+03  0.38080790971E+03  0.42154218818E+03  0.97152757337E+02 0.  0.
         23    2    4    4    0    0 -0.32347693146E+03 -0.79966987988E+02 -0.42653178466E+03  0.54892484795E+03  0.91417071827E+02 0.  0.
          1    1    3    3  502    0  0.22109218627E+03  0.16593687329E+03 -0.58366720161E+03  0.64582056563E+03  0.00000000000E+00 0. -1.
         -4    1    3    3    0  502  0.42165092976E+02  0.54094698201E+02 -0.79327111554E+02  0.10486621032E+03  0.00000000000E+00 0.  1.
         13    1    5    5    0    0  0.65174528899E+02 -0.15312188236E+03  0.35817373135E+03  0.39494613798E+03  0.00000000000E+00 0.  1.
        -13    1    5    5    0    0 -0.49548766892E+01  0.13057298860E+02  0.22634178357E+02  0.26596050203E+02  0.00000000000E+00 0. -1.
          1    1    6    6  503    0 -0.16090798140E+03 -0.43144940146E+02 -0.14077996425E+03  0.21810974915E+03  0.00000000000E+00 0. -1.
         -1    1    6    6    0  503 -0.16256895005E+03 -0.36822047842E+02 -0.28575182041E+03  0.33081509880E+03  0.00000000000E+00 0.  1.
<mgrwt>
<rscale>  0 0.15684671E+04</rscale>
<asrwt>0</asrwt>
<pdfrwt beam="1">  1        1 0.18691323E+00 0.15684671E+04</pdfrwt>
<pdfrwt beam="2">  1       -2 0.77879664E-01 0.15684671E+04</pdfrwt>
<totfact> 0.12909136E+01</totfact>
</mgrwt>
</event>
<event>
12    5  0.5197392E-008  0.1317083E+04  0.7818608E-02  0.9016127E-01
          1   -1    0    0  501    0  0.00000000000E+00  0.00000000000E+00  0.22554868743E+03  0.22554868743E+03  0.00000000000E+00 0. -1.
         -2   -1    0    0    0  501 -0.00000000000E+00 -0.00000000000E+00 -0.19227632589E+04  0.19227632589E+04  0.00000000000E+00 0.  1.
        -24    2    1    2    0    0 -0.33600767868E+03  0.82588190049E+02 -0.43606604495E+03  0.56262366013E+03  0.81668954373E+02 0.  0.
        254    2    1    2    0    0  0.33600767868E+03 -0.82588190049E+02 -0.12611485265E+04  0.15856882862E+04  0.89676628271E+03 0.  0.
         23    2    4    4    0    0 -0.27485139195E+02 -0.16897236097E+03  0.65391256949E+02  0.20395039599E+03  0.89513439720E+02 0.  0.
         23    2    4    4    0    0  0.36349281788E+03  0.86384170925E+02 -0.13265397835E+04  0.13817378902E+04  0.99511539483E+02 0.  0.
          3    1    3    3  502    0 -0.50540664809E+02  0.15550845600E+02 -0.12188802554E+03  0.13286413500E+03  0.00000000000E+00 0. -1.
         -4    1    3    3    0  502 -0.28546701387E+03  0.67037344450E+02 -0.31417801940E+03  0.42975952513E+03  0.00000000000E+00 0.  1.
         13    1    5    5    0    0  0.30356632693E+02 -0.83741649608E+02  0.19490583253E+02  0.91181532468E+02  0.00000000000E+00 0.  1.
        -13    1    5    5    0    0 -0.57841771888E+02 -0.85230711366E+02  0.45900673696E+02  0.11276886353E+03  0.00000000000E+00 0. -1.
          1    1    6    6  503    0  0.35611488059E+03  0.84566268323E+02 -0.11907261125E+04  0.12457118193E+04  0.00000000000E+00 0. -1.
         -1    1    6    6    0  503  0.73779372908E+01  0.18179026021E+01 -0.13581367098E+03  0.13602607086E+03  0.00000000000E+00 0.  1.
<mgrwt>
<rscale>  0 0.13170827E+04</rscale>
<asrwt>0</asrwt>
<pdfrwt beam="1">  1        1 0.34699796E-01 0.13170827E+04</pdfrwt>
<pdfrwt beam="2">  1       -2 0.29580975E+00 0.13170827E+04</pdfrwt>
<totfact> 0.36904735E+00</totfact>
</mgrwt>
</event>
<event>
12    5  0.5197392E-008  0.1681453E+04  0.7818608E-02  0.8772014E-01
          1   -1    0    0  501    0  0.00000000000E+00  0.00000000000E+00  0.33484907398E+03  0.33484907398E+03  0.00000000000E+00 0. -1.
         -2   -1    0    0    0  501 -0.00000000000E+00 -0.00000000000E+00 -0.21108651461E+04  0.21108651461E+04  0.00000000000E+00 0.  1.
        -24    2    1    2    0    0 -0.40241840238E+03 -0.33257197364E+03 -0.21615343060E+03  0.57020211428E+03  0.76573215587E+02 0.  0.
        254    2    1    2    0    0  0.40241840238E+03  0.33257197364E+03 -0.15598626415E+04  0.18755121058E+04  0.90101582137E+03 0.  0.
         23    2    4    4    0    0  0.50546207530E+03  0.26174639004E+03 -0.39313799929E+03  0.69769497604E+03  0.90651590438E+02 0.  0.
         23    2    4    4    0    0 -0.10304367291E+03  0.70825583603E+02 -0.11667246422E+04  0.11778171297E+04  0.10184566043E+03 0.  0.
          3    1    3    3  502    0 -0.32969587017E+03 -0.28690510160E+03 -0.20776354181E+03  0.48392106117E+03  0.00000000000E+00 0. -1.
         -4    1    3    3    0  502 -0.72722532209E+02 -0.45666872039E+02 -0.83898887832E+01  0.86281053115E+02  0.00000000000E+00 0.  1.
         13    1    5    5    0    0  0.31904397477E+03  0.17758421522E+03 -0.30168513761E+03  0.47364452239E+03  0.00000000000E+00 0.  1.
        -13    1    5    5    0    0  0.18641810052E+03  0.84162174815E+02 -0.91452861676E+02  0.22405045365E+03  0.00000000000E+00 0. -1.
          2    1    6    6  503    0 -0.88286398042E+02  0.96981475347E+02 -0.93395648045E+03  0.94311961172E+03  0.00000000000E+00 0. -1.
         -2    1    6    6    0  503 -0.14757274872E+02 -0.26155891745E+02 -0.23276816174E+03  0.23469751800E+03  0.00000000000E+00 0.  1.
<mgrwt>
<rscale>  0 0.16814532E+04</rscale>
<asrwt>0</asrwt>
<pdfrwt beam="1">  1        1 0.51515240E-01 0.16814532E+04</pdfrwt>
<pdfrwt beam="2">  1       -2 0.32474849E+00 0.16814532E+04</pdfrwt>
<totfact> 0.14201532E+00</totfact>
</mgrwt>
</event>
<event>
12    5  0.5197392E-008  0.1377506E+04  0.7818608E-02  0.8970264E-01
         -2   -1    0    0    0  501 -0.00000000000E+00  0.00000000000E+00  0.35041108109E+03  0.35041108109E+03  0.00000000000E+00 0.  1.
          1   -1    0    0  501    0  0.00000000000E+00 -0.00000000000E+00 -0.13537827730E+04  0.13537827730E+04  0.00000000000E+00 0. -1.
        -24    2    1    2    0    0 -0.15013233651E+03 -0.15651889742E+03 -0.72187244209E+03  0.75794631031E+03  0.79654899064E+02 0.  0.
        254    2    1    2    0    0  0.15013233651E+03  0.15651889742E+03 -0.28149924982E+03  0.94624754379E+03  0.87698614741E+03 0.  0.
         23    2    4    4    0    0 -0.11751573896E+03  0.41853731442E+03 -0.33697932062E+03  0.55660657905E+03  0.85278302363E+02 0.  0.
         23    2    4    4    0    0  0.26764807547E+03 -0.26201841700E+03  0.55480070801E+02  0.38964096473E+03  0.91939654062E+02 0.  0.
          1    1    3    3  502    0 -0.13397809405E+03 -0.16354081593E+03 -0.63382015428E+03  0.66814947140E+03  0.00000000000E+00 0. -1.
         -2    1    3    3    0  502 -0.16154242462E+02  0.70219185152E+01 -0.88052287812E+02  0.89796838909E+02  0.00000000000E+00 0.  1.
         13    1    5    5    0    0 -0.11992604837E+03  0.28914197896E+03 -0.22545863734E+03  0.38576798497E+03  0.00000000000E+00 0.  1.
        -13    1    5    5    0    0  0.24103094046E+01  0.12939533546E+03 -0.11152068328E+03  0.17083859409E+03  0.00000000000E+00 0. -1.
          1    1    6    6  503    0  0.12572117465E+03 -0.18641094116E+03  0.34160616747E+02  0.22742427416E+03  0.00000000000E+00 0. -1.
         -1    1    6    6    0  503  0.14192690082E+03 -0.75607475843E+02  0.21319454053E+02  0.16221669057E+03  0.00000000000E+00 0.  1.
<mgrwt>
<rscale>  0 0.13775057E+04</rscale>
<asrwt>0</asrwt>
<pdfrwt beam="1">  1        1 0.20827427E+00 0.13775057E+04</pdfrwt>
<pdfrwt beam="2">  1       -2 0.53909398E-01 0.13775057E+04</pdfrwt>
<totfact> 0.23000099E+01</totfact>
</mgrwt>
</event>
<event>
12    5  0.5197392E-008  0.1807921E+04  0.7818608E-02  0.8702098E-01
          3   -1    0    0  501    0  0.00000000000E+00  0.00000000000E+00  0.23953171670E+04  0.23953171670E+04  0.00000000000E+00 0. -1.
         -4   -1    0    0    0  501 -0.00000000000E+00 -0.00000000000E+00 -0.34114260503E+03  0.34114260503E+03  0.00000000000E+00 0.  1.
        -24    2    1    2    0    0  0.36389454057E+03 -0.51164862818E+03  0.40072166746E+03  0.74924569516E+03  0.81164657143E+02 0.  0.
        254    2    1    2    0    0 -0.36389454057E+03  0.51164862818E+03  0.16534528945E+04  0.19872140769E+04  0.90604070417E+03 0.  0.
         23    2    4    4    0    0 -0.19795426074E+02 -0.15469712191E+03  0.90632393116E+03  0.92434745253E+03  0.93124037583E+02 0.  0.
         23    2    4    4    0    0 -0.34409911449E+03  0.66634575009E+03  0.74712896335E+03  0.10628666244E+04  0.95199338409E+02 0.  0.
          1    1    3    3  502    0  0.13045573368E+02 -0.10522344676E+02 -0.19523202018E+01  0.16873597013E+02  0.00000000000E+00 0. -1.
         -2    1    3    3    0  502  0.35084896720E+03 -0.50112628350E+03  0.40267398766E+03  0.73237209815E+03  0.00000000000E+00 0.  1.
         13    1    5    5    0    0  0.18171837587E+02 -0.11327673962E+03  0.44240948842E+03  0.45704265760E+03  0.00000000000E+00 0. -1.
        -13    1    5    5    0    0 -0.37967263661E+02 -0.41420382290E+02  0.46391444274E+03  0.46730479493E+03  0.00000000000E+00 0.  1.
          3    1    6    6  503    0 -0.17894290706E+03  0.27381679449E+03  0.37188232769E+03  0.49527029649E+03  0.00000000000E+00 0. -1.
         -3    1    6    6    0  503 -0.16515620743E+03  0.39252895560E+03  0.37524663566E+03  0.56759632787E+03  0.00000000000E+00 0.  1.
<mgrwt>
<rscale>  0 0.18079212E+04</rscale>
<asrwt>0</asrwt>
<pdfrwt beam="1">  1        3 0.36851032E+00 0.18079212E+04</pdfrwt>
<pdfrwt beam="2">  1       -4 0.52483479E-01 0.18079212E+04</pdfrwt>
<totfact> 0.12418566E-01</totfact>
</mgrwt>
</event>
<event>
12    5  0.5197392E-008  0.2886731E+04  0.7818608E-02  0.8276836E-01
         -2   -1    0    0    0  501 -0.00000000000E+00  0.00000000000E+00  0.17376911087E+04  0.17376911087E+04  0.00000000000E+00 0.  1.
          1   -1    0    0  501    0  0.00000000000E+00 -0.00000000000E+00 -0.11988917104E+04  0.11988917104E+04  0.00000000000E+00 0. -1.
        -24    2    1    2    0    0  0.61014944548E+03 -0.85247040760E+03 -0.54092666507E+03  0.11823588708E+04  0.79891806242E+02 0.  0.
        254    2    1    2    0    0 -0.61014944548E+03  0.85247040760E+03  0.10797260633E+04  0.17542239483E+04  0.90139067397E+03 0.  0.
         23    2    4    4    0    0 -0.74646309087E+03  0.85136547586E+03  0.11084445393E+04  0.15874710367E+04  0.96874538137E+02 0.  0.
         23    2    4    4    0    0  0.13631364540E+03  0.11049317388E+01 -0.28718476001E+02  0.16675291152E+03  0.91646886701E+02 0.  0.
          3    1    3    3  502    0  0.57410791685E+03 -0.76945460668E+03 -0.48074785512E+03  0.10736753663E+04  0.00000000000E+00 0. -1.
         -4    1    3    3    0  502  0.36041528630E+02 -0.83015800926E+02 -0.60178809951E+02  0.10868350453E+03  0.00000000000E+00 0.  1.
         13    1    5    5    0    0 -0.59310850872E+03  0.62240114811E+03  0.86857148205E+03  0.12221200071E+04  0.00000000000E+00 0.  1.
        -13    1    5    5    0    0 -0.15335458215E+03  0.22896432775E+03  0.23987305729E+03  0.36535102965E+03  0.00000000000E+00 0. -1.
          2    1    6    6  503    0 -0.11113579304E+01  0.51045966706E+01 -0.28799702904E+02  0.29269692704E+02  0.00000000000E+00 0. -1.
         -2    1    6    6    0  503  0.13742500333E+03 -0.39996649318E+01  0.81226902708E-01  0.13748321882E+03  0.00000000000E+00 0.  1.
<mgrwt>
<rscale>  0 0.28867307E+04</rscale>
<asrwt>0</asrwt>
<pdfrwt beam="1">  1        1 0.18444488E+00 0.28867307E+04</pdfrwt>
<pdfrwt beam="2">  1       -2 0.26733710E+00 0.28867307E+04</pdfrwt>
<totfact> 0.40627937E-01</totfact>
</mgrwt>
</event>
<event>
12    5  0.5197392E-008  0.1458273E+04  0.7818608E-02  0.8912685E-01
         -2   -1    0    0    0  501 -0.00000000000E+00  0.00000000000E+00  0.84659933310E+03  0.84659933310E+03  0.00000000000E+00 0.  1.
          1   -1    0    0  501    0  0.00000000000E+00 -0.00000000000E+00 -0.62797119240E+03  0.62797119240E+03  0.00000000000E+00 0. -1.
        -24    2    1    2    0    0 -0.27553614845E+03 -0.29376946341E+03 -0.12289747010E+03  0.42865508074E+03  0.80129416282E+02 0.  0.
        254    2    1    2    0    0  0.27553614845E+03  0.29376946341E+03  0.34152561080E+03  0.10459154448E+04  0.90281709555E+03 0.  0.
         23    2    4    4    0    0  0.24473355790E+03  0.54452920009E+03 -0.74857716226E+01  0.60515323929E+03  0.98731160932E+02 0.  0.
         23    2    4    4    0    0  0.30802590545E+02 -0.25075973667E+03  0.34901138242E+03  0.44076220547E+03  0.92914646796E+02 0.  0.
          1    1    3    3  502    0 -0.21133426861E+03 -0.22563242904E+03 -0.12867624437E+03  0.33485779368E+03  0.00000000000E+00 0. -1.
         -2    1    3    3    0  502 -0.64201879836E+02 -0.68137034373E+02  0.57787742730E+01  0.93797287059E+02  0.00000000000E+00 0.  1.
         13    1    5    5    0    0  0.15713902220E+03  0.42410192285E+03 -0.35339193258E+02  0.45365622650E+03  0.00000000000E+00 0. -1.
        -13    1    5    5    0    0  0.87594535706E+02  0.12042727723E+03  0.27853421635E+02  0.15149701279E+03  0.00000000000E+00 0.  1.
          2    1    6    6  503    0  0.44630870165E+01  0.73584858227E+01  0.52687791788E+01  0.10090911423E+02  0.00000000000E+00 0. -1.
         -2    1    6    6    0  503  0.26339503529E+02 -0.25811822250E+03  0.34374260324E+03  0.43067129405E+03  0.00000000000E+00 0.  1.
<mgrwt>
<rscale>  0 0.14582729E+04</rscale>
<asrwt>0</asrwt>
<pdfrwt beam="1">  1        1 0.96610953E-01 0.14582729E+04</pdfrwt>
<pdfrwt beam="2">  1       -2 0.13024605E+00 0.14582729E+04</pdfrwt>
<totfact> 0.11762198E+01</totfact>
</mgrwt>
</event>
<event>
12    5  0.5197392E-008  0.1079324E+04  0.7818608E-02  0.9225581E-01
         -2   -1    0    0    0  501 -0.00000000000E+00  0.00000000000E+00  0.14482903565E+03  0.14482903565E+03  0.00000000000E+00 0.  1.
          1   -1    0    0  501    0  0.00000000000E+00 -0.00000000000E+00 -0.20108900711E+04  0.20108900711E+04  0.00000000000E+00 0. -1.
        -24    2    1    2    0    0  0.29904338985E+02  0.10305679435E+03 -0.12798469951E+03  0.19374494852E+03  0.98193937778E+02 0.  0.
        254    2    1    2    0    0 -0.29904338985E+02 -0.10305679435E+03 -0.17380763359E+04  0.19619741582E+04  0.90383531447E+03 0.  0.
         23    2    4    4    0    0  0.22663719309E+03 -0.38236688063E+02 -0.56572057591E+02  0.25729770191E+03  0.10087243479E+03 0.  0.
         23    2    4    4    0    0 -0.25654153208E+03 -0.64820106287E+02 -0.16815042783E+04  0.17046764563E+04  0.91923766196E+02 0.  0.
          1    1    3    3  502    0 -0.92536741341E+01  0.21792113159E+02 -0.94665549968E+02  0.97581212493E+02  0.00000000000E+00 0. -1.
         -2    1    3    3    0  502  0.39158013119E+02  0.81264681192E+02 -0.33319149546E+02  0.96163736029E+02  0.00000000000E+00 0.  1.
         13    1    5    5    0    0  0.21445587151E+03 -0.50899163292E+01 -0.39695683687E+02  0.21815814305E+03  0.00000000000E+00 0.  1.
        -13    1    5    5    0    0  0.12181321582E+02 -0.33146771734E+02 -0.16876373904E+02  0.39139558863E+02  0.00000000000E+00 0. -1.
          1    1    6    6  503    0 -0.81763232897E+01 -0.22736797421E+02 -0.83006587783E+02  0.86451765945E+02  0.00000000000E+00 0. -1.
         -1    1    6    6    0  503 -0.24836520879E+03 -0.42083308866E+02 -0.15984976906E+04  0.16182246904E+04  0.00000000000E+00 0.  1.
<mgrwt>
<rscale>  0 0.10793244E+04</rscale>
<asrwt>0</asrwt>
<pdfrwt beam="1">  1        1 0.30936769E+00 0.10793244E+04</pdfrwt>
<pdfrwt beam="2">  1       -2 0.22281391E-01 0.10793244E+04</pdfrwt>
<totfact> 0.45445385E+01</totfact>
</mgrwt>
</event>
<event>
12    5  0.1015434E-007  0.2193166E+04  0.7818608E-02  0.8521278E-01
         -2   -1    0    0    0  501 -0.00000000000E+00  0.00000000000E+00  0.74400182813E+03  0.74400182813E+03  0.00000000000E+00 0.  1.
          1   -1    0    0  501    0  0.00000000000E+00 -0.00000000000E+00 -0.16162525015E+04  0.16162525015E+04  0.00000000000E+00 0. -1.
        -24    2    1    2    0    0  0.65915240465E+03  0.46061321248E+03  0.60949855607E+02  0.81129639721E+03  0.88546796448E+02 0.  0.
        254    2    1    2    0    0 -0.65915240465E+03 -0.46061321248E+03 -0.93320052895E+03  0.15489579324E+04  0.93902131235E+03 0.  0.
         23    2    4    4    0    0 -0.71610031416E+03 -0.67785565833E+03 -0.79390463945E+03  0.12692242106E+04  0.91419728762E+02 0.  0.
         23    2    4    4    0    0  0.56947909508E+02  0.21724244584E+03 -0.13929588950E+03  0.27973372179E+03  0.91707500243E+02 0.  0.
          1    1    3    3  502    0  0.12555024484E+03  0.79858299962E+02  0.45492292902E+02  0.15559486099E+03  0.00000000000E+00 0. -1.
         -2    1    3    3    0  502  0.53360215981E+03  0.38075491252E+03  0.15457562705E+02  0.65570153622E+03  0.00000000000E+00 0.  1.
         13    1    5    5    0    0 -0.25508504067E+03 -0.19679241042E+03 -0.22338480942E+03  0.39204132927E+03  0.00000000000E+00 0.  1.
        -13    1    5    5    0    0 -0.46101527349E+03 -0.48106324790E+03 -0.57051983002E+03  0.87718288134E+03  0.00000000000E+00 0. -1.
          4    1    6    6  503    0  0.34473199714E+02  0.20685691999E+03 -0.97755403360E+02  0.23137481654E+03  0.00000000000E+00 0. -1.
         -4    1    6    6    0  503  0.22474709794E+02  0.10385525858E+02 -0.41540486143E+02  0.48358905247E+02  0.00000000000E+00 0.  1.
<mgrwt>
<rscale>  0 0.21931665E+04</rscale>
<asrwt>0</asrwt>
<pdfrwt beam="1">  1        1 0.24865423E+00 0.21931665E+04</pdfrwt>
<pdfrwt beam="2">  1       -2 0.11446182E+00 0.21931665E+04</pdfrwt>
<totfact> 0.25983271E+00</totfact>
</mgrwt>
</event>
<event>
12    5  0.5197392E-008  0.2536411E+04  0.7818608E-02  0.8390128E-01
         -2   -1    0    0    0  501 -0.00000000000E+00  0.00000000000E+00  0.12060391801E+04  0.12060391801E+04  0.00000000000E+00 0.  1.
          1   -1    0    0  501    0  0.00000000000E+00 -0.00000000000E+00 -0.13335758217E+04  0.13335758217E+04  0.00000000000E+00 0. -1.
        -24    2    1    2    0    0  0.53546222168E+03 -0.96758975301E+03 -0.93736020337E+02  0.11126387169E+04  0.78922442762E+02 0.  0.
        254    2    1    2    0    0 -0.53546222168E+03  0.96758975301E+03 -0.33800621319E+02  0.14269762848E+04  0.90120425792E+03 0.  0.
         23    2    4    4    0    0 -0.66779482181E+03  0.10487054893E+04 -0.30029828797E+02  0.12469332968E+04  0.90596515226E+02 0.  0.
         23    2    4    4    0    0  0.13233260013E+03 -0.81115736329E+02 -0.37707925218E+01  0.18004298806E+03  0.91156891868E+02 0.  0.
          1    1    3    3  502    0  0.35891917316E+03 -0.69785350707E+03 -0.39525781222E+02  0.78573836458E+03  0.00000000000E+00 0. -1.
         -4    1    3    3    0  502  0.17654304852E+03 -0.26973624593E+03 -0.54210239115E+02  0.32690035236E+03  0.00000000000E+00 0.  1.
         13    1    5    5    0    0 -0.11286364888E+03  0.12500457082E+03  0.89138371954E+01  0.16865290527E+03  0.00000000000E+00 0. -1.
        -13    1    5    5    0    0 -0.55493117294E+03  0.92370091851E+03 -0.38943665993E+02  0.10782803915E+04  0.00000000000E+00 0.  1.
          2    1    6    6  503    0 -0.12476778044E+02 -0.91801857757E+01 -0.96383739124E+01  0.18244014167E+02  0.00000000000E+00 0. -1.
         -2    1    6    6    0  503  0.14480937818E+03 -0.71935550553E+02  0.58675813906E+01  0.16179897389E+03  0.00000000000E+00 0.  1.
<mgrwt>
<rscale>  0 0.25364106E+04</rscale>
<asrwt>0</asrwt>
<pdfrwt beam="1">  1        1 0.20516551E+00 0.25364106E+04</pdfrwt>
<pdfrwt beam="2">  1       -2 0.18554449E+00 0.25364106E+04</pdfrwt>
<totfact> 0.11054867E+00</totfact>
</mgrwt>
</event>
<event>
12    5  0.5197392E-008  0.1162162E+04  0.7818608E-02  0.9146636E-01
         -2   -1    0    0    0  501 -0.00000000000E+00  0.00000000000E+00  0.49420184604E+03  0.49420184604E+03  0.00000000000E+00 0.  1.
          1   -1    0    0  501    0  0.00000000000E+00 -0.00000000000E+00 -0.68323350078E+03  0.68323350078E+03  0.00000000000E+00 0. -1.
        -24    2    1    2    0    0 -0.20554377158E+03  0.49008634129E+02 -0.86941372081E+02  0.24254011196E+03  0.81343810301E+02 0.  0.
        254    2    1    2    0    0  0.20554377158E+03 -0.49008634129E+02 -0.10209028266E+03  0.93489523486E+03  0.90496220148E+03 0.  0.
         23    2    4    4    0    0  0.39904175618E+03 -0.25597239624E+03  0.18966605923E+03  0.51845100122E+03  0.89788840206E+02 0.  0.
         23    2    4    4    0    0 -0.19349798460E+03  0.20696376211E+03 -0.29175634189E+03  0.41644423365E+03  0.89602275831E+02 0.  0.
          3    1    3    3  502    0  0.58671360664E+01  0.39011517041E+01 -0.11686117393E+02  0.13645790925E+02  0.00000000000E+00 0. -1.
         -4    1    3    3    0  502 -0.21141090765E+03  0.45107482425E+02 -0.75255254688E+02  0.22889432104E+03  0.00000000000E+00 0.  1.
         13    1    5    5    0    0  0.32356813933E+03 -0.22299739152E+03  0.12087331845E+03  0.41113809909E+03  0.00000000000E+00 0. -1.
        -13    1    5    5    0    0  0.75473616854E+02 -0.32975004712E+02  0.68792740788E+02  0.10731290212E+03  0.00000000000E+00 0.  1.
          1    1    6    6  503    0 -0.15688225845E+03  0.19905384176E+03 -0.22048868361E+03  0.33593114552E+03  0.00000000000E+00 0. -1.
         -1    1    6    6    0  503 -0.36615726146E+02  0.79099203490E+01 -0.71267658289E+02  0.80513088123E+02  0.00000000000E+00 0.  1.
<mgrwt>
<rscale>  0 0.11621622E+04</rscale>
<asrwt>0</asrwt>
<pdfrwt beam="1">  1        1 0.10511285E+00 0.11621622E+04</pdfrwt>
<pdfrwt beam="2">  1       -2 0.76031054E-01 0.11621622E+04</pdfrwt>
<totfact> 0.38058667E+01</totfact>
</mgrwt>
</event>
<event>
12    5  0.5197392E-008  0.3130162E+04  0.7818608E-02  0.8207509E-01
          1   -1    0    0  501    0  0.00000000000E+00  0.00000000000E+00  0.18387636092E+04  0.18387636092E+04  0.00000000000E+00 0. -1.
         -2   -1    0    0    0  501 -0.00000000000E+00 -0.00000000000E+00 -0.13321332282E+04  0.13321332282E+04  0.00000000000E+00 0.  1.
        -24    2    1    2    0    0  0.72151206337E+03 -0.46436681151E+03 -0.93678123451E+03  0.12718310301E+04  0.61472714865E+02 0.  0.
        254    2    1    2    0    0 -0.72151206337E+03  0.46436681151E+03  0.14434116154E+04  0.18990658073E+04  0.88701615287E+03 0.  0.
         23    2    4    4    0    0  0.17172046038E+03  0.18025156817E+03  0.16709176225E+03  0.31248701172E+03  0.88033693217E+02 0.  0.
         23    2    4    4    0    0 -0.89323252375E+03  0.28411524334E+03  0.12763198532E+04  0.15865787955E+04  0.98255248220E+02 0.  0.
          3    1    3    3  502    0  0.43236881278E+03 -0.29865543767E+03 -0.60920391223E+03  0.80452922097E+03  0.00000000000E+00 0. -1.
         -4    1    3    3    0  502  0.28914325059E+03 -0.16571137384E+03 -0.32757732228E+03  0.46730180917E+03  0.00000000000E+00 0.  1.
         13    1    5    5    0    0  0.16714698815E+03  0.18882798777E+03  0.15172266429E+03  0.29430238102E+03  0.00000000000E+00 0. -1.
        -13    1    5    5    0    0  0.45734722300E+01 -0.85764196087E+01  0.15369097960E+02  0.18184630699E+02  0.00000000000E+00 0.  1.
          2    1    6    6  503    0 -0.15065487825E+03  0.15994202231E+02  0.23935311854E+03  0.28327128729E+03  0.00000000000E+00 0. -1.
         -2    1    6    6    0  503 -0.74257764549E+03  0.26812104111E+03  0.10369667347E+04  0.13033075082E+04  0.00000000000E+00 0.  1.
<mgrwt>
<rscale>  0 0.31301617E+04</rscale>
<asrwt>0</asrwt>
<pdfrwt beam="1">  1        1 0.28288671E+00 0.31301617E+04</pdfrwt>
<pdfrwt beam="2">  1       -2 0.20494357E+00 0.31301617E+04</pdfrwt>
<totfact> 0.35020517E-01</totfact>
</mgrwt>
</event>
<event>
12    5  0.5197392E-008  0.2433818E+04  0.7818608E-02  0.8426950E-01
          1   -1    0    0  501    0  0.00000000000E+00  0.00000000000E+00  0.79191840133E+03  0.79191840133E+03  0.00000000000E+00 0. -1.
         -2   -1    0    0    0  501 -0.00000000000E+00 -0.00000000000E+00 -0.18699750789E+04  0.18699750789E+04  0.00000000000E+00 0.  1.
        -24    2    1    2    0    0  0.14752270744E+03 -0.90620006373E+03  0.90282681298E+02  0.92598036808E+03  0.79543540318E+02 0.  0.
        254    2    1    2    0    0 -0.14752270744E+03  0.90620006373E+03 -0.11683393588E+04  0.17359131121E+04  0.89744970372E+03 0.  0.
         23    2    4    4    0    0  0.12774926263E+03  0.68820313572E+03 -0.11781601655E+04  0.13734769189E+04  0.91837034454E+02 0.  0.
         23    2    4    4    0    0 -0.27527197007E+03  0.21799692801E+03  0.98208066663E+01  0.36243619328E+03  0.89253727232E+02 0.  0.
          1    1    3    3  502    0  0.15452772345E+03 -0.80916477968E+03  0.90024108000E+02  0.82869222152E+03  0.00000000000E+00 0. -1.
         -2    1    3    3    0  502 -0.70050160097E+01 -0.97035284056E+02  0.25857329746E+00  0.97288146561E+02  0.00000000000E+00 0.  1.
         13    1    5    5    0    0  0.37386399412E+01  0.25186767066E+03 -0.39743825043E+03  0.47054060809E+03  0.00000000000E+00 0. -1.
        -13    1    5    5    0    0  0.12401062269E+03  0.43633546507E+03 -0.78072191508E+03  0.90293631077E+03  0.00000000000E+00 0.  1.
          2    1    6    6  503    0 -0.38067645726E+02  0.60503630269E+02 -0.24684276072E+02  0.75625051485E+02  0.00000000000E+00 0. -1.
         -2    1    6    6    0  503 -0.23720432434E+03  0.15749329774E+03  0.34505082738E+02  0.28681114179E+03  0.00000000000E+00 0.  1.
<mgrwt>
<rscale>  0 0.24338181E+04</rscale>
<asrwt>0</asrwt>
<pdfrwt beam="1">  1        1 0.12183360E+00 0.24338181E+04</pdfrwt>
<pdfrwt beam="2">  1       -2 0.28768847E+00 0.24338181E+04</pdfrwt>
<totfact> 0.66547371E-01</totfact>
</mgrwt>
</event>
<event>
12    5  0.5197392E-008  0.1063647E+04  0.7818608E-02  0.9241366E-01
          1   -1    0    0  501    0  0.00000000000E+00  0.00000000000E+00  0.40999609009E+03  0.40999609009E+03  0.00000000000E+00 0. -1.
         -2   -1    0    0    0  501 -0.00000000000E+00 -0.00000000000E+00 -0.68985158319E+03  0.68985158319E+03  0.00000000000E+00 0.  1.
        -24    2    1    2    0    0  0.18254435361E+02 -0.76431235359E+02  0.75205466560E+02  0.13297037395E+03  0.76487253836E+02 0.  0.
        254    2    1    2    0    0 -0.18254435361E+02  0.76431235359E+02 -0.35506095965E+03  0.96687729933E+03  0.89588418266E+03 0.  0.
         23    2    4    4    0    0  0.19738229718E+03  0.39915897253E+03 -0.36092325791E+02  0.45629790851E+03  0.92830322287E+02 0.  0.
         23    2    4    4    0    0 -0.21563673254E+03 -0.32272773717E+03 -0.31896863386E+03  0.51057939082E+03  0.91092986454E+02 0.  0.
          3    1    3    3  502    0  0.39579782705E+02 -0.66555751295E+02  0.31999665297E+02  0.83786668442E+02  0.00000000000E+00 0. -1.
         -4    1    3    3    0  502 -0.21325347344E+02 -0.98754840632E+01  0.43205801263E+02  0.49183705509E+02  0.00000000000E+00 0.  1.
         13    1    5    5    0    0  0.15871280197E+03  0.37562289772E+03 -0.44693020685E+02  0.41021918641E+03  0.00000000000E+00 0. -1.
        -13    1    5    5    0    0  0.38669495213E+02  0.23536074808E+02  0.86006948944E+01  0.46078722096E+02  0.00000000000E+00 0.  1.
          2    1    6    6  503    0 -0.19680025365E+03 -0.22585309468E+03 -0.22950844776E+03  0.37737791113E+03  0.00000000000E+00 0. -1.
         -2    1    6    6    0  503 -0.18836478890E+02 -0.96874642494E+02 -0.89460186098E+02  0.13320147969E+03  0.00000000000E+00 0.  1.
<mgrwt>
<rscale>  0 0.10636474E+04</rscale>
<asrwt>0</asrwt>
<pdfrwt beam="1">  1        1 0.63076322E-01 0.10636474E+04</pdfrwt>
<pdfrwt beam="2">  1       -2 0.10613101E+00 0.10636474E+04</pdfrwt>
<totfact> 0.36292461E+01</totfact>
</mgrwt>
</event>
<event>
12    5  0.5197392E-008  0.2639655E+04  0.7818608E-02  0.8354855E-01
         -2   -1    0    0    0  501 -0.00000000000E+00  0.00000000000E+00  0.15428513501E+04  0.15428513501E+04  0.00000000000E+00 0.  1.
          1   -1    0    0  501    0  0.00000000000E+00 -0.00000000000E+00 -0.11290427309E+04  0.11290427309E+04  0.00000000000E+00 0. -1.
        -24    2    1    2    0    0 -0.56019566224E+03 -0.75408940746E+03  0.86190841749E+03  0.12773235187E+04  0.78735232774E+02 0.  0.
        254    2    1    2    0    0  0.56019566224E+03  0.75408940746E+03 -0.44809979826E+03  0.13945705623E+04  0.92820450851E+03 0.  0.
         23    2    4    4    0    0  0.58053562300E+03  0.85114030258E+03 -0.12143459099E+03  0.10413201215E+04  0.90220903242E+02 0.  0.
         23    2    4    4    0    0 -0.20339960758E+02 -0.97050895119E+02 -0.32666520726E+03  0.35325044077E+03  0.90791662724E+02 0.  0.
          1    1    3    3  502    0 -0.14517742501E+03 -0.14419773327E+03  0.17263786822E+03  0.26771870416E+03  0.00000000000E+00 0. -1.
         -2    1    3    3    0  502 -0.41501823723E+03 -0.60989167419E+03  0.68927054927E+03  0.10096048146E+04  0.00000000000E+00 0.  1.
         13    1    5    5    0    0  0.44671833705E+03  0.71496132339E+03 -0.10779870008E+03  0.84991030488E+03  0.00000000000E+00 0. -1.
        -13    1    5    5    0    0  0.13381728595E+03  0.13617897919E+03 -0.13635890913E+02  0.19140981666E+03  0.00000000000E+00 0.  1.
          1    1    6    6  503    0 -0.15049168736E+02 -0.11480649528E+03 -0.27601143345E+03  0.29931475111E+03  0.00000000000E+00 0. -1.
         -1    1    6    6    0  503 -0.52907920229E+01  0.17755600160E+02 -0.50653773819E+02  0.53935689663E+02  0.00000000000E+00 0.  1.
<mgrwt>
<rscale>  0 0.26396554E+04</rscale>
<asrwt>0</asrwt>
<pdfrwt beam="1">  1        1 0.17369888E+00 0.26396554E+04</pdfrwt>
<pdfrwt beam="2">  1       -2 0.23736175E+00 0.26396554E+04</pdfrwt>
<totfact> 0.71426484E-01</totfact>
</mgrwt>
</event>
<event>
12    5  0.5197392E-008  0.2347104E+04  0.7818608E-02  0.8459577E-01
          1   -1    0    0  501    0  0.00000000000E+00  0.00000000000E+00  0.17075445784E+04  0.17075445784E+04  0.00000000000E+00 0. -1.
         -2   -1    0    0    0  501 -0.00000000000E+00 -0.00000000000E+00 -0.80655223337E+03  0.80655223337E+03  0.00000000000E+00 0.  1.
        -24    2    1    2    0    0 -0.89976733449E+03  0.28793126474E+03  0.38347172828E+02  0.94886251069E+03  0.79899243399E+02 0.  0.
        254    2    1    2    0    0  0.89976733449E+03 -0.28793126474E+03  0.86264517221E+03  0.15652343011E+04  0.90184037099E+03 0.  0.
         23    2    4    4    0    0  0.19338893735E+03  0.71800977426E+02  0.71941281009E+03  0.75446378886E+03  0.95426180516E+02 0.  0.
         23    2    4    4    0    0  0.70637839714E+03 -0.35973224217E+03  0.14323236213E+03  0.81077051224E+03  0.91954270958E+02 0.  0.
          1    1    3    3  502    0 -0.73622294099E+03  0.23677104776E+03  0.43721190435E+00  0.77335951475E+03  0.00000000000E+00 0. -1.
         -2    1    3    3    0  502 -0.16354439350E+03  0.51160216981E+02  0.37909960924E+02  0.17550299594E+03  0.00000000000E+00 0.  1.
         13    1    5    5    0    0  0.15227151181E+03  0.16798599870E+02  0.56631331437E+03  0.58666819950E+03  0.00000000000E+00 0. -1.
        -13    1    5    5    0    0  0.41117425542E+02  0.55002377555E+02  0.15309949571E+03  0.16779558936E+03  0.00000000000E+00 0.  1.
          3    1    6    6  503    0  0.27856278913E+02 -0.10057194053E+02  0.24146480618E+02  0.38212196395E+02  0.00000000000E+00 0. -1.
         -3    1    6    6    0  503  0.67852211823E+03 -0.34967504812E+03  0.11908588151E+03  0.77255831584E+03  0.00000000000E+00 0.  1.
<mgrwt>
<rscale>  0 0.23471037E+04</rscale>
<asrwt>0</asrwt>
<pdfrwt beam="1">  1        1 0.26269917E+00 0.23471037E+04</pdfrwt>
<pdfrwt beam="2">  1       -2 0.12408496E+00 0.23471037E+04</pdfrwt>
<totfact> 0.18187773E+00</totfact>
</mgrwt>
</event>
<event>
12    5  0.5197392E-008  0.1460335E+04  0.7818608E-02  0.8911267E-01
          1   -1    0    0  501    0  0.00000000000E+00  0.00000000000E+00  0.12635930397E+04  0.12635930397E+04  0.00000000000E+00 0. -1.
         -2   -1    0    0    0  501 -0.00000000000E+00 -0.00000000000E+00 -0.42192745377E+03  0.42192745377E+03  0.00000000000E+00 0.  1.
        -24    2    1    2    0    0 -0.13779390165E+03 -0.40668215043E+03  0.43107281461E+03  0.61237654467E+03  0.69308947175E+02 0.  0.
        254    2    1    2    0    0  0.13779390165E+03  0.40668215043E+03  0.41059277130E+03  0.10731439488E+04  0.89368561594E+03 0.  0.
         23    2    4    4    0    0  0.32025994812E+02  0.64580551363E+03  0.10576711846E+03  0.66129377740E+03  0.89623383673E+02 0.  0.
         23    2    4    4    0    0  0.10576790684E+03 -0.23912336320E+03  0.30482565283E+03  0.41185017137E+03  0.91296506452E+02 0.  0.
          1    1    3    3  502    0 -0.40550485841E+02 -0.22426310284E+03  0.23794235815E+03  0.32947662588E+03  0.00000000000E+00 0. -1.
         -2    1    3    3    0  502 -0.97243415807E+02 -0.18241904759E+03  0.19313045646E+03  0.28289991879E+03  0.00000000000E+00 0.  1.
         13    1    5    5    0    0  0.42059778051E+02  0.16272140663E+03  0.47184800195E+02  0.17456714030E+03  0.00000000000E+00 0. -1.
        -13    1    5    5    0    0 -0.10033783239E+02  0.48308410700E+03  0.58582318265E+02  0.48672663709E+03  0.00000000000E+00 0.  1.
          4    1    6    6  503    0  0.75872662898E+01  0.42547059599E+01 -0.11173005541E+01  0.87702618596E+01  0.00000000000E+00 0. -1.
         -4    1    6    6    0  503  0.98180640546E+02 -0.24337806916E+03  0.30594295339E+03  0.40307990952E+03  0.00000000000E+00 0.  1.
<mgrwt>
<rscale>  0 0.14603350E+04</rscale>
<asrwt>0</asrwt>
<pdfrwt beam="1">  1        1 0.19439893E+00 0.14603350E+04</pdfrwt>
<pdfrwt beam="2">  1       -2 0.64911917E-01 0.14603350E+04</pdfrwt>
<totfact> 0.17905259E+01</totfact>
</mgrwt>
</event>
<event>
12    5  0.5197392E-008  0.1809434E+04  0.7818608E-02  0.8701299E-01
         -2   -1    0    0    0  501 -0.00000000000E+00  0.00000000000E+00  0.63061647554E+03  0.63061647554E+03  0.00000000000E+00 0.  1.
          1   -1    0    0  501    0  0.00000000000E+00 -0.00000000000E+00 -0.12979568731E+04  0.12979568731E+04  0.00000000000E+00 0. -1.
        -24    2    1    2    0    0  0.27333139065E+03  0.58979500162E+03 -0.53480317492E+02  0.65774825411E+03  0.84878904208E+02 0.  0.
        254    2    1    2    0    0 -0.27333139065E+03 -0.58979500162E+03 -0.61386008006E+03  0.12708250945E+04  0.90310798353E+03 0.  0.
         23    2    4    4    0    0 -0.15479860323E+02 -0.59651776514E+03 -0.52216441641E+01  0.60403540275E+03  0.93586494759E+02 0.  0.
         23    2    4    4    0    0 -0.25785153033E+03  0.67227635220E+01 -0.60863843590E+03  0.66678969177E+03  0.87379289050E+02 0.  0.
          1    1    3    3  502    0  0.28811756834E+02  0.92579699706E+02 -0.35867853547E+02  0.10338095109E+03  0.00000000000E+00 0. -1.
         -2    1    3    3    0  502  0.24451963382E+03  0.49721530191E+03 -0.17612463945E+02  0.55436730303E+03  0.00000000000E+00 0.  1.
         13    1    5    5    0    0  0.29269137795E+02 -0.24007236288E+03  0.26987193700E+02  0.24335104370E+03  0.00000000000E+00 0. -1.
        -13    1    5    5    0    0 -0.44748998119E+02 -0.35644540226E+03 -0.32208837864E+02  0.36068435905E+03  0.00000000000E+00 0.  1.
          2    1    6    6  503    0 -0.25340089564E+03 -0.18703268712E+01 -0.52897645772E+03  0.58654207424E+03  0.00000000000E+00 0. -1.
         -2    1    6    6    0  503 -0.44506346912E+01  0.85930903932E+01 -0.79661978183E+02  0.80247617533E+02  0.00000000000E+00 0.  1.
<mgrwt>
<rscale>  0 0.18094342E+04</rscale>
<asrwt>0</asrwt>
<pdfrwt beam="1">  1        1 0.19968567E+00 0.18094342E+04</pdfrwt>
<pdfrwt beam="2">  1       -2 0.97017921E-01 0.18094342E+04</pdfrwt>
<totfact> 0.66606916E+00</totfact>
</mgrwt>
</event>
<event>
12    5  0.5197392E-008  0.2507622E+04  0.7818608E-02  0.8400275E-01
         -2   -1    0    0    0  501 -0.00000000000E+00  0.00000000000E+00  0.48123796416E+03  0.48123796416E+03  0.00000000000E+00 0.  1.
          1   -1    0    0  501    0  0.00000000000E+00 -0.00000000000E+00 -0.32666625239E+04  0.32666625239E+04  0.00000000000E+00 0. -1.
        -24    2    1    2    0    0  0.45564529416E+03  0.44578106658E+03 -0.25802333290E+04  0.26590509380E+04  0.81329363949E+02 0.  0.
        254    2    1    2    0    0 -0.45564529416E+03 -0.44578106658E+03 -0.20519123066E+03  0.10888495500E+04  0.85857818976E+03 0.  0.
         23    2    4    4    0    0 -0.81519177471E+02 -0.56853603441E+02 -0.46398202984E+03  0.48297344214E+03  0.90035066952E+02 0.  0.
         23    2    4    4    0    0 -0.37412611669E+03 -0.38892746314E+03  0.25879079918E+03  0.60587610783E+03  0.94224505994E+02 0.  0.
          3    1    3    3  502    0  0.21754565088E+03  0.23169404037E+03 -0.14441301099E+04  0.14786886126E+04  0.00000000000E+00 0. -1.
         -2    1    3    3    0  502  0.23809964328E+03  0.21408702621E+03 -0.11361032191E+04  0.11803623255E+04  0.00000000000E+00 0.  1.
         13    1    5    5    0    0  0.89961669716E+00 -0.11079982096E+02 -0.17843716025E+01  0.11258743068E+02  0.00000000000E+00 0.  1.
        -13    1    5    5    0    0 -0.82418794169E+02 -0.45773621345E+02 -0.46219765824E+03  0.47171469908E+03  0.00000000000E+00 0. -1.
          1    1    6    6  503    0 -0.36108733826E+03 -0.36337121494E+03  0.21972364202E+03  0.55740576294E+03  0.00000000000E+00 0. -1.
         -1    1    6    6    0  503 -0.13038778424E+02 -0.25556248203E+02  0.39067157165E+02  0.48470344892E+02  0.00000000000E+00 0.  1.
<mgrwt>
<rscale>  0 0.25076220E+04</rscale>
<asrwt>0</asrwt>
<pdfrwt beam="1">  1        1 0.50256344E+00 0.25076220E+04</pdfrwt>
<pdfrwt beam="2">  1       -2 0.74036613E-01 0.25076220E+04</pdfrwt>
<totfact> 0.48586081E-01</totfact>
</mgrwt>
</event>
<event>
12    5  0.5197392E-008  0.1464068E+04  0.7818608E-02  0.8908705E-01
         -2   -1    0    0    0  501 -0.00000000000E+00  0.00000000000E+00  0.93514072727E+03  0.93514072727E+03  0.00000000000E+00 0.  1.
          1   -1    0    0  501    0  0.00000000000E+00 -0.00000000000E+00 -0.57304081117E+03  0.57304081117E+03  0.00000000000E+00 0. -1.
        -24    2    1    2    0    0  0.41303368254E+03  0.18348112518E+03  0.13528038736E+03  0.47820795712E+03  0.78229922887E+02 0.  0.
        254    2    1    2    0    0 -0.41303368254E+03 -0.18348112518E+03  0.22681952874E+03  0.10299735813E+04  0.89729389465E+03 0.  0.
         23    2    4    4    0    0 -0.31708773645E+00  0.11950921758E+03 -0.27168332049E+03  0.30999882335E+03  0.89470052058E+02 0.  0.
         23    2    4    4    0    0 -0.41271659481E+03 -0.30299034275E+03  0.49850284923E+03  0.71997475797E+03  0.87865954666E+02 0.  0.
          1    1    3    3  502    0  0.31876683576E+03  0.16106019536E+03  0.13354345833E+03  0.38129586593E+03  0.00000000000E+00 0. -1.
         -2    1    3    3    0  502  0.94266846779E+02  0.22420929819E+02  0.17369290216E+01  0.96912091186E+02  0.00000000000E+00 0.  1.
         13    1    5    5    0    0  0.27732150080E+01  0.46341165459E+02 -0.25109541399E+02  0.52779573765E+02  0.00000000000E+00 0.  1.
        -13    1    5    5    0    0 -0.30903027444E+01  0.73168052118E+02 -0.24657377909E+03  0.25721924958E+03  0.00000000000E+00 0. -1.
          3    1    6    6  503    0 -0.34218971048E+03 -0.27717480005E+03  0.45490821361E+03  0.63313596530E+03  0.00000000000E+00 0. -1.
         -3    1    6    6    0  503 -0.70526884324E+02 -0.25815542702E+02  0.43594635618E+02  0.86838792668E+02  0.00000000000E+00 0.  1.
<mgrwt>
<rscale>  0 0.14640680E+04</rscale>
<asrwt>0</asrwt>
<pdfrwt beam="1">  1        1 0.88160125E-01 0.14640680E+04</pdfrwt>
<pdfrwt beam="2">  1       -2 0.14386780E+00 0.14640680E+04</pdfrwt>
<totfact> 0.10382393E+01</totfact>
</mgrwt>
</event>
<event>
12    5  0.5197392E-008  0.1916799E+04  0.7818608E-02  0.8646539E-01
          3   -1    0    0  501    0  0.00000000000E+00  0.00000000000E+00  0.37405435429E+04  0.37405435429E+04  0.00000000000E+00 0. -1.
         -4   -1    0    0    0  501 -0.00000000000E+00 -0.00000000000E+00 -0.24556057331E+03  0.24556057331E+03  0.00000000000E+00 0.  1.
        -24    2    1    2    0    0  0.16284841370E+03 -0.53223655402E+03  0.24072236206E+04  0.24720266395E+04  0.79967439301E+02 0.  0.
        254    2    1    2    0    0 -0.16284841370E+03  0.53223655402E+03  0.10877593489E+04  0.15140774767E+04  0.89410002177E+03 0.  0.
         23    2    4    4    0    0 -0.28964651225E+03  0.31156187033E+02  0.91013381095E+03  0.96004552427E+03  0.92076298653E+02 0.  0.
         23    2    4    4    0    0  0.12679809855E+03  0.50108036699E+03  0.17762553798E+03  0.55403195242E+03  0.90781499086E+02 0.  0.
          3    1    3    3  502    0  0.66993745073E+02 -0.35038204322E+03  0.15336187661E+04  0.15745609730E+04  0.00000000000E+00 0. -1.
         -4    1    3    3    0  502  0.95854668628E+02 -0.18185451081E+03  0.87360485454E+03  0.89746566645E+03  0.00000000000E+00 0.  1.
         13    1    5    5    0    0 -0.20770165688E+03  0.87235103008E+01  0.75584050142E+03  0.78390748274E+03  0.00000000000E+00 0. -1.
        -13    1    5    5    0    0 -0.81944855371E+02  0.22432676733E+02  0.15429330953E+03  0.17613804153E+03  0.00000000000E+00 0.  1.
          1    1    6    6  503    0  0.63312398279E+02  0.40302000910E+03  0.13920901003E+03  0.43106001437E+03  0.00000000000E+00 0. -1.
         -1    1    6    6    0  503  0.63485700268E+02  0.98060357890E+02  0.38416527943E+02  0.12297193805E+03  0.00000000000E+00 0.  1.
<mgrwt>
<rscale>  0 0.19167994E+04</rscale>
<asrwt>0</asrwt>
<pdfrwt beam="1">  1        3 0.57546820E+00 0.19167994E+04</pdfrwt>
<pdfrwt beam="2">  1       -4 0.37778552E-01 0.19167994E+04</pdfrwt>
<totfact> 0.21956729E-02</totfact>
</mgrwt>
</event>
<event>
12    5  0.5197392E-008  0.1372907E+04  0.7818608E-02  0.8973667E-01
          1   -1    0    0  501    0  0.00000000000E+00  0.00000000000E+00  0.21357737474E+04  0.21357737474E+04  0.00000000000E+00 0. -1.
         -2   -1    0    0    0  501 -0.00000000000E+00 -0.00000000000E+00 -0.22063110808E+03  0.22063110808E+03  0.00000000000E+00 0.  1.
        -24    2    1    2    0    0 -0.12521862360E+03 -0.47549772900E+02  0.11537866736E+04  0.11643656468E+04  0.81135607270E+02 0.  0.
        254    2    1    2    0    0  0.12521862360E+03  0.47549772900E+02  0.76135596574E+03  0.11920392087E+04  0.90738849662E+03 0.  0.
         23    2    4    4    0    0  0.48585930898E+03 -0.65295382263E+02  0.27538987231E+03  0.56968678187E+03  0.91546122793E+02 0.  0.
         23    2    4    4    0    0 -0.36064068538E+03  0.11284515516E+03  0.48596609343E+03  0.62235242678E+03  0.91453628506E+02 0.  0.
          1    1    3    3  502    0 -0.94636344408E+01 -0.38867521929E+02  0.25624030064E+03  0.25934405008E+03  0.00000000000E+00 0. -1.
         -2    1    3    3    0  502 -0.11575498916E+03 -0.86822509712E+01  0.89754637297E+03  0.90502159677E+03  0.00000000000E+00 0.  1.
         13    1    5    5    0    0  0.10761149100E+03 -0.80781146416E+01  0.20085077158E+02  0.10976747814E+03  0.00000000000E+00 0. -1.
        -13    1    5    5    0    0  0.37824781798E+03 -0.57217267621E+02  0.25530479515E+03  0.45991930373E+03  0.00000000000E+00 0.  1.
          4    1    6    6  503    0 -0.25868163338E+03  0.76488325281E+02  0.40734654188E+03  0.48856714639E+03  0.00000000000E+00 0. -1.
         -4    1    6    6    0  503 -0.10195905200E+03  0.36356829881E+02  0.78619551548E+02  0.13378528039E+03  0.00000000000E+00 0.  1.
<mgrwt>
<rscale>  0 0.13729066E+04</rscale>
<asrwt>0</asrwt>
<pdfrwt beam="1">  1        1 0.32858056E+00 0.13729066E+04</pdfrwt>
<pdfrwt beam="2">  1       -2 0.33943249E-01 0.13729066E+04</pdfrwt>
<totfact> 0.16816864E+01</totfact>
</mgrwt>
</event>
<event>
12    5  0.5197392E-008  0.1762959E+04  0.7818608E-02  0.8726249E-01
          1   -1    0    0  501    0  0.00000000000E+00  0.00000000000E+00  0.47221170612E+03  0.47221170612E+03  0.00000000000E+00 0. -1.
         -2   -1    0    0    0  501 -0.00000000000E+00 -0.00000000000E+00 -0.16454609584E+04  0.16454609584E+04  0.00000000000E+00 0.  1.
        -24    2    1    2    0    0 -0.11180442343E+03  0.10282329213E+03 -0.11843233123E+04  0.11966861069E+04  0.79768865709E+02 0.  0.
        254    2    1    2    0    0  0.11180442343E+03 -0.10282329213E+03  0.11074060051E+02  0.92098655756E+03  0.90830652640E+03 0.  0.
         23    2    4    4    0    0 -0.14643696224E+03  0.34241180035E+03 -0.75546827922E+02  0.39105224809E+03  0.92330453264E+02 0.  0.
         23    2    4    4    0    0  0.25824138567E+03 -0.44523509248E+03  0.86620887973E+02  0.52993430947E+03  0.91674932630E+02 0.  0.
          1    1    3    3  502    0 -0.36649596814E+01  0.14728832335E+02 -0.26882238966E+02  0.30871106285E+02  0.00000000000E+00 0. -1.
         -2    1    3    3    0  502 -0.10813946375E+03  0.88094459797E+02 -0.11574410733E+04  0.11658150006E+04  0.00000000000E+00 0.  1.
         13    1    5    5    0    0 -0.24759439901E+01  0.11808237263E+02  0.15019258063E+02  0.19265068873E+02  0.00000000000E+00 0.  1.
        -13    1    5    5    0    0 -0.14396101824E+03  0.33060356309E+03 -0.90566085985E+02  0.37178717922E+03  0.00000000000E+00 0. -1.
          1    1    6    6  503    0  0.14589676163E+03 -0.33445278930E+03  0.66070118408E+02  0.37082313017E+03  0.00000000000E+00 0. -1.
         -1    1    6    6    0  503  0.11234462404E+03 -0.11078230319E+03  0.20550769565E+02  0.15911117930E+03  0.00000000000E+00 0.  1.
<mgrwt>
<rscale>  0 0.17629588E+04</rscale>
<asrwt>0</asrwt>
<pdfrwt beam="1">  1        1 0.72647954E-01 0.17629588E+04</pdfrwt>
<pdfrwt beam="2">  1       -2 0.25314784E+00 0.17629588E+04</pdfrwt>
<totfact> 0.24407728E+00</totfact>
</mgrwt>
</event>
<event>
12    5  0.5197392E-008  0.1075391E+04  0.7818608E-02  0.9229515E-01
          1   -1    0    0  501    0  0.00000000000E+00  0.00000000000E+00  0.21236333628E+04  0.21236333628E+04  0.00000000000E+00 0. -1.
         -2   -1    0    0    0  501 -0.00000000000E+00 -0.00000000000E+00 -0.13614232179E+03  0.13614232179E+03  0.00000000000E+00 0.  1.
        -24    2    1    2    0    0  0.14753574302E+03 -0.18655083528E+02  0.31403218691E+03  0.35651321603E+03  0.79816359132E+02 0.  0.
        254    2    1    2    0    0 -0.14753574302E+03  0.18655083528E+02  0.16734588541E+04  0.19032624686E+04  0.89433141522E+03 0.  0.
         23    2    4    4    0    0 -0.33948991902E+03 -0.28550245249E+03  0.12925211655E+04  0.13703071712E+04  0.10181220211E+03 0.  0.
         23    2    4    4    0    0  0.19195417601E+03  0.30415753602E+03  0.38093768859E+03  0.53295529741E+03  0.97824404150E+02 0.  0.
          3    1    3    3  502    0  0.37173625094E+02  0.76956496576E+01  0.16440136129E+03  0.16872732150E+03  0.00000000000E+00 0. -1.
         -4    1    3    3    0  502  0.11036211792E+03 -0.26350733186E+02  0.14963082562E+03  0.18778589454E+03  0.00000000000E+00 0.  1.
         13    1    5    5    0    0 -0.61196451061E+02 -0.37740379364E+02  0.11879412901E+03  0.13885743388E+03  0.00000000000E+00 0. -1.
        -13    1    5    5    0    0 -0.27829346796E+03 -0.24776207313E+03  0.11737270365E+04  0.12314497373E+04  0.00000000000E+00 0.  1.
          2    1    6    6  503    0  0.62841351692E+02  0.13219631545E+03  0.22050866161E+03  0.26466766169E+03  0.00000000000E+00 0. -1.
         -2    1    6    6    0  503  0.12911282432E+03  0.17196122056E+03  0.16042902698E+03  0.26828763572E+03  0.00000000000E+00 0.  1.
<mgrwt>
<rscale>  0 0.10753909E+04</rscale>
<asrwt>0</asrwt>
<pdfrwt beam="1">  1        1 0.32671280E+00 0.10753909E+04</pdfrwt>
<pdfrwt beam="2">  1       -2 0.20944974E-01 0.10753909E+04</pdfrwt>
<totfact> 0.42589454E+01</totfact>
</mgrwt>
</event>
<event>
12    5  0.5197392E-008  0.2637387E+04  0.7818608E-02  0.8355611E-01
          1   -1    0    0  501    0  0.00000000000E+00  0.00000000000E+00  0.28210749332E+04  0.28210749332E+04  0.00000000000E+00 0. -1.
         -2   -1    0    0    0  501 -0.00000000000E+00 -0.00000000000E+00 -0.61641501820E+03  0.61641501820E+03  0.00000000000E+00 0.  1.
        -24    2    1    2    0    0  0.55461600706E+03 -0.36666478421E+02 -0.35625970232E+03  0.66496586360E+03  0.79468725484E+02 0.  0.
        254    2    1    2    0    0 -0.55461600706E+03  0.36666478421E+02  0.25609196173E+04  0.27725240878E+04  0.90533816066E+03 0.  0.
         23    2    4    4    0    0 -0.14759641645E+03 -0.36347769692E+02  0.22243462446E+04  0.22313813394E+04  0.90777769921E+02 0.  0.
         23    2    4    4    0    0 -0.40701959061E+03  0.73014248113E+02  0.33657337273E+03  0.54114274839E+03  0.92508439298E+02 0.  0.
          3    1    3    3  502    0  0.51663078700E+03 -0.36119685748E+02 -0.30455082491E+03  0.60080213609E+03  0.00000000000E+00 0. -1.
         -4    1    3    3    0  502  0.37985220056E+02 -0.54679267249E+00 -0.51708877407E+02  0.64163727507E+02  0.00000000000E+00 0.  1.
         13    1    5    5    0    0 -0.16001389664E+03 -0.29003400695E+02  0.20407152421E+04  0.20471844919E+04  0.00000000000E+00 0.  1.
        -13    1    5    5    0    0  0.12417480190E+02 -0.73443689966E+01  0.18363100248E+03  0.18419684754E+03  0.00000000000E+00 0. -1.
          3    1    6    6  503    0 -0.30245555664E+01 -0.10686672247E+02  0.74477331203E+01  0.13372420451E+02  0.00000000000E+00 0. -1.
         -3    1    6    6    0  503 -0.40399503504E+03  0.83700920360E+02  0.32912563961E+03  0.52777032794E+03  0.00000000000E+00 0.  1.
<mgrwt>
<rscale>  0 0.26373873E+04</rscale>
<asrwt>0</asrwt>
<pdfrwt beam="1">  1        1 0.43401152E+00 0.26373873E+04</pdfrwt>
<pdfrwt beam="2">  1       -2 0.94833081E-01 0.26373873E+04</pdfrwt>
<totfact> 0.58145555E-01</totfact>
</mgrwt>
</event>
<event>
12    5  0.5197392E-008  0.2891589E+04  0.7818608E-02  0.8275384E-01
         -2   -1    0    0    0  501 -0.00000000000E+00  0.00000000000E+00  0.10270426438E+04  0.10270426438E+04  0.00000000000E+00 0.  1.
          1   -1    0    0  501    0  0.00000000000E+00 -0.00000000000E+00 -0.20352822535E+04  0.20352822535E+04  0.00000000000E+00 0. -1.
        -24    2    1    2    0    0 -0.10324500478E+04 -0.31518398509E+03 -0.12432093671E+04  0.16483149137E+04  0.77964598740E+02 0.  0.
        254    2    1    2    0    0  0.10324500478E+04  0.31518398509E+03  0.23496975740E+03  0.14140099835E+04  0.88256410591E+03 0.  0.
         23    2    4    4    0    0  0.47854196534E+03 -0.14835360060E+03 -0.22081273608E+03  0.55520948294E+03  0.92130896724E+02 0.  0.
         23    2    4    4    0    0  0.55390808241E+03  0.46353758569E+03  0.45578249347E+03  0.85880050058E+03  0.90107498766E+02 0.  0.
          3    1    3    3  502    0 -0.71415707229E+03 -0.25532601105E+03 -0.87135737689E+03  0.11551949507E+04  0.00000000000E+00 0. -1.
         -4    1    3    3    0  502 -0.31829297547E+03 -0.59857974042E+02 -0.37185199021E+03  0.49311996300E+03  0.00000000000E+00 0.  1.
         13    1    5    5    0    0  0.31722905718E+03 -0.13752057481E+03 -0.12734739454E+03  0.36846104558E+03  0.00000000000E+00 0. -1.
        -13    1    5    5    0    0  0.16131290816E+03 -0.10833025785E+02 -0.93465341536E+02  0.18674843736E+03  0.00000000000E+00 0.  1.
          3    1    6    6  503    0  0.54555290186E+03  0.45936334499E+03  0.43341295712E+03  0.83455943039E+03  0.00000000000E+00 0. -1.
         -3    1    6    6    0  503  0.83551805474E+01  0.41742407053E+01  0.22369536357E+02  0.24241070197E+02  0.00000000000E+00 0.  1.
<mgrwt>
<rscale>  0 0.28915890E+04</rscale>
<asrwt>0</asrwt>
<pdfrwt beam="1">  1        1 0.31312034E+00 0.28915890E+04</pdfrwt>
<pdfrwt beam="2">  1       -2 0.15800656E+00 0.28915890E+04</pdfrwt>
<totfact> 0.55501923E-01</totfact>
</mgrwt>
</event>
<event>
12    5  0.5197392E-008  0.1306922E+04  0.7818608E-02  0.9024094E-01
          1   -1    0    0  501    0  0.00000000000E+00  0.00000000000E+00  0.10695310920E+04  0.10695310920E+04  0.00000000000E+00 0. -1.
         -2   -1    0    0    0  501 -0.00000000000E+00 -0.00000000000E+00 -0.39925081309E+03  0.39925081309E+03  0.00000000000E+00 0.  1.
        -24    2    1    2    0    0  0.38750521910E+02 -0.24144068484E+03 -0.80473867304E+02  0.26987470896E+03  0.81000666512E+02 0.  0.
        254    2    1    2    0    0 -0.38750521910E+02  0.24144068484E+03  0.75075414626E+03  0.11989071962E+04  0.90219259012E+03 0.  0.
         23    2    4    4    0    0  0.39268372382E+03  0.23916564441E+03  0.52511091929E+03  0.70388815271E+03  0.91193977629E+02 0.  0.
         23    2    4    4    0    0 -0.43143424573E+03  0.22750404335E+01  0.22564322697E+03  0.49501904346E+03  0.89377308702E+02 0.  0.
          3    1    3    3  502    0  0.20893525183E+02 -0.93199404983E+02  0.87859503491E+01  0.95915908000E+02  0.00000000000E+00 0. -1.
         -4    1    3    3    0  502  0.17856996727E+02 -0.14824127986E+03 -0.89259817653E+02  0.17395880096E+03  0.00000000000E+00 0.  1.
         13    1    5    5    0    0  0.74071998930E+01  0.28704985830E+02  0.30082480714E+02  0.42235038388E+02  0.00000000000E+00 0. -1.
        -13    1    5    5    0    0  0.38527652393E+03  0.21046065858E+03  0.49502843857E+03  0.66165311432E+03  0.00000000000E+00 0.  1.
          3    1    6    6  503    0 -0.23245316285E+02  0.15003123019E+02 -0.15121079734E+01  0.27707849069E+02  0.00000000000E+00 0. -1.
         -3    1    6    6    0  503 -0.40818892945E+03 -0.12728082585E+02  0.22715533494E+03  0.46731119439E+03  0.00000000000E+00 0.  1.
<mgrwt>
<rscale>  0 0.13069218E+04</rscale>
<asrwt>0</asrwt>
<pdfrwt beam="1">  1        1 0.16454324E+00 0.13069218E+04</pdfrwt>
<pdfrwt beam="2">  1       -2 0.61423202E-01 0.13069218E+04</pdfrwt>
<totfact> 0.28372328E+01</totfact>
</mgrwt>
</event>
<event>
12    5  0.5197392E-008  0.1507803E+04  0.7818608E-02  0.8879281E-01
          1   -1    0    0  501    0  0.00000000000E+00  0.00000000000E+00  0.83393799549E+03  0.83393799549E+03  0.00000000000E+00 0. -1.
         -2   -1    0    0    0  501 -0.00000000000E+00 -0.00000000000E+00 -0.68154611013E+03  0.68154611013E+03  0.00000000000E+00 0.  1.
        -24    2    1    2    0    0 -0.21241665095E+03 -0.27022751435E+03 -0.28588594392E+03  0.45411037271E+03  0.79634882809E+02 0.  0.
        254    2    1    2    0    0  0.21241665095E+03  0.27022751435E+03  0.43827782928E+03  0.10613737329E+04  0.90348381399E+03 0.  0.
         23    2    4    4    0    0  0.14505482749E+03  0.58827750604E+03  0.18710640204E+03  0.64055721500E+03  0.90517472915E+02 0.  0.
         23    2    4    4    0    0  0.67361823458E+02 -0.31804999169E+03  0.25117142724E+03  0.42081651791E+03  0.91137497275E+02 0.  0.
          1    1    3    3  502    0 -0.11992136994E+02 -0.57077619516E+02 -0.66249542083E+02  0.88264759816E+02  0.00000000000E+00 0. -1.
         -2    1    3    3    0  502 -0.20042451395E+03 -0.21314989484E+03 -0.21963640184E+03  0.36584561290E+03  0.00000000000E+00 0.  1.
         13    1    5    5    0    0  0.46272134410E+02  0.16789339349E+03  0.97274227234E+02  0.19947826269E+03  0.00000000000E+00 0. -1.
        -13    1    5    5    0    0  0.98782693080E+02  0.42038411255E+03  0.89832174810E+02  0.44107895231E+03  0.00000000000E+00 0.  1.
          4    1    6    6  503    0 -0.96212638080E+01 -0.16250568992E+02 -0.25941931897E+01  0.19062516836E+02  0.00000000000E+00 0. -1.
         -4    1    6    6    0  503  0.76983087266E+02 -0.30179942270E+03  0.25376562043E+03  0.40175400107E+03  0.00000000000E+00 0.  1.
<mgrwt>
<rscale>  0 0.15078026E+04</rscale>
<asrwt>0</asrwt>
<pdfrwt beam="1">  1        1 0.12829815E+00 0.15078026E+04</pdfrwt>
<pdfrwt beam="2">  1       -2 0.10485325E+00 0.15078026E+04</pdfrwt>
<totfact> 0.12910960E+01</totfact>
</mgrwt>
</event>
<event>
12    5  0.5197392E-008  0.1469193E+04  0.7818608E-02  0.8905202E-01
         -2   -1    0    0    0  501 -0.00000000000E+00  0.00000000000E+00  0.26610687158E+03  0.26610687158E+03  0.00000000000E+00 0.  1.
          1   -1    0    0  501    0  0.00000000000E+00 -0.00000000000E+00 -0.20278766824E+04  0.20278766824E+04  0.00000000000E+00 0. -1.
        -24    2    1    2    0    0  0.80331474998E+02 -0.34588786889E+03 -0.86142054661E+03  0.93532911449E+03  0.81875701944E+02 0.  0.
        254    2    1    2    0    0 -0.80331474998E+02  0.34588786889E+03 -0.90034926420E+03  0.13586544395E+04  0.95353108217E+03 0.  0.
         23    2    4    4    0    0  0.26257078166E+03  0.47974569959E+03 -0.25706845014E+03  0.61156083329E+03  0.93931427621E+02 0.  0.
         23    2    4    4    0    0 -0.34290225666E+03 -0.13385783070E+03 -0.64328081406E+03  0.74709360619E+03  0.94014755305E+02 0.  0.
          3    1    3    3  502    0  0.53793506666E+02 -0.18426651143E+03 -0.36213028291E+03  0.40986123310E+03  0.00000000000E+00 0. -1.
         -4    1    3    3    0  502  0.26537968332E+02 -0.16162135746E+03 -0.49929026370E+03  0.52546788140E+03  0.00000000000E+00 0.  1.
         13    1    5    5    0    0  0.24685792594E+01  0.60880948835E+02 -0.39674206226E+02  0.72709190989E+02  0.00000000000E+00 0.  1.
        -13    1    5    5    0    0  0.26010220240E+03  0.41886475076E+03 -0.21739424391E+03  0.53885164230E+03  0.00000000000E+00 0. -1.
          3    1    6    6  503    0 -0.10887172387E+03 -0.66564593523E+02 -0.30190005202E+03  0.32776140526E+03  0.00000000000E+00 0.  1.
         -3    1    6    6    0  503 -0.23403053279E+03 -0.67293237180E+02 -0.34138076204E+03  0.41933220093E+03  0.00000000000E+00 0. -1.
<mgrwt>
<rscale>  0 0.14691929E+04</rscale>
<asrwt>0</asrwt>
<pdfrwt beam="1">  1        1 0.31198104E+00 0.14691929E+04</pdfrwt>
<pdfrwt beam="2">  1       -2 0.40939517E-01 0.14691929E+04</pdfrwt>
<totfact> 0.13735032E+01</totfact>
</mgrwt>
</event>
<event>
12    5  0.5197392E-008  0.2791829E+04  0.7818608E-02  0.8305810E-01
         -2   -1    0    0    0  501 -0.00000000000E+00  0.00000000000E+00  0.85150490144E+03  0.85150490144E+03  0.00000000000E+00 0.  1.
          1   -1    0    0  501    0  0.00000000000E+00 -0.00000000000E+00 -0.22883920488E+04  0.22883920488E+04  0.00000000000E+00 0. -1.
        -24    2    1    2    0    0 -0.76611607322E+03  0.14490954727E+03  0.45100685731E+03  0.90423523751E+03  0.79382396473E+02 0.  0.
        254    2    1    2    0    0  0.76611607322E+03 -0.14490954727E+03 -0.18878940047E+04  0.22356617128E+04  0.90890423386E+03 0.  0.
         23    2    4    4    0    0 -0.13677028391E+02 -0.11446776979E+03  0.39646885767E+02  0.15410309679E+03  0.94265356650E+02 0.  0.
         23    2    4    4    0    0  0.77979310162E+03 -0.30441777485E+02 -0.19275408905E+04  0.20815586160E+04  0.92023932198E+02 0.  0.
          3    1    3    3  502    0 -0.31052548433E+03  0.61029591383E+02  0.13857780245E+03  0.34547719864E+03  0.00000000000E+00 0. -1.
         -4    1    3    3    0  502 -0.45559058889E+03  0.83879955892E+02  0.31242905486E+03  0.55875803888E+03  0.00000000000E+00 0.  1.
         13    1    5    5    0    0 -0.49096932657E+02 -0.35517453721E+02  0.28131804106E+02  0.66808657503E+02  0.00000000000E+00 0. -1.
        -13    1    5    5    0    0  0.35419904265E+02 -0.78950316068E+02  0.11515081660E+02  0.87294439291E+02  0.00000000000E+00 0.  1.
          3    1    6    6  503    0  0.47057902215E+03 -0.39700316907E+02 -0.10574842291E+04  0.11581423168E+04  0.00000000000E+00 0. -1.
         -3    1    6    6    0  503  0.30921407947E+03  0.92585394212E+01 -0.87005666139E+03  0.92341629914E+03  0.00000000000E+00 0.  1.
<mgrwt>
<rscale>  0 0.27918288E+04</rscale>
<asrwt>0</asrwt>
<pdfrwt beam="1">  1        1 0.35206031E+00 0.27918288E+04</pdfrwt>
<pdfrwt beam="2">  1       -2 0.13100076E+00 0.27918288E+04</pdfrwt>
<totfact> 0.61495354E-01</totfact>
</mgrwt>
</event>
<event>
12    5  0.5197392E-008  0.1198251E+04  0.7818608E-02  0.9114389E-01
         -2   -1    0    0    0  501 -0.00000000000E+00  0.00000000000E+00  0.67795758637E+03  0.67795758637E+03  0.00000000000E+00 0.  1.
          1   -1    0    0  501    0  0.00000000000E+00 -0.00000000000E+00 -0.52945988479E+03  0.52945988479E+03  0.00000000000E+00 0. -1.
        -24    2    1    2    0    0  0.13910262897E+03 -0.17364005150E+03 -0.75871358811E+02  0.24816425419E+03  0.79552656140E+02 0.  0.
        254    2    1    2    0    0 -0.13910262897E+03  0.17364005150E+03  0.22436906040E+03  0.95925321697E+03  0.90571786453E+03 0.  0.
         23    2    4    4    0    0 -0.10304829269E+02  0.39539475615E+03 -0.20278180049E+03  0.45296494416E+03  0.87255826905E+02 0.  0.
         23    2    4    4    0    0 -0.12879779971E+03 -0.22175470465E+03  0.42715086088E+03  0.50628827281E+03  0.90032966107E+02 0.  0.
          3    1    3    3  502    0  0.14936307067E+03 -0.15756082857E+03 -0.67724875809E+02  0.22742339454E+03  0.00000000000E+00 0. -1.
         -4    1    3    3    0  502 -0.10260441699E+02 -0.16079222925E+02 -0.81464830023E+01  0.20740859650E+02  0.00000000000E+00 0.  1.
         13    1    5    5    0    0  0.31079318065E+02  0.25012520566E+03 -0.10510457322E+03  0.27308517688E+03  0.00000000000E+00 0. -1.
        -13    1    5    5    0    0 -0.41384147334E+02  0.14526955049E+03 -0.97677227266E+02  0.17987976728E+03  0.00000000000E+00 0.  1.
          3    1    6    6  503    0 -0.29776345939E+02 -0.84057082129E+01  0.90238588024E+02  0.95395437399E+02  0.00000000000E+00 0. -1.
         -3    1    6    6    0  503 -0.99021453766E+02 -0.21334899644E+03  0.33691227286E+03  0.41089283541E+03  0.00000000000E+00 0.  1.
<mgrwt>
<rscale>  0 0.11982510E+04</rscale>
<asrwt>0</asrwt>
<pdfrwt beam="1">  1        1 0.81455367E-01 0.11982510E+04</pdfrwt>
<pdfrwt beam="2">  1       -2 0.10430117E+00 0.11982510E+04</pdfrwt>
<totfact> 0.26469618E+01</totfact>
</mgrwt>
</event>
<event>
12    5  0.5197392E-008  0.1898598E+04  0.7818608E-02  0.8655554E-01
          1   -1    0    0  501    0  0.00000000000E+00  0.00000000000E+00  0.98716615234E+03  0.98716615234E+03  0.00000000000E+00 0. -1.
         -4   -1    0    0    0  501 -0.00000000000E+00 -0.00000000000E+00 -0.91288465612E+03  0.91288465612E+03  0.00000000000E+00 0.  1.
        -24    2    1    2    0    0  0.65721510738E+03  0.30420642943E+03  0.11523012911E+03  0.73754514255E+03  0.78877154893E+02 0.  0.
        254    2    1    2    0    0 -0.65721510738E+03 -0.30420642943E+03 -0.40948632902E+02  0.11625056659E+04  0.90844338495E+03 0.  0.
         23    2    4    4    0    0 -0.88436808892E+02  0.43928970631E+02  0.35576187889E+03  0.38117901715E+03  0.94763416031E+02 0.  0.
         23    2    4    4    0    0 -0.56877829849E+03 -0.34813540006E+03 -0.39671051179E+03  0.78132664876E+03  0.91570149572E+02 0.  0.
          3    1    3    3  502    0  0.11814957700E+03  0.49989821837E+02 -0.94666663895E+01  0.12863872902E+03  0.00000000000E+00 0. -1.
         -4    1    3    3    0  502  0.53906553039E+03  0.25421660760E+03  0.12469679550E+03  0.60890641353E+03  0.00000000000E+00 0.  1.
         13    1    5    5    0    0 -0.37045548688E+02 -0.38435012903E+01  0.25894575049E+03  0.26161048694E+03  0.00000000000E+00 0.  1.
        -13    1    5    5    0    0 -0.51391260204E+02  0.47772471921E+02  0.96816128398E+02  0.11956853021E+03  0.00000000000E+00 0. -1.
          3    1    6    6  503    0 -0.12925071128E+02 -0.11595663423E+02 -0.31408713438E+02  0.35889053397E+02  0.00000000000E+00 0. -1.
         -3    1    6    6    0  503 -0.55585322736E+03 -0.33653973664E+03 -0.36530179835E+03  0.74543759537E+03  0.00000000000E+00 0.  1.
<mgrwt>
<rscale>  0 0.18985983E+04</rscale>
<asrwt>0</asrwt>
<pdfrwt beam="1">  1        1 0.15187172E+00 0.18985983E+04</pdfrwt>
<pdfrwt beam="2">  1       -4 0.14044379E+00 0.18985983E+04</pdfrwt>
<totfact> 0.24901438E+00</totfact>
</mgrwt>
</event>
<event>
12    5  0.5197392E-008  0.1085304E+04  0.7818608E-02  0.9219636E-01
          1   -1    0    0  501    0  0.00000000000E+00  0.00000000000E+00  0.11518261842E+04  0.11518261842E+04  0.00000000000E+00 0. -1.
         -2   -1    0    0    0  501 -0.00000000000E+00 -0.00000000000E+00 -0.25565572085E+03  0.25565572085E+03  0.00000000000E+00 0.  1.
        -24    2    1    2    0    0  0.16065132858E+02  0.46719396874E+02  0.36961931737E+03  0.38175635559E+03  0.81723220212E+02 0.  0.
        254    2    1    2    0    0 -0.16065132858E+02 -0.46719396874E+02  0.52655114597E+03  0.10257255494E+04  0.87887200600E+03 0.  0.
         23    2    4    4    0    0  0.29388516810E+03 -0.17202947946E+02 -0.96566982912E+02  0.32334421054E+03  0.92530334768E+02 0.  0.
         23    2    4    4    0    0 -0.30995030096E+03 -0.29516448928E+02  0.62311812888E+03  0.70238133891E+03  0.90127314881E+02 0.  0.
          1    1    3    3  502    0  0.33306963653E+02  0.58409714126E+02  0.20313892526E+03  0.21397773596E+03  0.00000000000E+00 0. -1.
         -2    1    3    3    0  502 -0.17241830795E+02 -0.11690317252E+02  0.16648039211E+03  0.16777861963E+03  0.00000000000E+00 0.  1.
         13    1    5    5    0    0  0.35061597645E+02  0.28156204227E+02 -0.57952026835E+01  0.45339517422E+02  0.00000000000E+00 0. -1.
        -13    1    5    5    0    0  0.25882357045E+03 -0.45359152173E+02 -0.90771780228E+02  0.27800469311E+03  0.00000000000E+00 0.  1.
          1    1    6    6  503    0  0.38865980505E+01  0.64305944219E+01  0.85517869478E+01  0.11383815223E+02  0.00000000000E+00 0. -1.
         -1    1    6    6    0  503 -0.31383689901E+03 -0.35947043350E+02  0.61456634193E+03  0.69099752369E+03  0.00000000000E+00 0.  1.
<mgrwt>
<rscale>  0 0.10853036E+04</rscale>
<asrwt>0</asrwt>
<pdfrwt beam="1">  1        1 0.17720403E+00 0.10853036E+04</pdfrwt>
<pdfrwt beam="2">  1       -2 0.39331650E-01 0.10853036E+04</pdfrwt>
<totfact> 0.61973422E+01</totfact>
</mgrwt>
</event>
<event>
12    5  0.5197392E-008  0.1945956E+04  0.7818608E-02  0.8632313E-01
          1   -1    0    0  501    0  0.00000000000E+00  0.00000000000E+00  0.14830238764E+04  0.14830238764E+04  0.00000000000E+00 0. -1.
         -2   -1    0    0    0  501 -0.00000000000E+00 -0.00000000000E+00 -0.63834884320E+03  0.63834884320E+03  0.00000000000E+00 0.  1.
        -24    2    1    2    0    0 -0.73912361221E+03  0.11070539133E+03  0.16788663562E+03  0.77004733033E+03  0.78914958931E+02 0.  0.
        254    2    1    2    0    0  0.73912361221E+03 -0.11070539133E+03  0.67678839759E+03  0.13513253893E+04  0.89971016156E+03 0.  0.
         23    2    4    4    0    0  0.52772112025E+03 -0.48192441752E+03  0.51311569603E+03  0.88482221828E+03  0.94243914837E+02 0.  0.
         23    2    4    4    0    0  0.21140249196E+03  0.37121902619E+03  0.16367270155E+03  0.46650317100E+03  0.91333872766E+02 0.  0.
          3    1    3    3  502    0 -0.68458603394E+03  0.12015783059E+03  0.16632463851E+03  0.71467463051E+03  0.00000000000E+00 0. -1.
         -4    1    3    3    0  502 -0.54537578266E+02 -0.94524392552E+01  0.15619971141E+01  0.55372699826E+02  0.00000000000E+00 0.  1.
         13    1    5    5    0    0  0.47692049024E+03 -0.43025848464E+03  0.42258192154E+03  0.76886344564E+03  0.00000000000E+00 0. -1.
        -13    1    5    5    0    0  0.50800630008E+02 -0.51665932873E+02  0.90533774491E+02  0.11595877264E+03  0.00000000000E+00 0.  1.
          2    1    6    6  503    0  0.11143270489E+03  0.13853313259E+03  0.10522561116E+03  0.20659406039E+03  0.00000000000E+00 0.  1.
         -2    1    6    6    0  503  0.99969787069E+02  0.23268589359E+03  0.58447090392E+02  0.25990911061E+03  0.00000000000E+00 0. -1.
<mgrwt>
<rscale>  0 0.19459564E+04</rscale>
<asrwt>0</asrwt>
<pdfrwt beam="1">  1        1 0.22815752E+00 0.19459564E+04</pdfrwt>
<pdfrwt beam="2">  1       -2 0.98207515E-01 0.19459564E+04</pdfrwt>
<totfact> 0.47397880E+00</totfact>
</mgrwt>
</event>
<event>
12    5  0.5197392E-008  0.1158768E+04  0.7818608E-02  0.9149732E-01
          1   -1    0    0  501    0  0.00000000000E+00  0.00000000000E+00  0.83645779586E+03  0.83645779586E+03  0.00000000000E+00 0. -1.
         -2   -1    0    0    0  501 -0.00000000000E+00 -0.00000000000E+00 -0.40131847445E+03  0.40131847445E+03  0.00000000000E+00 0.  1.
        -24    2    1    2    0    0 -0.10329172672E+03  0.16043995625E+02  0.29200369647E+03  0.32002385140E+03  0.78882926576E+02 0.  0.
        254    2    1    2    0    0  0.10329172672E+03 -0.16043995625E+02  0.14313562494E+03  0.91775241891E+03  0.90047493285E+03 0.  0.
         23    2    4    4    0    0  0.38934695958E+03  0.10323119510E+03 -0.18807637131E+03  0.45477846483E+03  0.95932247230E+02 0.  0.
         23    2    4    4    0    0 -0.28605523286E+03 -0.11927519073E+03  0.33121199625E+03  0.46297395408E+03  0.92678629291E+02 0.  0.
          3    1    3    3  502    0 -0.10977718736E+03  0.13122195703E+02  0.29269267049E+03  0.31287732779E+03  0.00000000000E+00 0. -1.
         -4    1    3    3    0  502  0.64854606370E+01  0.29217999222E+01 -0.68897402204E+00  0.71465236068E+01  0.00000000000E+00 0.  1.
         13    1    5    5    0    0  0.13453238667E+02  0.26273011272E+02 -0.61888207194E+01  0.30158949813E+02  0.00000000000E+00 0. -1.
        -13    1    5    5    0    0  0.37589372091E+03  0.76958183833E+02 -0.18188755059E+03  0.42461951502E+03  0.00000000000E+00 0.  1.
          4    1    6    6  503    0 -0.25273574599E+03 -0.13456814946E+03  0.28507138127E+03  0.40404162728E+03  0.00000000000E+00 0.  1.
         -4    1    6    6    0  503 -0.33319486862E+02  0.15292958734E+02  0.46140614978E+02  0.58932326800E+02  0.00000000000E+00 0. -1.
<mgrwt>
<rscale>  0 0.11587683E+04</rscale>
<asrwt>0</asrwt>
<pdfrwt beam="1">  1        1 0.12868581E+00 0.11587683E+04</pdfrwt>
<pdfrwt beam="2">  1       -2 0.61741304E-01 0.11587683E+04</pdfrwt>
<totfact> 0.43601701E+01</totfact>
</mgrwt>
</event>
<event>
12    5  0.5197392E-008  0.1321871E+04  0.7818608E-02  0.9012399E-01
          1   -1    0    0  501    0  0.00000000000E+00  0.00000000000E+00  0.10011353435E+04  0.10011353435E+04  0.00000000000E+00 0. -1.
         -2   -1    0    0    0  501 -0.00000000000E+00 -0.00000000000E+00 -0.43634061820E+03  0.43634061820E+03  0.00000000000E+00 0.  1.
        -24    2    1    2    0    0 -0.18363733698E+03 -0.64111734646E+02 -0.15126318279E+03  0.25911367911E+03  0.80164594322E+02 0.  0.
        254    2    1    2    0    0  0.18363733698E+03  0.64111734646E+02  0.71605790809E+03  0.11783622826E+04  0.91540469480E+03 0.  0.
         23    2    4    4    0    0  0.43938053909E+03  0.32413812690E+03  0.35801347314E+03  0.65894170818E+03  0.88936743733E+02 0.  0.
         23    2    4    4    0    0 -0.25574320211E+03 -0.26002639225E+03  0.35804443494E+03  0.51942057442E+03  0.92647750358E+02 0.  0.
          1    1    3    3  502    0  0.98928384405E+00  0.98945115505E+01 -0.13402181152E+01  0.10033754329E+02  0.00000000000E+00 0. -1.
         -2    1    3    3    0  502 -0.18462662082E+03 -0.74006246196E+02 -0.14992296467E+03  0.24907992478E+03  0.00000000000E+00 0.  1.
         13    1    5    5    0    0  0.13484516906E+03  0.15154859249E+03  0.12088155825E+03  0.23614094653E+03  0.00000000000E+00 0. -1.
        -13    1    5    5    0    0  0.30453537003E+03  0.17258953440E+03  0.23713191489E+03  0.42280076164E+03  0.00000000000E+00 0.  1.
          2    1    6    6  503    0 -0.26154352521E+03 -0.25994725462E+03  0.35749220605E+03  0.51359348531E+03  0.00000000000E+00 0. -1.
         -2    1    6    6    0  503  0.58003230964E+01 -0.79137631249E-01  0.55222888845E+00  0.58270891132E+01  0.00000000000E+00 0.  1.
<mgrwt>
<rscale>  0 0.13218714E+04</rscale>
<asrwt>0</asrwt>
<pdfrwt beam="1">  1        1 0.15402082E+00 0.13218714E+04</pdfrwt>
<pdfrwt beam="2">  1       -2 0.67129326E-01 0.13218714E+04</pdfrwt>
<totfact> 0.26444173E+01</totfact>
</mgrwt>
</event>
<event>
12    5  0.5197392E-008  0.2018285E+04  0.7818608E-02  0.8598119E-01
         -2   -1    0    0    0  501 -0.00000000000E+00  0.00000000000E+00  0.35287897106E+03  0.35287897106E+03  0.00000000000E+00 0.  1.
          1   -1    0    0  501    0  0.00000000000E+00 -0.00000000000E+00 -0.28858867876E+04  0.28858867876E+04  0.00000000000E+00 0. -1.
        -24    2    1    2    0    0 -0.50637896916E+03 -0.38902832510E+03 -0.17921202657E+04  0.19042029964E+04  0.80816500572E+02 0.  0.
        254    2    1    2    0    0  0.50637896916E+03  0.38902832510E+03 -0.74088755091E+03  0.13345627623E+04  0.90795413171E+03 0.  0.
         23    2    4    4    0    0  0.75735410526E+03  0.23360142994E+03 -0.48883917158E+03  0.93559286701E+03  0.90638889575E+02 0.  0.
         23    2    4    4    0    0 -0.25097513611E+03  0.15542689516E+03 -0.25204837934E+03  0.39896989529E+03  0.92209289867E+02 0.  0.
          3    1    3    3  502    0 -0.49907443382E+03 -0.38827172325E+03 -0.17860411014E+04  0.18946696380E+04  0.00000000000E+00 0. -1.
         -4    1    3    3    0  502 -0.73045353395E+01 -0.75660185248E+00 -0.60791642843E+01  0.95333583424E+01  0.00000000000E+00 0.  1.
         13    1    5    5    0    0  0.72971757260E+03  0.23910112337E+03 -0.48187953669E+03  0.90656768685E+03  0.00000000000E+00 0. -1.
        -13    1    5    5    0    0  0.27636532668E+02 -0.54996934322E+01 -0.69596348827E+01  0.29025180163E+02  0.00000000000E+00 0.  1.
          3    1    6    6  503    0 -0.20665497346E+03  0.99904803111E+02 -0.22911953147E+03  0.32431929859E+03  0.00000000000E+00 0. -1.
         -3    1    6    6    0  503 -0.44320162649E+02  0.55522092050E+02 -0.22928847873E+02  0.74650596700E+02  0.00000000000E+00 0.  1.
<mgrwt>
<rscale>  0 0.20182852E+04</rscale>
<asrwt>0</asrwt>
<pdfrwt beam="1">  1        1 0.44398258E+00 0.20182852E+04</pdfrwt>
<pdfrwt beam="2">  1       -2 0.54289073E-01 0.20182852E+04</pdfrwt>
<totfact> 0.18824853E+00</totfact>
</mgrwt>
</event>
<event>
12    5  0.5197392E-008  0.3640242E+04  0.7818608E-02  0.8081335E-01
          1   -1    0    0  501    0  0.00000000000E+00  0.00000000000E+00  0.26450781015E+04  0.26450781015E+04  0.00000000000E+00 0. -1.
         -2   -1    0    0    0  501 -0.00000000000E+00 -0.00000000000E+00 -0.12524548024E+04  0.12524548024E+04  0.00000000000E+00 0.  1.
        -24    2    1    2    0    0  0.56065007371E+03 -0.79890597044E+02 -0.10708177478E+04  0.12139718684E+04  0.79787440508E+02 0.  0.
        254    2    1    2    0    0 -0.56065007371E+03  0.79890597044E+02  0.24634410469E+04  0.26835610354E+04  0.90124748362E+03 0.  0.
         23    2    4    4    0    0 -0.75372405890E+03  0.10095412238E+03  0.13767085915E+04  0.15757270683E+04  0.96423835809E+02 0.  0.
         23    2    4    4    0    0  0.19307398519E+03 -0.21063525331E+02  0.10867324554E+04  0.11078339671E+04  0.92668404852E+02 0.  0.
          1    1    3    3  502    0  0.45224544896E+02  0.13961889326E+02 -0.73477671284E+02  0.87402299695E+02  0.00000000000E+00 0. -1.
         -2    1    3    3    0  502  0.51542552881E+03 -0.93852486370E+02 -0.99734007654E+03  0.11265695687E+04  0.00000000000E+00 0.  1.
         13    1    5    5    0    0 -0.55470600581E+03  0.32479500742E+02  0.97490092108E+03  0.11221343399E+04  0.00000000000E+00 0. -1.
        -13    1    5    5    0    0 -0.19901805309E+03  0.68474621634E+02  0.40180767044E+03  0.45359272843E+03  0.00000000000E+00 0.  1.
          1    1    6    6  503    0  0.15970055600E+03  0.12430754837E+02  0.69296385698E+03  0.71123673860E+03  0.00000000000E+00 0. -1.
         -1    1    6    6    0  503  0.33373429192E+02 -0.33494280168E+02  0.39376859838E+03  0.39659722850E+03  0.00000000000E+00 0.  1.
<mgrwt>
<rscale>  0 0.36402422E+04</rscale>
<asrwt>0</asrwt>
<pdfrwt beam="1">  1        1 0.40693509E+00 0.36402422E+04</pdfrwt>
<pdfrwt beam="2">  1       -2 0.19268535E+00 0.36402422E+04</pdfrwt>
<totfact> 0.11320245E-01</totfact>
</mgrwt>
</event>
<event>
12    5  0.5197392E-008  0.1380641E+04  0.7818608E-02  0.8967952E-01
         -2   -1    0    0    0  501 -0.00000000000E+00  0.00000000000E+00  0.67252492704E+03  0.67252492704E+03  0.00000000000E+00 0.  1.
          1   -1    0    0  501    0  0.00000000000E+00 -0.00000000000E+00 -0.70858685653E+03  0.70858685653E+03  0.00000000000E+00 0. -1.
        -24    2    1    2    0    0 -0.14158953698E+03  0.33400488697E+03 -0.16961637786E+03  0.40811306432E+03  0.78611043268E+02 0.  0.
        254    2    1    2    0    0  0.14158953698E+03 -0.33400488697E+03  0.13355444837E+03  0.97299871925E+03  0.89290696911E+03 0.  0.
         23    2    4    4    0    0 -0.10973917487E+03 -0.24901265327E+03 -0.32626182203E+03  0.43444996689E+03  0.90829561419E+02 0.  0.
         23    2    4    4    0    0  0.25132871185E+03 -0.84992233702E+02  0.45981627040E+03  0.53854875236E+03  0.90630871965E+02 0.  0.
          1    1    3    3  502    0 -0.10452452610E+03  0.25424182440E+03 -0.89369953209E+02  0.28905236614E+03  0.00000000000E+00 0. -1.
         -2    1    3    3    0  502 -0.37065010880E+02  0.79763062574E+02 -0.80246424653E+02  0.11906069818E+03  0.00000000000E+00 0.  1.
         13    1    5    5    0    0 -0.12572863017E+03 -0.22444091269E+03 -0.28651654378E+03  0.38506251647E+03  0.00000000000E+00 0. -1.
        -13    1    5    5    0    0  0.15989455296E+02 -0.24571740587E+02 -0.39745278245E+02  0.49387450419E+02  0.00000000000E+00 0.  1.
          1    1    6    6  503    0  0.23054098611E+03 -0.64896211418E+02  0.34389243910E+03  0.41907359044E+03  0.00000000000E+00 0. -1.
         -1    1    6    6    0  503  0.20787725744E+02 -0.20096022284E+02  0.11592383130E+03  0.11947516192E+03  0.00000000000E+00 0.  1.
<mgrwt>
<rscale>  0 0.13806409E+04</rscale>
<asrwt>0</asrwt>
<pdfrwt beam="1">  1        1 0.10901336E+00 0.13806409E+04</pdfrwt>
<pdfrwt beam="2">  1       -2 0.10346537E+00 0.13806409E+04</pdfrwt>
<totfact> 0.17413881E+01</totfact>
</mgrwt>
</event>
<event>
12    5  0.5197392E-008  0.1146563E+04  0.7818608E-02  0.9160960E-01
         -2   -1    0    0    0  501 -0.00000000000E+00  0.00000000000E+00  0.12172149343E+03  0.12172149343E+03  0.00000000000E+00 0.  1.
          1   -1    0    0  501    0  0.00000000000E+00 -0.00000000000E+00 -0.27000310434E+04  0.27000310434E+04  0.00000000000E+00 0. -1.
        -24    2    1    2    0    0  0.66392286883E+02  0.38483750973E+02 -0.24616814386E+02  0.11318750338E+03  0.79476339404E+02 0.  0.
        254    2    1    2    0    0 -0.66392286883E+02 -0.38483750973E+02 -0.25536927356E+04  0.27085650334E+04  0.89949375637E+03 0.  0.
         23    2    4    4    0    0 -0.34848745071E+03 -0.31606588970E+03 -0.16509929241E+04  0.17191718922E+04  0.91832508411E+02 0.  0.
         23    2    4    4    0    0  0.28209516382E+03  0.27758213873E+03 -0.90269981143E+03  0.98939314118E+03  0.86036695999E+02 0.  0.
          3    1    3    3  502    0  0.20035208860E+02  0.31192075740E+02 -0.48087138897E+02  0.60718433035E+02  0.00000000000E+00 0. -1.
         -4    1    3    3    0  502  0.46357078023E+02  0.72916752329E+01  0.23470324510E+02  0.52469070348E+02  0.00000000000E+00 0.  1.
         13    1    5    5    0    0 -0.31919709310E+03 -0.31254900343E+03 -0.15874960022E+04  0.16491565180E+04  0.00000000000E+00 0. -1.
        -13    1    5    5    0    0 -0.29290357610E+02 -0.35168862720E+01 -0.63496921892E+02  0.70015374224E+02  0.00000000000E+00 0.  1.
          3    1    6    6  503    0  0.18193599207E+03  0.23235790722E+03 -0.65870905406E+03  0.72179534506E+03  0.00000000000E+00 0. -1.
         -3    1    6    6    0  503  0.10015917175E+03  0.45224231512E+02 -0.24399075738E+03  0.26759779612E+03  0.00000000000E+00 0.  1.
<mgrwt>
<rscale>  0 0.11465632E+04</rscale>
<asrwt>0</asrwt>
<pdfrwt beam="1">  1        1 0.41538939E+00 0.11465632E+04</pdfrwt>
<pdfrwt beam="2">  1       -2 0.18726384E-01 0.11465632E+04</pdfrwt>
<totfact> 0.20742261E+01</totfact>
</mgrwt>
</event>
<event>
12    5  0.5197392E-008  0.3005592E+04  0.7818608E-02  0.8242136E-01
         -2   -1    0    0    0  501 -0.00000000000E+00  0.00000000000E+00  0.11085010374E+04  0.11085010374E+04  0.00000000000E+00 0.  1.
          1   -1    0    0  501    0  0.00000000000E+00 -0.00000000000E+00 -0.20373420724E+04  0.20373420724E+04  0.00000000000E+00 0. -1.
        -24    2    1    2    0    0 -0.12912241051E+04 -0.29202472814E+03 -0.52783367226E+03  0.14271366326E+04  0.74648852245E+02 0.  0.
        254    2    1    2    0    0  0.12912241051E+04  0.29202472814E+03 -0.40100736277E+03  0.17187064771E+04  0.10201014253E+04 0.  0.
         23    2    4    4    0    0  0.13401839782E+04  0.15559450767E+03 -0.57973163607E+03  0.14713501798E+04  0.92086021824E+02 0.  0.
         23    2    4    4    0    0 -0.48959873098E+02  0.13643022047E+03  0.17872427330E+03  0.24735629731E+03  0.90733112584E+02 0.  0.
          3    1    3    3  502    0 -0.65480287853E+03 -0.12614018401E+03 -0.29864297055E+03  0.73066119345E+03  0.00000000000E+00 0. -1.
         -4    1    3    3    0  502 -0.63642122659E+03 -0.16588454413E+03 -0.22919070171E+03  0.69647543918E+03  0.00000000000E+00 0.  1.
         13    1    5    5    0    0  0.59319796450E+03  0.27716980581E+02 -0.23249323011E+03  0.63773439467E+03  0.00000000000E+00 0. -1.
        -13    1    5    5    0    0  0.74698601372E+03  0.12787752709E+03 -0.34723840596E+03  0.83361578512E+03  0.00000000000E+00 0.  1.
          2    1    6    6  503    0 -0.30433639808E+02  0.10541237532E+03  0.63871393374E+02  0.12695483525E+03  0.00000000000E+00 0. -1.
         -2    1    6    6    0  503 -0.18526233290E+02  0.31017845153E+02  0.11485287993E+03  0.12040146206E+03  0.00000000000E+00 0.  1.
<mgrwt>
<rscale>  0 0.30055920E+04</rscale>
<asrwt>0</asrwt>
<pdfrwt beam="1">  1        1 0.31343724E+00 0.30055920E+04</pdfrwt>
<pdfrwt beam="2">  1       -2 0.17053862E+00 0.30055920E+04</pdfrwt>
<totfact> 0.44413608E-01</totfact>
</mgrwt>
</event>
<event>
12    5  0.5197392E-008  0.1357158E+04  0.7818608E-02  0.8985427E-01
         -2   -1    0    0    0  501 -0.00000000000E+00  0.00000000000E+00  0.29614386403E+04  0.29614386403E+04  0.00000000000E+00 0.  1.
          1   -1    0    0  501    0  0.00000000000E+00 -0.00000000000E+00 -0.15548851680E+03  0.15548851680E+03  0.00000000000E+00 0. -1.
        -24    2    1    2    0    0  0.21883623435E+02  0.93673368580E+02  0.16255235117E+04  0.16303821034E+04  0.81027915305E+02 0.  0.
        254    2    1    2    0    0 -0.21883623435E+02 -0.93673368580E+02  0.11804266118E+04  0.14865450537E+04  0.89841839801E+03 0.  0.
         23    2    4    4    0    0 -0.27501163120E+03 -0.38897031634E+03  0.80033576524E+03  0.93579865666E+03  0.90843185747E+02 0.  0.
         23    2    4    4    0    0  0.25312800776E+03  0.29529694776E+03  0.38009084656E+03  0.55074639704E+03  0.87054388450E+02 0.  0.
          1    1    3    3  502    0 -0.16633669859E+01 -0.44907749391E+01  0.58252824813E+01  0.75410718914E+01  0.00000000000E+00 0. -1.
         -2    1    3    3    0  502  0.23546990420E+02  0.98164143519E+02  0.16196982292E+04  0.16228410315E+04  0.00000000000E+00 0.  1.
         13    1    5    5    0    0 -0.27767274634E+03 -0.35580445647E+03  0.73583960882E+03  0.86322586570E+03  0.00000000000E+00 0.  1.
        -13    1    5    5    0    0  0.26611151460E+01 -0.33165859865E+02  0.64496156421E+02  0.72572790958E+02  0.00000000000E+00 0. -1.
          2    1    6    6  503    0  0.29326765336E+02  0.80890039289E+02  0.58054175443E+02  0.10379568829E+03  0.00000000000E+00 0. -1.
         -2    1    6    6    0  503  0.22380124243E+03  0.21440690847E+03  0.32203667111E+03  0.44695070875E+03  0.00000000000E+00 0.  1.
<mgrwt>
<rscale>  0 0.13571584E+04</rscale>
<asrwt>0</asrwt>
<pdfrwt beam="1">  1        1 0.23921312E-01 0.13571584E+04</pdfrwt>
<pdfrwt beam="2">  1       -2 0.45560590E+00 0.13571584E+04</pdfrwt>
<totfact> 0.56967923E-01</totfact>
</mgrwt>
</event>
<event>
12    5  0.5197392E-008  0.1634425E+04  0.7818608E-02  0.8799674E-01
          1   -1    0    0  501    0  0.00000000000E+00  0.00000000000E+00  0.11409831886E+04  0.11409831886E+04  0.00000000000E+00 0. -1.
         -2   -1    0    0    0  501 -0.00000000000E+00 -0.00000000000E+00 -0.58531622633E+03  0.58531622633E+03  0.00000000000E+00 0.  1.
        -24    2    1    2    0    0 -0.97372471690E+02  0.53377595721E+03  0.16276229414E+03  0.57224181322E+03  0.81061443836E+02 0.  0.
        254    2    1    2    0    0  0.97372471690E+02 -0.53377595721E+03  0.39290466817E+03  0.11540576017E+04  0.93972160726E+03 0.  0.
         23    2    4    4    0    0  0.14516960354E+02  0.45422452678E+02 -0.25543494149E+03  0.27556104003E+03  0.91722058981E+02 0.  0.
         23    2    4    4    0    0  0.82855511335E+02 -0.57919840988E+03  0.64833960966E+03  0.87849656172E+03  0.95268702766E+02 0.  0.
          1    1    3    3  502    0 -0.92519014499E+01  0.71049226973E+02 -0.59526769377E+01  0.71895929624E+02  0.00000000000E+00 0. -1.
         -2    1    3    3    0  502 -0.88120570240E+02  0.46272673023E+03  0.16871497107E+03  0.50034588360E+03  0.00000000000E+00 0.  1.
         13    1    5    5    0    0 -0.10169019391E+01  0.48101307123E+02 -0.49519411726E+02  0.69043044358E+02  0.00000000000E+00 0. -1.
        -13    1    5    5    0    0  0.15533862293E+02 -0.26788544454E+01 -0.20591552976E+03  0.20651799567E+03  0.00000000000E+00 0.  1.
          3    1    6    6  503    0  0.43638966172E+02 -0.32445582400E+03  0.29177107456E+03  0.43852742337E+03  0.00000000000E+00 0. -1.
         -3    1    6    6    0  503  0.39216545163E+02 -0.25474258588E+03  0.35656853510E+03  0.43996913835E+03  0.00000000000E+00 0.  1.
<mgrwt>
<rscale>  0 0.16344246E+04</rscale>
<asrwt>0</asrwt>
<pdfrwt beam="1">  1        1 0.17553588E+00 0.16344246E+04</pdfrwt>
<pdfrwt beam="2">  1       -2 0.90048650E-01 0.16344246E+04</pdfrwt>
<totfact> 0.10462831E+01</totfact>
</mgrwt>
</event>
<event>
12    5  0.5197392E-008  0.1324656E+04  0.7818608E-02  0.9010238E-01
          1   -1    0    0  501    0  0.00000000000E+00  0.00000000000E+00  0.81011288083E+03  0.81011288083E+03  0.00000000000E+00 0. -1.
         -2   -1    0    0    0  501 -0.00000000000E+00 -0.00000000000E+00 -0.54150268064E+03  0.54150268064E+03  0.00000000000E+00 0.  1.
        -24    2    1    2    0    0 -0.75117753189E+02 -0.32303405775E+03  0.19359772072E+03  0.39152904863E+03  0.76297045475E+02 0.  0.
        254    2    1    2    0    0  0.75117753189E+02  0.32303405775E+03  0.75012479472E+02  0.96008651283E+03  0.89785609132E+03 0.  0.
         23    2    4    4    0    0  0.78978916682E+02  0.59427492451E+03  0.21373206798E+03  0.64309699149E+03  0.92151985290E+02 0.  0.
         23    2    4    4    0    0 -0.38611634937E+01 -0.27124086677E+03 -0.13871958851E+03  0.31698952134E+03  0.87479803475E+02 0.  0.
          3    1    3    3  502    0 -0.11593841751E+02 -0.15940872580E+01  0.12630870038E+02  0.17219092852E+02  0.00000000000E+00 0. -1.
         -4    1    3    3    0  502 -0.63523911438E+02 -0.32143997049E+03  0.18096685068E+03  0.37430995578E+03  0.00000000000E+00 0.  1.
         13    1    5    5    0    0  0.44673243921E+02  0.13249874470E+03  0.80129851838E+02  0.16115957689E+03  0.00000000000E+00 0.  1.
        -13    1    5    5    0    0  0.34305672761E+02  0.46177617981E+03  0.13360221614E+03  0.48193741459E+03  0.00000000000E+00 0. -1.
          1    1    6    6  503    0  0.34655356288E+02 -0.18756996322E+03 -0.11149336908E+03  0.22093948531E+03  0.00000000000E+00 0. -1.
         -1    1    6    6    0  503 -0.38516519782E+02 -0.83670903547E+02 -0.27226219426E+02  0.96050036026E+02  0.00000000000E+00 0.  1.
<mgrwt>
<rscale>  0 0.13246559E+04</rscale>
<asrwt>0</asrwt>
<pdfrwt beam="1">  1        1 0.12463275E+00 0.13246559E+04</pdfrwt>
<pdfrwt beam="2">  1       -2 0.83308105E-01 0.13246559E+04</pdfrwt>
<totfact> 0.23483493E+01</totfact>
</mgrwt>
</event>
<event>
12    5  0.5197392E-008  0.1387019E+04  0.7818608E-02  0.8963268E-01
         -2   -1    0    0    0  501 -0.00000000000E+00  0.00000000000E+00  0.78900806152E+03  0.78900806152E+03  0.00000000000E+00 0.  1.
          1   -1    0    0  501    0  0.00000000000E+00 -0.00000000000E+00 -0.60957010927E+03  0.60957010927E+03  0.00000000000E+00 0. -1.
        -24    2    1    2    0    0  0.17170436301E+03  0.13956978902E+02  0.39857667765E+03  0.44133100203E+03  0.78946183214E+02 0.  0.
        254    2    1    2    0    0 -0.17170436301E+03 -0.13956978902E+02 -0.21913872540E+03  0.95724716876E+03  0.91576371166E+03 0.  0.
         23    2    4    4    0    0 -0.26937577048E+03  0.35976572363E+03  0.72664935298E+02  0.46437351177E+03  0.91476138944E+02 0.  0.
         23    2    4    4    0    0  0.97671407465E+02 -0.37372270253E+03 -0.29180366070E+03  0.49287365699E+03  0.92556486186E+02 0.  0.
          3    1    3    3  502    0  0.59078866458E+02  0.27400956163E+02  0.79945831932E+02  0.10311382499E+03  0.00000000000E+00 0. -1.
         -4    1    3    3    0  502  0.11262549655E+03 -0.13443977262E+02  0.31863084572E+03  0.33821717704E+03  0.00000000000E+00 0.  1.
         13    1    5    5    0    0 -0.28968987316E+02  0.88008573618E+02 -0.69325421278E+01  0.92912708478E+02  0.00000000000E+00 0. -1.
        -13    1    5    5    0    0 -0.24040678316E+03  0.27175715001E+03  0.79597477426E+02  0.37146080330E+03  0.00000000000E+00 0.  1.
          1    1    6    6  503    0 -0.15870813789E+02 -0.77592542795E+02 -0.71655695999E+02  0.10680367127E+03  0.00000000000E+00 0. -1.
         -1    1    6    6    0  503  0.11354222125E+03 -0.29613015974E+03 -0.22014796470E+03  0.38606998572E+03  0.00000000000E+00 0.  1.
<mgrwt>
<rscale>  0 0.13870194E+04</rscale>
<asrwt>0</asrwt>
<pdfrwt beam="1">  1        1 0.93780017E-01 0.13870194E+04</pdfrwt>
<pdfrwt beam="2">  1       -2 0.12138586E+00 0.13870194E+04</pdfrwt>
<totfact> 0.14749068E+01</totfact>
</mgrwt>
</event>
<event>
12    5  0.5197392E-008  0.1569620E+04  0.7818608E-02  0.8839432E-01
          1   -1    0    0  501    0  0.00000000000E+00  0.00000000000E+00  0.12419001958E+04  0.12419001958E+04  0.00000000000E+00 0. -1.
         -2   -1    0    0    0  501 -0.00000000000E+00 -0.00000000000E+00 -0.49595496517E+03  0.49595496517E+03  0.00000000000E+00 0.  1.
        -24    2    1    2    0    0  0.20215603181E+03  0.23143810020E+03  0.72206803598E+03  0.78890030207E+03  0.80936905064E+02 0.  0.
        254    2    1    2    0    0 -0.20215603181E+03 -0.23143810020E+03  0.23877194626E+02  0.94895485888E+03  0.89750462303E+03 0.  0.
         23    2    4    4    0    0 -0.47989915910E+03 -0.32444777894E+03  0.16934458743E+03  0.60985090229E+03  0.87584071381E+02 0.  0.
         23    2    4    4    0    0  0.27774312729E+03  0.93009678747E+02 -0.14546739280E+03  0.33910395660E+03  0.89658719103E+02 0.  0.
          3    1    3    3  502    0  0.15199893303E+03  0.21655242832E+03  0.57963079341E+03  0.63715813306E+03  0.00000000000E+00 0. -1.
         -4    1    3    3    0  502  0.50157098785E+02  0.14885671879E+02  0.14243724257E+03  0.15174216901E+03  0.00000000000E+00 0.  1.
         13    1    5    5    0    0 -0.29691708188E+03 -0.19036614896E+03  0.59053372228E+02  0.35761197541E+03  0.00000000000E+00 0. -1.
        -13    1    5    5    0    0 -0.18298207722E+03 -0.13408162999E+03  0.11029121520E+03  0.25223892688E+03  0.00000000000E+00 0.  1.
          2    1    6    6  503    0  0.10405823456E+03  0.36679442329E+02 -0.81382233428E+01  0.11063330578E+03  0.00000000000E+00 0. -1.
         -2    1    6    6    0  503  0.17368489273E+03  0.56330236418E+02 -0.13732916946E+03  0.22847065081E+03  0.00000000000E+00 0.  1.
<mgrwt>
<rscale>  0 0.15696198E+04</rscale>
<asrwt>0</asrwt>
<pdfrwt beam="1">  1        1 0.19106157E+00 0.15696198E+04</pdfrwt>
<pdfrwt beam="2">  1       -2 0.76300764E-01 0.15696198E+04</pdfrwt>
<totfact> 0.12916085E+01</totfact>
</mgrwt>
</event>
<event>
12    5  0.5197392E-008  0.1411670E+04  0.7818608E-02  0.8945414E-01
          1   -1    0    0  501    0  0.00000000000E+00  0.00000000000E+00  0.14082254687E+04  0.14082254687E+04  0.00000000000E+00 0. -1.
         -2   -1    0    0    0  501 -0.00000000000E+00 -0.00000000000E+00 -0.35378061800E+03  0.35378061800E+03  0.00000000000E+00 0.  1.
        -24    2    1    2    0    0 -0.93241195712E+01 -0.40700355137E+03  0.22176206120E+03  0.47043018433E+03  0.79920688901E+02 0.  0.
        254    2    1    2    0    0  0.93241195712E+01  0.40700355137E+03  0.83268278948E+03  0.12915759023E+04  0.89948254768E+03 0.  0.
         23    2    4    4    0    0  0.19817527506E+03  0.30721389525E+03 -0.48627130188E+02  0.38013076631E+03  0.92092261526E+02 0.  0.
         23    2    4    4    0    0 -0.18885115549E+03  0.99789656120E+02  0.88130991967E+03  0.91144513603E+03  0.91664208280E+02 0.  0.
          3    1    3    3  502    0  0.14386330421E+02 -0.78325160305E+02  0.76064900341E+02  0.11012568412E+03  0.00000000000E+00 0. -1.
         -4    1    3    3    0  502 -0.23710449993E+02 -0.32867839106E+03  0.14569716086E+03  0.36030450021E+03  0.00000000000E+00 0.  1.
         13    1    5    5    0    0  0.20739723228E+03  0.29666522003E+03 -0.52081584383E+02  0.36569981701E+03  0.00000000000E+00 0.  1.
        -13    1    5    5    0    0 -0.92219572258E+01  0.10548675218E+02  0.34544541944E+01  0.14430949300E+02  0.00000000000E+00 0. -1.
          1    1    6    6  503    0 -0.44463976455E+02  0.56350664727E+02  0.17366242627E+03  0.18791242885E+03  0.00000000000E+00 0. -1.
         -1    1    6    6    0  503 -0.14438717903E+03  0.43438991393E+02  0.70764749340E+03  0.72353270718E+03  0.00000000000E+00 0.  1.
<mgrwt>
<rscale>  0 0.14116698E+04</rscale>
<asrwt>0</asrwt>
<pdfrwt beam="1">  1        1 0.21665007E+00 0.14116698E+04</pdfrwt>
<pdfrwt beam="2">  1       -2 0.54427788E-01 0.14116698E+04</pdfrwt>
<totfact> 0.20586913E+01</totfact>
</mgrwt>
</event>
<event>
12    5  0.5197392E-008  0.1141309E+04  0.7818608E-02  0.9165839E-01
          1   -1    0    0  501    0  0.00000000000E+00  0.00000000000E+00  0.31577398074E+04  0.31577398074E+04  0.00000000000E+00 0. -1.
         -2   -1    0    0    0  501 -0.00000000000E+00 -0.00000000000E+00 -0.10312639539E+03  0.10312639539E+03  0.00000000000E+00 0.  1.
        -24    2    1    2    0    0  0.19540790698E+03 -0.48013168140E+02  0.60612625773E+03  0.64269040557E+03  0.71919417913E+02 0.  0.
        254    2    1    2    0    0 -0.19540790698E+03  0.48013168140E+02  0.24484871543E+04  0.26181757973E+04  0.90513294386E+03 0.  0.
         23    2    4    4    0    0 -0.23763097329E+03  0.23745611857E+03  0.30077718061E+03  0.45990160279E+03  0.90491348511E+02 0.  0.
         23    2    4    4    0    0  0.42223066312E+02 -0.18944295043E+03  0.21477099737E+04  0.21582741945E+04  0.88419164098E+02 0.  0.
          3    1    3    3  502    0  0.15992028269E+02  0.68470338378E+01  0.12623500368E+03  0.12742803064E+03  0.00000000000E+00 0. -1.
         -4    1    3    3    0  502  0.17941587871E+03 -0.54860201978E+02  0.47989125406E+03  0.51526237492E+03  0.00000000000E+00 0.  1.
         13    1    5    5    0    0 -0.23788975445E+02  0.34463192565E+01  0.50788954471E+02  0.56189948971E+02  0.00000000000E+00 0.  1.
        -13    1    5    5    0    0 -0.21384199784E+03  0.23400979931E+03  0.24998822614E+03  0.40371165382E+03  0.00000000000E+00 0. -1.
          2    1    6    6  503    0  0.66100122665E+02 -0.15778369085E+03  0.15963246091E+04  0.16054647853E+04  0.00000000000E+00 0. -1.
         -2    1    6    6    0  503 -0.23877056353E+02 -0.31659259584E+02  0.55138536462E+03  0.55280940916E+03  0.00000000000E+00 0.  1.
<mgrwt>
<rscale>  0 0.11413086E+04</rscale>
<asrwt>0</asrwt>
<pdfrwt beam="1">  1        1 0.48580605E+00 0.11413086E+04</pdfrwt>
<pdfrwt beam="2">  1       -2 0.15865602E-01 0.11413086E+04</pdfrwt>
<totfact> 0.12969664E+01</totfact>
</mgrwt>
</event>
<event>
12    5  0.5197392E-008  0.1454924E+04  0.7818608E-02  0.8914994E-01
         -2   -1    0    0    0  501 -0.00000000000E+00  0.00000000000E+00  0.78590476578E+03  0.78590476578E+03  0.00000000000E+00 0.  1.
          1   -1    0    0  501    0  0.00000000000E+00 -0.00000000000E+00 -0.67336564512E+03  0.67336564512E+03  0.00000000000E+00 0. -1.
        -24    2    1    2    0    0  0.33543032747E+01  0.25479433981E+03 -0.31559240789E+03  0.41274140208E+03  0.76324898442E+02 0.  0.
        254    2    1    2    0    0 -0.33543032747E+01 -0.25479433981E+03  0.42813152855E+03  0.10465290088E+04  0.92032328756E+03 0.  0.
         23    2    4    4    0    0  0.18980893453E+03  0.29575995011E+03  0.13862243337E+03  0.38875408556E+03  0.91717938724E+02 0.  0.
         23    2    4    4    0    0 -0.19316323781E+03 -0.55055428992E+03  0.28950909518E+03  0.65777492327E+03  0.91816506655E+02 0.  0.
          3    1    3    3  502    0  0.36154702249E+02  0.18255872157E+03 -0.20870337379E+03  0.27962823096E+03  0.00000000000E+00 0. -1.
         -2    1    3    3    0  502 -0.32800398974E+02  0.72235618235E+02 -0.10688903410E+03  0.13311317112E+03  0.00000000000E+00 0.  1.
         13    1    5    5    0    0  0.13668766515E+03  0.19531024397E+03  0.47445424026E+02  0.24306517123E+03  0.00000000000E+00 0. -1.
        -13    1    5    5    0    0  0.53121269385E+02  0.10044970615E+03  0.91177009343E+02  0.14568891433E+03  0.00000000000E+00 0.  1.
          1    1    6    6  503    0 -0.13583857246E+03 -0.29792867812E+03  0.20007483502E+03  0.38372327871E+03  0.00000000000E+00 0. -1.
         -1    1    6    6    0  503 -0.57324665347E+02 -0.25262561180E+03  0.89434260167E+02  0.27405164456E+03  0.00000000000E+00 0.  1.
<mgrwt>
<rscale>  0 0.14549244E+04</rscale>
<asrwt>0</asrwt>
<pdfrwt beam="1">  1        1 0.10359471E+00 0.14549244E+04</pdfrwt>
<pdfrwt beam="2">  1       -2 0.12090843E+00 0.14549244E+04</pdfrwt>
<totfact> 0.12793731E+01</totfact>
</mgrwt>
</event>
<event>
12    5  0.5197392E-008  0.2174049E+04  0.7818608E-02  0.8529308E-01
         -2   -1    0    0    0  501 -0.00000000000E+00  0.00000000000E+00  0.41872062211E+03  0.41872062211E+03  0.00000000000E+00 0.  1.
          1   -1    0    0  501    0  0.00000000000E+00 -0.00000000000E+00 -0.28219818743E+04  0.28219818743E+04  0.00000000000E+00 0. -1.
        -24    2    1    2    0    0  0.85045494217E+03 -0.19277366301E+03 -0.13247837100E+04  0.15880472007E+04  0.80042110828E+02 0.  0.
        254    2    1    2    0    0 -0.85045494217E+03  0.19277366301E+03 -0.10784775421E+04  0.16526552957E+04  0.89873267640E+03 0.  0.
         23    2    4    4    0    0  0.79032845943E+02  0.28962153382E+03 -0.26740725222E+03  0.41207545977E+03  0.90403110649E+02 0.  0.
         23    2    4    4    0    0 -0.92948778811E+03 -0.96847870810E+02 -0.81107028993E+03  0.12405798359E+04  0.88748271763E+02 0.  0.
          3    1    3    3  502    0  0.72789184831E+03 -0.14400397519E+03 -0.11592907718E+04  0.13764151922E+04  0.00000000000E+00 0. -1.
         -4    1    3    3    0  502  0.12256309386E+03 -0.48769687821E+02 -0.16549293824E+03  0.21163200853E+03  0.00000000000E+00 0.  1.
         13    1    5    5    0    0 -0.13595940770E+02  0.58084473668E+02 -0.26279900400E+02  0.65186569565E+02  0.00000000000E+00 0. -1.
        -13    1    5    5    0    0  0.92628786713E+02  0.23153706015E+03 -0.24112735182E+03  0.34688889021E+03  0.00000000000E+00 0.  1.
          2    1    6    6  503    0 -0.30812608192E+03 -0.23135241339E+02 -0.32322153432E+03  0.44715666382E+03  0.00000000000E+00 0. -1.
         -2    1    6    6    0  503 -0.62136170619E+03 -0.73712629471E+02 -0.48784875561E+03  0.79342317209E+03  0.00000000000E+00 0.  1.
<mgrwt>
<rscale>  0 0.21740488E+04</rscale>
<asrwt>0</asrwt>
<pdfrwt beam="1">  1        1 0.43415105E+00 0.21740488E+04</pdfrwt>
<pdfrwt beam="2">  1       -2 0.64418558E-01 0.21740488E+04</pdfrwt>
<totfact> 0.14374949E+00</totfact>
</mgrwt>
</event>
<event>
12    5  0.5197392E-008  0.1512325E+04  0.7818608E-02  0.8876298E-01
          1   -1    0    0  501    0  0.00000000000E+00  0.00000000000E+00  0.79658403791E+03  0.79658403791E+03  0.00000000000E+00 0. -1.
         -2   -1    0    0    0  501 -0.00000000000E+00 -0.00000000000E+00 -0.71779167935E+03  0.71779167935E+03  0.00000000000E+00 0.  1.
        -24    2    1    2    0    0 -0.88339133008E+01 -0.40949104173E+03 -0.23101516149E+03  0.47700692927E+03  0.80041579486E+02 0.  0.
        254    2    1    2    0    0  0.88339133008E+01  0.40949104173E+03  0.30980752005E+03  0.10373687880E+04  0.90132810428E+03 0.  0.
         23    2    4    4    0    0 -0.99259235620E+02 -0.10692827357E+03 -0.22183445728E+03  0.28197581090E+03  0.94940928751E+02 0.  0.
         23    2    4    4    0    0  0.10809314892E+03  0.51641931530E+03  0.53164197733E+03  0.75539297710E+03  0.97991426824E+02 0.  0.
          1    1    3    3  502    0  0.16710298386E+02 -0.83887868126E+02 -0.18995382811E+02  0.87619821154E+02  0.00000000000E+00 0. -1.
         -2    1    3    3    0  502 -0.25544211687E+02 -0.32560317361E+03 -0.21201977868E+03  0.38938710811E+03  0.00000000000E+00 0.  1.
         13    1    5    5    0    0 -0.45084071417E+02 -0.11079309446E+03 -0.14723698146E+03  0.18970084867E+03  0.00000000000E+00 0. -1.
        -13    1    5    5    0    0 -0.54175164202E+02  0.38648208880E+01 -0.74597475817E+02  0.92274962233E+02  0.00000000000E+00 0.  1.
          1    1    6    6  503    0  0.19310507236E+02  0.32428400691E+03  0.32964930054E+03  0.46281926729E+03  0.00000000000E+00 0. -1.
         -1    1    6    6    0  503  0.88782641684E+02  0.19213530839E+03  0.20199267679E+03  0.29257370981E+03  0.00000000000E+00 0.  1.
<mgrwt>
<rscale>  0 0.15123246E+04</rscale>
<asrwt>0</asrwt>
<pdfrwt beam="1">  1        1 0.12255139E+00 0.15123246E+04</pdfrwt>
<pdfrwt beam="2">  1       -2 0.11042949E+00 0.15123246E+04</pdfrwt>
<totfact> 0.12265177E+01</totfact>
</mgrwt>
</event>
<event>
12    5  0.5197392E-008  0.1123306E+04  0.7818608E-02  0.9182770E-01
         -2   -1    0    0    0  501 -0.00000000000E+00  0.00000000000E+00  0.15835664186E+03  0.15835664186E+03  0.00000000000E+00 0.  1.
          1   -1    0    0  501    0  0.00000000000E+00 -0.00000000000E+00 -0.19920471556E+04  0.19920471556E+04  0.00000000000E+00 0. -1.
        -24    2    1    2    0    0 -0.20367761004E+02 -0.18346256497E+03 -0.24451413734E+03  0.31630613400E+03  0.78670506607E+02 0.  0.
        254    2    1    2    0    0  0.20367761004E+02  0.18346256497E+03 -0.15891763764E+04  0.18340976634E+04  0.89686081716E+03 0.  0.
         23    2    4    4    0    0 -0.31366912961E+03  0.25669154422E+03 -0.34500731244E+03  0.54056636043E+03  0.94356094914E+02 0.  0.
         23    2    4    4    0    0  0.33403689062E+03 -0.73228979244E+02 -0.12441690639E+04  0.12935313030E+04  0.91232913497E+02 0.  0.
          3    1    3    3  502    0  0.21385714714E+02 -0.56057739447E+02 -0.11594936958E+03  0.13055295956E+03  0.00000000000E+00 0. -1.
         -4    1    3    3    0  502 -0.41753475718E+02 -0.12740482552E+03 -0.12856476777E+03  0.18575317443E+03  0.00000000000E+00 0.  1.
         13    1    5    5    0    0 -0.23239719492E+03  0.14068654668E+03 -0.25600962942E+03  0.37328553545E+03  0.00000000000E+00 0. -1.
        -13    1    5    5    0    0 -0.81271934698E+02  0.11600499754E+03 -0.88997683027E+02  0.16728082498E+03  0.00000000000E+00 0.  1.
          1    1    6    6  503    0  0.14030035989E+03  0.84312694060E+01 -0.41648834375E+03  0.43956548746E+03  0.00000000000E+00 0. -1.
         -1    1    6    6    0  503  0.19373653073E+03 -0.81660248650E+02 -0.82768072019E+03  0.85396581555E+03  0.00000000000E+00 0.  1.
<mgrwt>
<rscale>  0 0.11233057E+04</rscale>
<asrwt>0</asrwt>
<pdfrwt beam="1">  1        1 0.30646881E+00 0.11233057E+04</pdfrwt>
<pdfrwt beam="2">  1       -2 0.24362559E-01 0.11233057E+04</pdfrwt>
<totfact> 0.39720360E+01</totfact>
</mgrwt>
</event>
<event>
12    5  0.5197392E-008  0.1992343E+04  0.7818608E-02  0.8610209E-01
          1   -1    0    0  501    0  0.00000000000E+00  0.00000000000E+00  0.20344965075E+04  0.20344965075E+04  0.00000000000E+00 0. -1.
         -2   -1    0    0    0  501 -0.00000000000E+00 -0.00000000000E+00 -0.48776572124E+03  0.48776572124E+03  0.00000000000E+00 0.  1.
        -24    2    1    2    0    0  0.52388629221E+03  0.48133797176E+03  0.10497040771E+04  0.12697014403E+04  0.64187288188E+02 0.  0.
        254    2    1    2    0    0 -0.52388629221E+03 -0.48133797176E+03  0.49702670920E+03  0.12525607884E+04  0.90317766181E+03 0.  0.
         23    2    4    4    0    0 -0.39681032597E+03 -0.47006519833E+02 -0.16902716636E+03  0.44230628652E+03  0.86003607037E+02 0.  0.
         23    2    4    4    0    0 -0.12707596624E+03 -0.43433145193E+03  0.66605387556E+03  0.81025450190E+03  0.89958220076E+02 0.  0.
          3    1    3    3  502    0  0.51260996435E+03  0.45701074771E+03  0.10204431106E+04  0.12300129841E+04  0.00000000000E+00 0. -1.
         -4    1    3    3    0  502  0.11276327856E+02  0.24327224058E+02  0.29260966436E+02  0.39688456219E+02  0.00000000000E+00 0.  1.
         13    1    5    5    0    0 -0.69812620336E+02 -0.40943682272E+02 -0.44396044880E+02  0.92310323785E+02  0.00000000000E+00 0.  1.
        -13    1    5    5    0    0 -0.32699770563E+03 -0.60628375602E+01 -0.12463112148E+03  0.34999596273E+03  0.00000000000E+00 0. -1.
          2    1    6    6  503    0 -0.37484124085E+02 -0.14898013690E+03  0.30425837041E+03  0.34084204071E+03  0.00000000000E+00 0. -1.
         -2    1    6    6    0  503 -0.89591842155E+02 -0.28535131503E+03  0.36179550515E+03  0.46941246119E+03  0.00000000000E+00 0.  1.
<mgrwt>
<rscale>  0 0.19923430E+04</rscale>
<asrwt>0</asrwt>
<pdfrwt beam="1">  1        1 0.31299946E+00 0.19923430E+04</pdfrwt>
<pdfrwt beam="2">  1       -2 0.75040881E-01 0.19923430E+04</pdfrwt>
<totfact> 0.36711629E+00</totfact>
</mgrwt>
</event>
<event>
12    5  0.5197392E-008  0.1910976E+04  0.7818608E-02  0.8649412E-01
          1   -1    0    0  501    0  0.00000000000E+00  0.00000000000E+00  0.10979045842E+04  0.10979045842E+04  0.00000000000E+00 0. -1.
         -2   -1    0    0    0  501 -0.00000000000E+00 -0.00000000000E+00 -0.83154565315E+03  0.83154565315E+03  0.00000000000E+00 0.  1.
        -24    2    1    2    0    0 -0.15318733647E+03  0.66621216357E+03 -0.18603465592E+03  0.71262064247E+03  0.76904355727E+02 0.  0.
        254    2    1    2    0    0  0.15318733647E+03 -0.66621216357E+03  0.45239358698E+03  0.12168295949E+04  0.89928265774E+03 0.  0.
         23    2    4    4    0    0  0.17795117080E+03 -0.60054462871E+03  0.69941723330E+03  0.94437919705E+03  0.10172085000E+03 0.  0.
         23    2    4    4    0    0 -0.24763834332E+02 -0.65667534856E+02 -0.24702364632E+03  0.27245039784E+03  0.91011344437E+02 0.  0.
          1    1    3    3  502    0 -0.90036301723E+02  0.30907208287E+03 -0.12238007440E+03  0.34439653112E+03  0.00000000000E+00 0. -1.
         -2    1    3    3    0  502 -0.63151034749E+02  0.35714008070E+03 -0.63654581520E+02  0.36822411135E+03  0.00000000000E+00 0.  1.
         13    1    5    5    0    0  0.15953357018E+03 -0.54277466747E+03  0.67025593289E+03  0.87709652561E+03  0.00000000000E+00 0. -1.
        -13    1    5    5    0    0  0.18417600621E+02 -0.57769961249E+02  0.29161300404E+02  0.67282671444E+02  0.00000000000E+00 0.  1.
          4    1    6    6  503    0 -0.56006987304E+02 -0.57889306652E+02 -0.19846322639E+03  0.21418591616E+03  0.00000000000E+00 0. -1.
         -4    1    6    6    0  503  0.31243152972E+02 -0.77782282039E+01 -0.48560419930E+02  0.58264481680E+02  0.00000000000E+00 0.  1.
<mgrwt>
<rscale>  0 0.19109765E+04</rscale>
<asrwt>0</asrwt>
<pdfrwt beam="1">  1        1 0.16890840E+00 0.19109765E+04</pdfrwt>
<pdfrwt beam="2">  1       -2 0.12793010E+00 0.19109765E+04</pdfrwt>
<totfact> 0.47176738E+00</totfact>
</mgrwt>
</event>
<event>
12    5  0.5197392E-008  0.1831939E+04  0.7818608E-02  0.8689497E-01
         -2   -1    0    0    0  501 -0.00000000000E+00  0.00000000000E+00  0.38613735085E+03  0.38613735085E+03  0.00000000000E+00 0.  1.
          1   -1    0    0  501    0  0.00000000000E+00 -0.00000000000E+00 -0.21728011680E+04  0.21728011680E+04  0.00000000000E+00 0. -1.
        -24    2    1    2    0    0  0.55658563240E+03 -0.10376663252E+03 -0.11813281981E+03  0.58271248025E+03  0.71016838228E+02 0.  0.
        254    2    1    2    0    0 -0.55658563240E+03  0.10376663252E+03 -0.16685309974E+04  0.19762260386E+04  0.89494054908E+03 0.  0.
         23    2    4    4    0    0 -0.19792822782E+03 -0.24993412590E+03 -0.13341075076E+03  0.35735510567E+03  0.90893302698E+02 0.  0.
         23    2    4    4    0    0 -0.35865740457E+03  0.35370075841E+03 -0.15351202466E+04  0.16188709330E+04  0.10202727906E+03 0.  0.
          1    1    3    3  502    0  0.46438343030E+03 -0.96869305712E+02 -0.12319256821E+03  0.49011431482E+03  0.00000000000E+00 0. -1.
         -4    1    3    3    0  502  0.92202202093E+02 -0.68973268035E+01  0.50597483945E+01  0.92598165434E+02  0.00000000000E+00 0.  1.
         13    1    5    5    0    0 -0.14284077569E+03 -0.11077404825E+03 -0.87359481563E+02  0.20076368193E+03  0.00000000000E+00 0. -1.
        -13    1    5    5    0    0 -0.55087452135E+02 -0.13916007765E+03 -0.46051269193E+02  0.15659142374E+03  0.00000000000E+00 0.  1.
          3    1    6    6  503    0 -0.50166722880E+02  0.80621506415E+02 -0.40536275783E+03  0.41633579334E+03  0.00000000000E+00 0. -1.
         -3    1    6    6    0  503 -0.30849068169E+03  0.27307925200E+03 -0.11297574888E+04  0.12025351396E+04  0.00000000000E+00 0.  1.
<mgrwt>
<rscale>  0 0.18319385E+04</rscale>
<asrwt>0</asrwt>
<pdfrwt beam="1">  1        1 0.33427711E+00 0.18319385E+04</pdfrwt>
<pdfrwt beam="2">  1       -2 0.59405744E-01 0.18319385E+04</pdfrwt>
<totfact> 0.49712436E+00</totfact>
</mgrwt>
</event>
<event>
12    5  0.5197392E-008  0.1060703E+04  0.7818608E-02  0.9244363E-01
         -2   -1    0    0    0  501 -0.00000000000E+00  0.00000000000E+00  0.78536875146E+02  0.78536875146E+02  0.00000000000E+00 0.  1.
          1   -1    0    0  501    0  0.00000000000E+00 -0.00000000000E+00 -0.35814091388E+04  0.35814091388E+04  0.00000000000E+00 0. -1.
        -24    2    1    2    0    0 -0.67811285365E+02 -0.12260848875E+03 -0.83067466206E+03  0.84618090173E+03  0.79815489319E+02 0.  0.
        254    2    1    2    0    0  0.67811285365E+02  0.12260848875E+03 -0.26721976016E+04  0.28137651122E+04  0.87005912028E+03 0.  0.
         23    2    4    4    0    0  0.37804862925E+03 -0.15337314952E+03 -0.17295255358E+04  0.17797122112E+04  0.98350834048E+02 0.  0.
         23    2    4    4    0    0 -0.31023734388E+03  0.27598163827E+03 -0.94267206573E+03  0.10340529010E+04  0.90673614131E+02 0.  0.
          3    1    3    3  502    0 -0.62501814425E+02 -0.97703525085E+02 -0.78796937943E+03  0.79645979091E+03  0.00000000000E+00 0. -1.
         -4    1    3    3    0  502 -0.53094709397E+01 -0.24904963666E+02 -0.42705282627E+02  0.49721110820E+02  0.00000000000E+00 0.  1.
         13    1    5    5    0    0  0.29119834404E+03 -0.83963253333E+02 -0.13818604086E+04  0.14147029696E+04  0.00000000000E+00 0.  1.
        -13    1    5    5    0    0  0.86850285211E+02 -0.69409896183E+02 -0.34766512724E+03  0.36500924156E+03  0.00000000000E+00 0. -1.
          3    1    6    6  503    0 -0.41269122953E+02  0.10244168417E+02 -0.14850184152E+03  0.15446967479E+03  0.00000000000E+00 0. -1.
         -3    1    6    6    0  503 -0.26896822093E+03  0.26573746985E+03 -0.79417022421E+03  0.87958322618E+03  0.00000000000E+00 0.  1.
<mgrwt>
<rscale>  0 0.10607029E+04</rscale>
<asrwt>0</asrwt>
<pdfrwt beam="1">  1        1 0.55098607E+00 0.10607029E+04</pdfrwt>
<pdfrwt beam="2">  1       -2 0.12082595E-01 0.10607029E+04</pdfrwt>
<totfact> 0.98441873E+00</totfact>
</mgrwt>
</event>
<event>
12    5  0.5197392E-008  0.1587432E+04  0.7818608E-02  0.8828307E-01
          1   -1    0    0  501    0  0.00000000000E+00  0.00000000000E+00  0.38655237240E+03  0.38655237240E+03  0.00000000000E+00 0. -1.
         -2   -1    0    0    0  501 -0.00000000000E+00 -0.00000000000E+00 -0.16297529044E+04  0.16297529044E+04  0.00000000000E+00 0.  1.
        -24    2    1    2    0    0 -0.17783052677E+03  0.44824868682E+03 -0.93427480046E+02  0.49803091569E+03  0.82191955026E+02 0.  0.
        254    2    1    2    0    0  0.17783052677E+03 -0.44824868682E+03 -0.11497730519E+04  0.15182743611E+04  0.86638812496E+03 0.  0.
         23    2    4    4    0    0  0.37718692906E+03 -0.60641496872E+03 -0.88918886338E+03  0.11437377095E+04  0.86429274732E+02 0.  0.
         23    2    4    4    0    0 -0.19935640228E+03  0.15816628191E+03 -0.26058418856E+03  0.37453665163E+03  0.87258444998E+02 0.  0.
          1    1    3    3  502    0 -0.14580626300E+03  0.26067232449E+03 -0.64327295417E+02  0.30552827696E+03  0.00000000000E+00 0. -1.
         -2    1    3    3    0  502 -0.32024263775E+02  0.18757636233E+03 -0.29100184629E+02  0.19250263874E+03  0.00000000000E+00 0.  1.
         13    1    5    5    0    0  0.20502320048E+03 -0.25890155553E+03 -0.44318519687E+03  0.55270032288E+03  0.00000000000E+00 0. -1.
        -13    1    5    5    0    0  0.17216372858E+03 -0.34751341319E+03 -0.44600366650E+03  0.59103738657E+03  0.00000000000E+00 0.  1.
          1    1    6    6  503    0 -0.17553292230E+03  0.99268204544E+02 -0.16920962234E+03  0.26324490411E+03  0.00000000000E+00 0. -1.
         -1    1    6    6    0  503 -0.23823479983E+02  0.58898077361E+02 -0.91374566220E+02  0.11129174753E+03  0.00000000000E+00 0.  1.
<mgrwt>
<rscale>  0 0.15874317E+04</rscale>
<asrwt>0</asrwt>
<pdfrwt beam="1">  1        1 0.59469594E-01 0.15874317E+04</pdfrwt>
<pdfrwt beam="2">  1       -2 0.25073122E+00 0.15874317E+04</pdfrwt>
<totfact> 0.33543622E+00</totfact>
</mgrwt>
</event>
<event>
12    5  0.5197392E-008  0.1314718E+04  0.7818608E-02  0.9017974E-01
          1   -1    0    0  501    0  0.00000000000E+00  0.00000000000E+00  0.62912063568E+03  0.62912063568E+03  0.00000000000E+00 0. -1.
         -2   -1    0    0    0  501 -0.00000000000E+00 -0.00000000000E+00 -0.68686490107E+03  0.68686490107E+03  0.00000000000E+00 0.  1.
        -24    2    1    2    0    0  0.10427577894E+03  0.85901139451E+02  0.29596790378E+03  0.33463892646E+03  0.78318370765E+02 0.  0.
        254    2    1    2    0    0 -0.10427577894E+03 -0.85901139451E+02 -0.35371216917E+03  0.98134661028E+03  0.90535983292E+03 0.  0.
         23    2    4    4    0    0 -0.19587715715E+03  0.29247722306E+03 -0.44150411857E+03  0.57211232318E+03  0.92064308617E+02 0.  0.
         23    2    4    4    0    0  0.91601378208E+02 -0.37837836251E+03  0.87791949394E+02  0.40923428710E+03  0.90577467726E+02 0.  0.
          1    1    3    3  502    0  0.25194119182E+02  0.71175822306E+02  0.15211772094E+03  0.16982503451E+03  0.00000000000E+00 0. -1.
         -2    1    3    3    0  502  0.79081659763E+02  0.14725317145E+02  0.14385018284E+03  0.16481389195E+03  0.00000000000E+00 0.  1.
         13    1    5    5    0    0 -0.95362274683E+01  0.32943750853E+02 -0.11030492950E+02  0.36026408776E+02  0.00000000000E+00 0. -1.
        -13    1    5    5    0    0 -0.18634092968E+03  0.25953347220E+03 -0.43047362562E+03  0.53608591440E+03  0.00000000000E+00 0.  1.
          4    1    6    6  503    0  0.14287476108E+02 -0.93533426695E+00  0.49423683879E+01  0.15147073282E+02  0.00000000000E+00 0. -1.
         -4    1    6    6    0  503  0.77313902100E+02 -0.37744302824E+03  0.82849581006E+02  0.39408721382E+03  0.00000000000E+00 0.  1.
<mgrwt>
<rscale>  0 0.13147180E+04</rscale>
<asrwt>0</asrwt>
<pdfrwt beam="1">  1        1 0.96787790E-01 0.13147180E+04</pdfrwt>
<pdfrwt beam="2">  1       -2 0.10567152E+00 0.13147180E+04</pdfrwt>
<totfact> 0.19875381E+01</totfact>
</mgrwt>
</event>
<event>
12    5  0.5197392E-008  0.2165368E+04  0.7818608E-02  0.8532982E-01
         -2   -1    0    0    0  501 -0.00000000000E+00  0.00000000000E+00  0.57787121145E+03  0.57787121145E+03  0.00000000000E+00 0.  1.
          1   -1    0    0  501    0  0.00000000000E+00 -0.00000000000E+00 -0.20284880347E+04  0.20284880347E+04  0.00000000000E+00 0. -1.
        -24    2    1    2    0    0 -0.14442394129E+03 -0.63750791907E+03 -0.13941133712E+04  0.15414992325E+04  0.73438207075E+02 0.  0.
        254    2    1    2    0    0  0.14442394129E+03  0.63750791907E+03 -0.56503452041E+02  0.10648600137E+04  0.83872497692E+03 0.  0.
         23    2    4    4    0    0 -0.28992551757E+02  0.80075626867E+03 -0.14098505368E+02  0.80657797593E+03  0.91203582852E+02 0.  0.
         23    2    4    4    0    0  0.17341649305E+03 -0.16324834960E+03 -0.42404946673E+02  0.25828203773E+03  0.90488274409E+02 0.  0.
          3    1    3    3  502    0 -0.13532419933E+03 -0.53953766307E+03 -0.12338954876E+04  0.13534812903E+04  0.00000000000E+00 0. -1.
         -4    1    3    3    0  502 -0.90997419629E+01 -0.97970256001E+02 -0.16021788362E+03  0.18801794222E+03  0.00000000000E+00 0.  1.
         13    1    5    5    0    0 -0.14233405684E+02  0.77437217861E+03 -0.34039658063E+01  0.77451045688E+03  0.00000000000E+00 0.  1.
        -13    1    5    5    0    0 -0.14759146073E+02  0.26384090067E+02 -0.10694539561E+02  0.32067519048E+02  0.00000000000E+00 0. -1.
          1    1    6    6  503    0 -0.22827956968E+00 -0.39945444559E+02  0.45288943628E+01  0.40202009113E+02  0.00000000000E+00 0. -1.
         -1    1    6    6    0  503  0.17364477262E+03 -0.12330290504E+03 -0.46933841036E+02  0.21808002862E+03  0.00000000000E+00 0.  1.
<mgrwt>
<rscale>  0 0.21653682E+04</rscale>
<asrwt>0</asrwt>
<pdfrwt beam="1">  1        1 0.31207508E+00 0.21653682E+04</pdfrwt>
<pdfrwt beam="2">  1       -2 0.88903264E-01 0.21653682E+04</pdfrwt>
<totfact> 0.24888425E+00</totfact>
</mgrwt>
</event>
<event>
12    5  0.5197392E-008  0.1953706E+04  0.7818608E-02  0.8628576E-01
         -2   -1    0    0    0  501 -0.00000000000E+00  0.00000000000E+00  0.84487919982E+03  0.84487919982E+03  0.00000000000E+00 0.  1.
          1   -1    0    0  501    0  0.00000000000E+00 -0.00000000000E+00 -0.11294412897E+04  0.11294412897E+04  0.00000000000E+00 0. -1.
        -24    2    1    2    0    0 -0.30900310947E+03  0.54711826944E+03  0.33016328898E+03  0.71466523753E+03  0.83170198537E+02 0.  0.
        254    2    1    2    0    0  0.30900310947E+03 -0.54711826944E+03 -0.61472537891E+03  0.12596552520E+04  0.90223208771E+03 0.  0.
         23    2    4    4    0    0  0.50613645739E+02 -0.30797715509E+03  0.19031287021E+03  0.37632047917E+03  0.89366913803E+02 0.  0.
         23    2    4    4    0    0  0.25838946373E+03 -0.23914111435E+03 -0.80503824912E+03  0.88333477287E+03  0.90775276775E+02 0.  0.
          3    1    3    3  502    0 -0.67182134882E+02  0.19590766738E+03  0.11848851647E+03  0.23860591343E+03  0.00000000000E+00 0. -1.
         -4    1    3    3    0  502 -0.24182097458E+03  0.35121060205E+03  0.21167477251E+03  0.47605932410E+03  0.00000000000E+00 0.  1.
         13    1    5    5    0    0 -0.62826355295E+01 -0.11486143642E+02  0.33829898580E+02  0.36274854140E+02  0.00000000000E+00 0. -1.
        -13    1    5    5    0    0  0.56896281268E+02 -0.29649101145E+03  0.15648297163E+03  0.34004562503E+03  0.00000000000E+00 0.  1.
          3    1    6    6  503    0  0.18906056390E+02 -0.78142786117E+01 -0.13216890666E+02  0.24355453543E+02  0.00000000000E+00 0. -1.
         -3    1    6    6    0  503  0.23948340734E+03 -0.23132683574E+03 -0.79182135846E+03  0.85897931933E+03  0.00000000000E+00 0.  1.
<mgrwt>
<rscale>  0 0.19537057E+04</rscale>
<asrwt>0</asrwt>
<pdfrwt beam="1">  1        1 0.17376020E+00 0.19537057E+04</pdfrwt>
<pdfrwt beam="2">  1       -2 0.12998142E+00 0.19537057E+04</pdfrwt>
<totfact> 0.42759738E+00</totfact>
</mgrwt>
</event>
<event>
12    5  0.5197392E-008  0.1243385E+04  0.7818608E-02  0.9075707E-01
         -2   -1    0    0    0  501 -0.00000000000E+00  0.00000000000E+00  0.32241824397E+03  0.32241824397E+03  0.00000000000E+00 0.  1.
          1   -1    0    0  501    0  0.00000000000E+00 -0.00000000000E+00 -0.11987589092E+04  0.11987589092E+04  0.00000000000E+00 0. -1.
        -24    2    1    2    0    0 -0.15371877202E+03 -0.19630126178E+03 -0.44821321937E+02  0.26575503246E+03  0.80331439245E+02 0.  0.
        254    2    1    2    0    0  0.15371877202E+03  0.19630126178E+03 -0.83151934324E+03  0.12554221207E+04  0.90691600306E+03 0.  0.
         23    2    4    4    0    0  0.23408870723E+03  0.32461868363E+03 -0.69185556955E+01  0.41174367489E+03  0.96489246996E+02 0.  0.
         23    2    4    4    0    0 -0.80369935213E+02 -0.12831742185E+03 -0.82460078755E+03  0.84367844577E+03  0.94351331726E+02 0.  0.
          1    1    3    3  502    0 -0.17591558926E+02 -0.25834315571E+02  0.21278068706E+02  0.37810461704E+02  0.00000000000E+00 0. -1.
         -2    1    3    3    0  502 -0.13612721309E+03 -0.17046694621E+03 -0.66099390643E+02  0.22794457076E+03  0.00000000000E+00 0.  1.
         13    1    5    5    0    0  0.23110817519E+03  0.32981184795E+03 -0.17345905436E+00  0.40272431485E+03  0.00000000000E+00 0.  1.
        -13    1    5    5    0    0  0.29805320380E+01 -0.51931643141E+01 -0.67450966411E+01  0.90193600394E+01  0.00000000000E+00 0. -1.
          4    1    6    6  503    0  0.67840241586E+01  0.27533591629E+00 -0.19772897165E+03  0.19784550797E+03  0.00000000000E+00 0. -1.
         -4    1    6    6    0  503 -0.87153959372E+02 -0.12859275776E+03 -0.62687181590E+03  0.64583293781E+03  0.00000000000E+00 0.  1.
<mgrwt>
<rscale>  0 0.12433853E+04</rscale>
<asrwt>0</asrwt>
<pdfrwt beam="1">  1        1 0.18442444E+00 0.12433853E+04</pdfrwt>
<pdfrwt beam="2">  1       -2 0.49602808E-01 0.12433853E+04</pdfrwt>
<totfact> 0.35635270E+01</totfact>
</mgrwt>
</event>
<event>
12    5  0.5197392E-008  0.2433820E+04  0.7818608E-02  0.8426949E-01
          1   -1    0    0  501    0  0.00000000000E+00  0.00000000000E+00  0.16293801883E+04  0.16293801883E+04  0.00000000000E+00 0. -1.
         -2   -1    0    0    0  501 -0.00000000000E+00 -0.00000000000E+00 -0.90885505815E+03  0.90885505815E+03  0.00000000000E+00 0.  1.
        -24    2    1    2    0    0 -0.37936773195E+03  0.27456752738E+03  0.12783617759E+04  0.13637410111E+04  0.79205506359E+02 0.  0.
        254    2    1    2    0    0  0.37936773195E+03 -0.27456752738E+03 -0.55783664578E+03  0.11744942353E+04  0.92138362378E+03 0.  0.
         23    2    4    4    0    0  0.63265869278E+03 -0.87010786801E+01 -0.24541064866E+03  0.68480579916E+03  0.91650781539E+02 0.  0.
         23    2    4    4    0    0 -0.25329096083E+03 -0.26586644870E+03 -0.31242599713E+03  0.48968843612E+03  0.85694115308E+02 0.  0.
          3    1    3    3  502    0 -0.31617762815E+03  0.21662028803E+03  0.11184399898E+04  0.11822861974E+04  0.00000000000E+00 0. -1.
         -4    1    3    3    0  502 -0.63190103795E+02  0.57947239354E+02  0.15992178610E+03  0.18145481376E+03  0.00000000000E+00 0.  1.
         13    1    5    5    0    0  0.41543151848E+03 -0.14069585828E+02 -0.20619558814E+03  0.46400206934E+03  0.00000000000E+00 0. -1.
        -13    1    5    5    0    0  0.21722717431E+03  0.53685071477E+01 -0.39215060521E+02  0.22080372981E+03  0.00000000000E+00 0.  1.
          1    1    6    6  503    0 -0.10042504506E+03 -0.13266614872E+03 -0.91754336193E+02  0.19001145993E+03  0.00000000000E+00 0. -1.
         -1    1    6    6    0  503 -0.15286591577E+03 -0.13320029998E+03 -0.22067166093E+03  0.29967697619E+03  0.00000000000E+00 0.  1.
<mgrwt>
<rscale>  0 0.24338204E+04</rscale>
<asrwt>0</asrwt>
<pdfrwt beam="1">  1        1 0.25067387E+00 0.24338204E+04</pdfrwt>
<pdfrwt beam="2">  1       -2 0.13982386E+00 0.24338204E+04</pdfrwt>
<totfact> 0.15063141E+00</totfact>
</mgrwt>
</event>
<event>
12    5  0.5197392E-008  0.2216696E+04  0.7818608E-02  0.8511511E-01
          1   -1    0    0  501    0  0.00000000000E+00  0.00000000000E+00  0.17355697907E+04  0.17355697907E+04  0.00000000000E+00 0. -1.
         -2   -1    0    0    0  501 -0.00000000000E+00 -0.00000000000E+00 -0.70779954809E+03  0.70779954809E+03  0.00000000000E+00 0.  1.
        -24    2    1    2    0    0  0.34674403371E+03 -0.44395674705E+03  0.12352127361E+04  0.13599362358E+04  0.79668337859E+02 0.  0.
        254    2    1    2    0    0 -0.34674403371E+03  0.44395674705E+03 -0.20744249343E+03  0.10834331030E+04  0.90192343488E+03 0.  0.
         23    2    4    4    0    0 -0.63881089114E+03  0.23374402211E+03 -0.19258484981E+03  0.71279701328E+03  0.90967220795E+02 0.  0.
         23    2    4    4    0    0  0.29206685742E+03  0.21021272495E+03 -0.14857643618E+02  0.37063608970E+03  0.87509556495E+02 0.  0.
          3    1    3    3  502    0  0.27730249816E+03 -0.29746003420E+03  0.89640894551E+03  0.98434147785E+03  0.00000000000E+00 0. -1.
         -4    1    3    3    0  502  0.69441535555E+02 -0.14649671285E+03  0.33880379054E+03  0.37559475798E+03  0.00000000000E+00 0.  1.
         13    1    5    5    0    0 -0.51208781765E+03  0.15033405993E+03 -0.13484093294E+03  0.55046919964E+03  0.00000000000E+00 0.  1.
        -13    1    5    5    0    0 -0.12672307349E+03  0.83409962178E+02 -0.57743916873E+02  0.16232781364E+03  0.00000000000E+00 0. -1.
          2    1    6    6  503    0  0.14295834695E+03  0.15546606479E+03 -0.15783598887E+02  0.21179213455E+03  0.00000000000E+00 0. -1.
         -2    1    6    6    0  503  0.14910851047E+03  0.54746660159E+02  0.92595526921E+00  0.15884395515E+03  0.00000000000E+00 0.  1.
<mgrwt>
<rscale>  0 0.22166962E+04</rscale>
<asrwt>0</asrwt>
<pdfrwt beam="1">  1        1 0.26701074E+00 0.22166962E+04</pdfrwt>
<pdfrwt beam="2">  1       -2 0.10889224E+00 0.22166962E+04</pdfrwt>
<totfact> 0.24262411E+00</totfact>
</mgrwt>
</event>
<event>
12    5  0.5197392E-008  0.1973545E+04  0.7818608E-02  0.8619090E-01
          1   -1    0    0  501    0  0.00000000000E+00  0.00000000000E+00  0.19618153462E+04  0.19618153462E+04  0.00000000000E+00 0. -1.
         -2   -1    0    0    0  501 -0.00000000000E+00 -0.00000000000E+00 -0.49633614430E+03  0.49633614430E+03  0.00000000000E+00 0.  1.
        -24    2    1    2    0    0  0.60982842274E+03 -0.26165000017E+03  0.66386926916E+02  0.67205833112E+03  0.83088799486E+02 0.  0.
        254    2    1    2    0    0 -0.60982842274E+03  0.26165000017E+03  0.13990922750E+04  0.17860931594E+04  0.89012254903E+03 0.  0.
         23    2    4    4    0    0 -0.21723599887E+03  0.48855686497E+03  0.36733847680E+03  0.65591891702E+03  0.97019480758E+02 0.  0.
         23    2    4    4    0    0 -0.39259242387E+03 -0.22690686480E+03  0.10317537982E+04  0.11301742424E+04  0.84630854067E+02 0.  0.
          3    1    3    3  502    0  0.43374354512E+02  0.30336882423E+01  0.23145899623E+01  0.43541878926E+02  0.00000000000E+00 0. -1.
         -4    1    3    3    0  502  0.56645406822E+03 -0.26468368842E+03  0.64072336953E+02  0.62851645220E+03  0.00000000000E+00 0.  1.
         13    1    5    5    0    0 -0.20353330608E+02  0.67509524909E+02  0.91185083994E+02  0.11526714000E+03  0.00000000000E+00 0.  1.
        -13    1    5    5    0    0 -0.19688266826E+03  0.42104734006E+03  0.27615339281E+03  0.54065177702E+03  0.00000000000E+00 0. -1.
          4    1    6    6  503    0 -0.19960784392E+03 -0.76677180800E+02  0.54467918583E+03  0.58514792736E+03  0.00000000000E+00 0. -1.
         -4    1    6    6    0  503 -0.19298457995E+03 -0.15022968400E+03  0.48707461237E+03  0.54502631502E+03  0.00000000000E+00 0.  1.
<mgrwt>
<rscale>  0 0.19735449E+04</rscale>
<asrwt>0</asrwt>
<pdfrwt beam="1">  1        1 0.30181774E+00 0.19735449E+04</pdfrwt>
<pdfrwt beam="2">  1       -2 0.76359408E-01 0.19735449E+04</pdfrwt>
<totfact> 0.39626043E+00</totfact>
</mgrwt>
</event>
<event>
12    5  0.5197392E-008  0.2102466E+04  0.7818608E-02  0.8560158E-01
          1   -1    0    0  501    0  0.00000000000E+00  0.00000000000E+00  0.69536352878E+03  0.69536352878E+03  0.00000000000E+00 0. -1.
         -2   -1    0    0    0  501 -0.00000000000E+00 -0.00000000000E+00 -0.15892271555E+04  0.15892271555E+04  0.00000000000E+00 0.  1.
        -24    2    1    2    0    0  0.45482023139E+02 -0.94157236664E+01 -0.12970295735E+04  0.13002797800E+04  0.79274974142E+02 0.  0.
        254    2    1    2    0    0 -0.45482023139E+02  0.94157236664E+01  0.40316594681E+03  0.98431090424E+03  0.89675409408E+03 0.  0.
         23    2    4    4    0    0  0.33366672208E+03  0.15879205992E+03  0.41956433503E+03  0.56655084383E+03  0.91636388511E+02 0.  0.
         23    2    4    4    0    0 -0.37914874522E+03 -0.14937633625E+03 -0.16398388224E+02  0.41776006041E+03  0.90484805899E+02 0.  0.
          3    1    3    3  502    0  0.28249325567E+02 -0.21829153199E+02 -0.20788876574E+03  0.21093192088E+03  0.00000000000E+00 0. -1.
         -4    1    3    3    0  502  0.17232697572E+02  0.12413429533E+02 -0.10891408078E+04  0.10893478592E+04  0.00000000000E+00 0.  1.
         13    1    5    5    0    0  0.88361546399E+02  0.89258705752E+02  0.13105790292E+03  0.18152425004E+03  0.00000000000E+00 0.  1.
        -13    1    5    5    0    0  0.24530517568E+03  0.69533354165E+02  0.28850643211E+03  0.38502659379E+03  0.00000000000E+00 0. -1.
          3    1    6    6  503    0 -0.23498293015E+03 -0.50748065749E+02  0.12433318931E+02  0.24072168797E+03  0.00000000000E+00 0. -1.
         -3    1    6    6    0  503 -0.14416581508E+03 -0.98628270503E+02 -0.28831707155E+02  0.17703837244E+03  0.00000000000E+00 0.  1.
<mgrwt>
<rscale>  0 0.21024658E+04</rscale>
<asrwt>0</asrwt>
<pdfrwt beam="1">  1        1 0.10697900E+00 0.21024658E+04</pdfrwt>
<pdfrwt beam="2">  1       -2 0.24449649E+00 0.21024658E+04</pdfrwt>
<totfact> 0.15399590E+00</totfact>
</mgrwt>
</event>
<event>
12    5  0.5197392E-008  0.1276003E+04  0.7818608E-02  0.9048815E-01
         -2   -1    0    0    0  501 -0.00000000000E+00  0.00000000000E+00  0.38065935961E+03  0.38065935961E+03  0.00000000000E+00 0.  1.
          1   -1    0    0  501    0  0.00000000000E+00 -0.00000000000E+00 -0.10693175589E+04  0.10693175589E+04  0.00000000000E+00 0. -1.
        -24    2    1    2    0    0  0.18738881231E+03 -0.12207873009E+03  0.52099615622E+02  0.24375401381E+03  0.81754914102E+02 0.  0.
        254    2    1    2    0    0 -0.18738881231E+03  0.12207873009E+03 -0.74075781491E+03  0.12062229047E+04  0.92532900752E+03 0.  0.
         23    2    4    4    0    0  0.31274528283E+03 -0.72968820995E+02 -0.52160169735E+03  0.61938310062E+03  0.91831551669E+02 0.  0.
         23    2    4    4    0    0 -0.50013409514E+03  0.19504755109E+03 -0.21915611756E+03  0.58683980408E+03  0.90409576314E+02 0.  0.
          3    1    3    3  502    0  0.34576955867E+02 -0.65140958130E+02  0.45538002684E+01  0.73889426849E+02  0.00000000000E+00 0. -1.
         -4    1    3    3    0  502  0.15281185644E+03 -0.56937771964E+02  0.47545815353E+02  0.16986458696E+03  0.00000000000E+00 0.  1.
         13    1    5    5    0    0  0.21147775847E+03 -0.59399450442E+02 -0.27160973718E+03  0.34931788728E+03  0.00000000000E+00 0.  1.
        -13    1    5    5    0    0  0.10126752436E+03 -0.13569370553E+02 -0.24999196017E+03  0.27006521334E+03  0.00000000000E+00 0. -1.
          3    1    6    6  503    0 -0.45811274602E+03  0.16938457106E+03 -0.16973403763E+03  0.51707645905E+03  0.00000000000E+00 0. -1.
         -3    1    6    6    0  503 -0.42021349122E+02  0.25662980030E+02 -0.49422079922E+02  0.69763345031E+02  0.00000000000E+00 0.  1.
<mgrwt>
<rscale>  0 0.12760027E+04</rscale>
<asrwt>0</asrwt>
<pdfrwt beam="1">  1        1 0.16451039E+00 0.12760027E+04</pdfrwt>
<pdfrwt beam="2">  1       -2 0.58562980E-01 0.12760027E+04</pdfrwt>
<totfact> 0.31469311E+01</totfact>
</mgrwt>
</event>
<event>
12    5  0.5197392E-008  0.2512145E+04  0.7818608E-02  0.8398672E-01
          1   -1    0    0  501    0  0.00000000000E+00  0.00000000000E+00  0.19802253572E+04  0.19802253572E+04  0.00000000000E+00 0. -1.
         -2   -1    0    0    0  501 -0.00000000000E+00 -0.00000000000E+00 -0.79673661806E+03  0.79673661806E+03  0.00000000000E+00 0.  1.
        -24    2    1    2    0    0 -0.55857772647E+03  0.40635191374E+02 -0.52042446129E+03  0.76835971007E+03  0.76646779872E+02 0.  0.
        254    2    1    2    0    0  0.55857772647E+03 -0.40635191374E+02  0.17039132004E+04  0.20086022652E+04  0.90415848713E+03 0.  0.
         23    2    4    4    0    0  0.11012490273E+03  0.37401970728E+03  0.40003438562E+03  0.56586888348E+03  0.90342946475E+02 0.  0.
         23    2    4    4    0    0  0.44845282374E+03 -0.41465489865E+03  0.13038788148E+04  0.14427333817E+04  0.91274459205E+02 0.  0.
          1    1    3    3  502    0 -0.16754981638E+03 -0.44801480828E+01 -0.19895515636E+03  0.26014643364E+03  0.00000000000E+00 0. -1.
         -2    1    3    3    0  502 -0.39102791009E+03  0.45115339457E+02 -0.32146930493E+03  0.50821327642E+03  0.00000000000E+00 0.  1.
         13    1    5    5    0    0  0.28614103486E+02  0.10868693199E+03  0.17757345348E+03  0.21015220076E+03  0.00000000000E+00 0.  1.
        -13    1    5    5    0    0  0.81510799247E+02  0.26533277529E+03  0.22246093214E+03  0.35571668272E+03  0.00000000000E+00 0. -1.
          2    1    6    6  503    0  0.35013162417E+03 -0.26769524246E+03  0.92923207377E+03  0.10284576530E+04  0.00000000000E+00 0. -1.
         -2    1    6    6    0  503  0.98321199563E+02 -0.14695965620E+03  0.37464674100E+03  0.41427572868E+03  0.00000000000E+00 0.  1.
<mgrwt>
<rscale>  0 0.25121449E+04</rscale>
<asrwt>0</asrwt>
<pdfrwt beam="1">  1        1 0.30465005E+00 0.25121449E+04</pdfrwt>
<pdfrwt beam="2">  1       -2 0.12257487E+00 0.25121449E+04</pdfrwt>
<totfact> 0.12070935E+00</totfact>
</mgrwt>
</event>
<event>
12    5  0.5197392E-008  0.1203893E+04  0.7818608E-02  0.9109456E-01
          3   -1    0    0  501    0  0.00000000000E+00  0.00000000000E+00  0.13454546547E+04  0.13454546547E+04  0.00000000000E+00 0. -1.
         -4   -1    0    0    0  501 -0.00000000000E+00 -0.00000000000E+00 -0.26930645706E+03  0.26930645706E+03  0.00000000000E+00 0.  1.
        -24    2    1    2    0    0 -0.60504293444E+01  0.57144266456E+02  0.54789813398E+03  0.55651153452E+03  0.78807664261E+02 0.  0.
        254    2    1    2    0    0  0.60504293444E+01 -0.57144266456E+02  0.52825006362E+03  0.10582495772E+04  0.91517318747E+03 0.  0.
         23    2    4    4    0    0 -0.27304150125E+03 -0.14152643406E+03 -0.11884577429E+03  0.34231885627E+03  0.92067846460E+02 0.  0.
         23    2    4    4    0    0  0.27909193059E+03  0.84382167601E+02  0.64709583791E+03  0.71593072093E+03  0.93867554594E+02 0.  0.
          3    1    3    3  502    0 -0.14327179407E+02  0.74950171400E+02  0.38980205179E+03  0.39720075005E+03  0.00000000000E+00 0. -1.
         -4    1    3    3    0  502  0.82767500622E+01 -0.17805904944E+02  0.15809608219E+03  0.15931078447E+03  0.00000000000E+00 0.  1.
         13    1    5    5    0    0 -0.89992515925E+02 -0.72287025956E+02 -0.85838968936E+02  0.14384851627E+03  0.00000000000E+00 0.  1.
        -13    1    5    5    0    0 -0.18304898533E+03 -0.69239408102E+02 -0.33006805355E+02  0.19847034001E+03  0.00000000000E+00 0. -1.
          4    1    6    6  503    0  0.28341815842E+03  0.72328981510E+02  0.62979909419E+03  0.69440926918E+03  0.00000000000E+00 0. -1.
         -4    1    6    6    0  503 -0.43262278223E+01  0.12053186092E+02  0.17296743722E+02  0.21521451752E+02  0.00000000000E+00 0.  1.
<mgrwt>
<rscale>  0 0.12038931E+04</rscale>
<asrwt>0</asrwt>
<pdfrwt beam="1">  1        3 0.20699302E+00 0.12038931E+04</pdfrwt>
<pdfrwt beam="2">  1       -4 0.41431763E-01 0.12038931E+04</pdfrwt>
<totfact> 0.17123336E+00</totfact>
</mgrwt>
</event>
<event>
12    5  0.5197392E-008  0.2554809E+04  0.7818608E-02  0.8383716E-01
         -2   -1    0    0    0  501 -0.00000000000E+00  0.00000000000E+00  0.11200687538E+04  0.11200687538E+04  0.00000000000E+00 0.  1.
          1   -1    0    0  501    0  0.00000000000E+00 -0.00000000000E+00 -0.14568413342E+04  0.14568413342E+04  0.00000000000E+00 0. -1.
        -24    2    1    2    0    0  0.96321208058E+03  0.46926774172E+03 -0.46957977754E+03  0.11727901959E+04  0.83318368479E+02 0.  0.
        254    2    1    2    0    0 -0.96321208058E+03 -0.46926774172E+03  0.13280719712E+03  0.14041198922E+04  0.89773336484E+03 0.  0.
         23    2    4    4    0    0 -0.13655037457E+03 -0.29096560168E+01 -0.31244428713E+03  0.35181995886E+03  0.86610507457E+02 0.  0.
         23    2    4    4    0    0 -0.82666170601E+03 -0.46635808570E+03  0.44525148424E+03  0.10522999333E+04  0.90701847359E+02 0.  0.
          3    1    3    3  502    0  0.71650535838E+03  0.35340594800E+03 -0.38885199407E+03  0.88852775194E+03  0.00000000000E+00 0. -1.
         -2    1    3    3    0  502  0.24670672220E+03  0.11586179372E+03 -0.80727783466E+02  0.28426244396E+03  0.00000000000E+00 0.  1.
         13    1    5    5    0    0 -0.47459535896E+02 -0.17101903097E+02 -0.38664247960E+02  0.63559473781E+02  0.00000000000E+00 0. -1.
        -13    1    5    5    0    0 -0.89090838677E+02  0.14192247081E+02 -0.27378003917E+03  0.28826048508E+03  0.00000000000E+00 0.  1.
          4    1    6    6  503    0 -0.25216713160E+03 -0.18870827969E+03  0.16210206245E+03  0.35422613644E+03  0.00000000000E+00 0. -1.
         -4    1    6    6    0  503 -0.57449457441E+03 -0.27764980601E+03  0.28314942179E+03  0.69807379686E+03  0.00000000000E+00 0.  1.
<mgrwt>
<rscale>  0 0.25548092E+04</rscale>
<asrwt>0</asrwt>
<pdfrwt beam="1">  1        1 0.22412944E+00 0.25548092E+04</pdfrwt>
<pdfrwt beam="2">  1       -2 0.17231827E+00 0.25548092E+04</pdfrwt>
<totfact> 0.11168581E+00</totfact>
</mgrwt>
</event>
<event>
12    5  0.5197392E-008  0.2472277E+04  0.7818608E-02  0.8412929E-01
         -4   -1    0    0    0  501 -0.00000000000E+00  0.00000000000E+00  0.52611914221E+03  0.52611914221E+03  0.00000000000E+00 0.  1.
          1   -1    0    0  501    0  0.00000000000E+00 -0.00000000000E+00 -0.29043579055E+04  0.29043579055E+04  0.00000000000E+00 0. -1.
        -24    2    1    2    0    0  0.34395191753E+03 -0.41796754542E+03  0.24667189533E+03  0.60021062942E+03  0.80037398277E+02 0.  0.
        254    2    1    2    0    0 -0.34395191753E+03  0.41796754542E+03 -0.26249106586E+04  0.28302664183E+04  0.90953407970E+03 0.  0.
         23    2    4    4    0    0 -0.10265772502E+03 -0.24232654257E+03 -0.12798546436E+04  0.13098682023E+04  0.92011069468E+02 0.  0.
         23    2    4    4    0    0 -0.24129419250E+03  0.66029408799E+03 -0.13450560150E+04  0.15203982160E+04  0.90685619924E+02 0.  0.
          1    1    3    3  502    0  0.22886485710E+02 -0.69473380234E+02  0.38383985449E+02  0.82605521173E+02  0.00000000000E+00 0. -1.
         -2    1    3    3    0  502  0.32106543182E+03 -0.34849416519E+03  0.20828790988E+03  0.51760510825E+03  0.00000000000E+00 0.  1.
         13    1    5    5    0    0 -0.84995910630E+02 -0.14398690339E+03 -0.96994569981E+03  0.98425159068E+03  0.00000000000E+00 0.  1.
        -13    1    5    5    0    0 -0.17661814393E+02 -0.98339639181E+02 -0.30990894380E+03  0.32561661163E+03  0.00000000000E+00 0. -1.
          1    1    6    6  503    0 -0.23001798416E+03  0.62770179642E+03 -0.13126167885E+04  0.14730514763E+04  0.00000000000E+00 0. -1.
         -1    1    6    6    0  503 -0.11276208343E+02  0.32592291571E+02 -0.32439226476E+02  0.47346739685E+02  0.00000000000E+00 0.  1.
<mgrwt>
<rscale>  0 0.24722769E+04</rscale>
<asrwt>0</asrwt>
<pdfrwt beam="1">  1        1 0.44682429E+00 0.24722769E+04</pdfrwt>
<pdfrwt beam="2">  1       -4 0.80941408E-01 0.24722769E+04</pdfrwt>
<totfact> 0.41823440E-01</totfact>
</mgrwt>
</event>
<event>
12    5  0.5197392E-008  0.1999479E+04  0.7818608E-02  0.8606864E-01
         -2   -1    0    0    0  501 -0.00000000000E+00  0.00000000000E+00  0.25910450471E+03  0.25910450471E+03  0.00000000000E+00 0.  1.
          1   -1    0    0  501    0  0.00000000000E+00 -0.00000000000E+00 -0.38574346403E+04  0.38574346403E+04  0.00000000000E+00 0. -1.
        -24    2    1    2    0    0  0.48081770613E+03  0.50093267562E+03 -0.21083332000E+04  0.22211472097E+04  0.79415571821E+02 0.  0.
        254    2    1    2    0    0 -0.48081770613E+03 -0.50093267562E+03 -0.14899969356E+04  0.18953919353E+04  0.94355736882E+03 0.  0.
         23    2    4    4    0    0  0.67256919793E+02  0.15123542087E+03 -0.14863794147E+02  0.18951714820E+03  0.91105275907E+02 0.  0.
         23    2    4    4    0    0 -0.54807462592E+03 -0.65216809649E+03 -0.14751331415E+04  0.17058747871E+04  0.91005398591E+02 0.  0.
          1    1    3    3  502    0  0.76518862925E+02  0.82083033536E+02 -0.44317931837E+03  0.45716590972E+03  0.00000000000E+00 0. -1.
         -2    1    3    3    0  502  0.40429884320E+03  0.41884964208E+03 -0.16651538816E+04  0.17639813000E+04  0.00000000000E+00 0.  1.
         13    1    5    5    0    0  0.76866054333E+02  0.14044445451E+03  0.10370593185E+02  0.16043872448E+03  0.00000000000E+00 0. -1.
        -13    1    5    5    0    0 -0.96091345394E+01  0.10790966362E+02 -0.25234387332E+02  0.29078423713E+02  0.00000000000E+00 0.  1.
          1    1    6    6  503    0 -0.52271913236E+03 -0.62191548333E+03 -0.13601509314E+04  0.15843057521E+04  0.00000000000E+00 0. -1.
         -1    1    6    6    0  503 -0.25355493567E+02 -0.30252613160E+02 -0.11498221006E+03  0.12156903507E+03  0.00000000000E+00 0.  1.
<mgrwt>
<rscale>  0 0.19994786E+04</rscale>
<asrwt>0</asrwt>
<pdfrwt beam="1">  1        1 0.59345145E+00 0.19994786E+04</pdfrwt>
<pdfrwt beam="2">  1       -2 0.39862234E-01 0.19994786E+04</pdfrwt>
<totfact> 0.62297710E-01</totfact>
</mgrwt>
</event>
<event>
12    5  0.5197392E-008  0.1500749E+04  0.7818608E-02  0.8883955E-01
          1   -1    0    0  501    0  0.00000000000E+00  0.00000000000E+00  0.73168200095E+03  0.73168200095E+03  0.00000000000E+00 0. -1.
         -2   -1    0    0    0  501 -0.00000000000E+00 -0.00000000000E+00 -0.76954479310E+03  0.76954479310E+03  0.00000000000E+00 0.  1.
        -24    2    1    2    0    0 -0.41526339514E+03 -0.15444520936E+03 -0.21733298611E+03  0.49980038442E+03  0.79181988992E+02 0.  0.
        254    2    1    2    0    0  0.41526339514E+03  0.15444520936E+03  0.17947019395E+03  0.10014264096E+04  0.87997062073E+03 0.  0.
         23    2    4    4    0    0  0.99961225757E+02 -0.32669864227E+03  0.22199058438E+03  0.41747947230E+03  0.91022199033E+02 0.  0.
         23    2    4    4    0    0  0.31530216938E+03  0.48114385163E+03 -0.42520390431E+02  0.58394693734E+03  0.90946017191E+02 0.  0.
          1    1    3    3  502    0 -0.38080408697E+03 -0.16222524160E+03 -0.20810293376E+03  0.46328782922E+03  0.00000000000E+00 0. -1.
         -2    1    3    3    0  502 -0.34459308163E+02  0.77800322351E+01 -0.92300523479E+01  0.36512555197E+02  0.00000000000E+00 0.  1.
         13    1    5    5    0    0  0.26659922718E+02 -0.19678413955E+03  0.88912820567E+02  0.21757812096E+03  0.00000000000E+00 0.  1.
        -13    1    5    5    0    0  0.73301303039E+02 -0.12991450272E+03  0.13307776382E+03  0.19990135134E+03  0.00000000000E+00 0. -1.
          3    1    6    6  503    0  0.61893960702E+02  0.40153038079E+02 -0.61782039905E+01  0.74035795687E+02  0.00000000000E+00 0. -1.
         -3    1    6    6    0  503  0.25340820868E+03  0.44099081355E+03 -0.36342186441E+02  0.50991114165E+03  0.00000000000E+00 0.  1.
<mgrwt>
<rscale>  0 0.15007492E+04</rscale>
<asrwt>0</asrwt>
<pdfrwt beam="1">  1        1 0.11256646E+00 0.15007492E+04</pdfrwt>
<pdfrwt beam="2">  1       -2 0.11839151E+00 0.15007492E+04</pdfrwt>
<totfact> 0.11837354E+01</totfact>
</mgrwt>
</event>
<event>
12    5  0.5197392E-008  0.1985445E+04  0.7818608E-02  0.8613456E-01
         -2   -1    0    0    0  501 -0.00000000000E+00  0.00000000000E+00  0.52661683382E+03  0.52661683382E+03  0.00000000000E+00 0.  1.
          1   -1    0    0  501    0  0.00000000000E+00 -0.00000000000E+00 -0.18713754126E+04  0.18713754126E+04  0.00000000000E+00 0. -1.
        -24    2    1    2    0    0 -0.69557500191E+03 -0.17385486843E+03 -0.93348285032E+03  0.11797130273E+04  0.79262200662E+02 0.  0.
        254    2    1    2    0    0  0.69557500191E+03  0.17385486843E+03 -0.41127572847E+03  0.12182792191E+04  0.89498962694E+03 0.  0.
         23    2    4    4    0    0  0.88042376773E+03  0.15890228619E+03 -0.19799712513E+03  0.92079098004E+03  0.90869246835E+02 0.  0.
         23    2    4    4    0    0 -0.18484876582E+03  0.14952582231E+02 -0.21327860334E+03  0.29748823907E+03  0.92837728343E+02 0.  0.
          1    1    3    3  502    0 -0.58956646977E+03 -0.16119221006E+03 -0.75088161099E+03  0.96819148136E+03  0.00000000000E+00 0. -1.
         -2    1    3    3    0  502 -0.10600853214E+03 -0.12662658362E+02 -0.18260123933E+03  0.21152154597E+03  0.00000000000E+00 0.  1.
         13    1    5    5    0    0  0.23242967331E+03  0.35098310970E+02 -0.92903110905E+02  0.25275765564E+03  0.00000000000E+00 0.  1.
        -13    1    5    5    0    0  0.64799409442E+03  0.12380397523E+03 -0.10509401423E+03  0.66803332440E+03  0.00000000000E+00 0. -1.
          1    1    6    6  503    0 -0.34068836342E+02  0.32998627934E+02 -0.90621486048E+02  0.10228317940E+03  0.00000000000E+00 0. -1.
         -1    1    6    6    0  503 -0.15077992947E+03 -0.18046045703E+02 -0.12265711729E+03  0.19520505967E+03  0.00000000000E+00 0.  1.
<mgrwt>
<rscale>  0 0.19854448E+04</rscale>
<asrwt>0</asrwt>
<pdfrwt beam="1">  1        1 0.28790391E+00 0.19854448E+04</pdfrwt>
<pdfrwt beam="2">  1       -2 0.81017974E-01 0.19854448E+04</pdfrwt>
<totfact> 0.39921497E+00</totfact>
</mgrwt>
</event>
<event>
12    5  0.5197392E-008  0.1932702E+04  0.7818608E-02  0.8638747E-01
          1   -1    0    0  501    0  0.00000000000E+00  0.00000000000E+00  0.86954442542E+03  0.86954442542E+03  0.00000000000E+00 0. -1.
         -2   -1    0    0    0  501 -0.00000000000E+00 -0.00000000000E+00 -0.10739354808E+04  0.10739354808E+04  0.00000000000E+00 0.  1.
        -24    2    1    2    0    0  0.41744409046E+03  0.48809700036E+03 -0.48321812116E+03  0.80860436276E+03  0.88560783846E+02 0.  0.
        254    2    1    2    0    0 -0.41744409046E+03 -0.48809700036E+03  0.27882706577E+03  0.11348755435E+04  0.89314036754E+03 0.  0.
         23    2    4    4    0    0  0.74690119698E+02 -0.45055829904E+03  0.40371502308E+03  0.61647825359E+03  0.92077263603E+02 0.  0.
         23    2    4    4    0    0 -0.49213421015E+03 -0.37538701323E+02 -0.12488795731E+03  0.51839728987E+03  0.97639712034E+02 0.  0.
          1    1    3    3  502    0  0.93263140835E+02  0.58782248380E+02 -0.76121837389E+02  0.13396977379E+03  0.00000000000E+00 0. -1.
         -2    1    3    3    0  502  0.32418094962E+03  0.42931475198E+03 -0.40709628377E+03  0.67463458896E+03  0.00000000000E+00 0.  1.
         13    1    5    5    0    0  0.72780868275E+02 -0.28261135696E+03  0.20687404588E+03  0.35771930997E+03  0.00000000000E+00 0. -1.
        -13    1    5    5    0    0  0.19092514232E+01 -0.16794694208E+03  0.19684097721E+03  0.25875894362E+03  0.00000000000E+00 0.  1.
          3    1    6    6  503    0 -0.46339744283E+03 -0.20747956418E+02 -0.94628566540E+02  0.47341549755E+03  0.00000000000E+00 0. -1.
         -3    1    6    6    0  503 -0.28736767324E+02 -0.16790744905E+02 -0.30259390769E+02  0.44981792321E+02  0.00000000000E+00 0.  1.
<mgrwt>
<rscale>  0 0.19327024E+04</rscale>
<asrwt>0</asrwt>
<pdfrwt beam="1">  1        1 0.13377606E+00 0.19327024E+04</pdfrwt>
<pdfrwt beam="2">  1       -2 0.16522084E+00 0.19327024E+04</pdfrwt>
<totfact> 0.36357645E+00</totfact>
</mgrwt>
</event>
<event>
12    5  0.5197392E-008  0.1457593E+04  0.7818608E-02  0.8913154E-01
          1   -1    0    0  501    0  0.00000000000E+00  0.00000000000E+00  0.12740993692E+04  0.12740993692E+04  0.00000000000E+00 0. -1.
         -2   -1    0    0    0  501 -0.00000000000E+00 -0.00000000000E+00 -0.41687798422E+03  0.41687798422E+03  0.00000000000E+00 0.  1.
        -24    2    1    2    0    0  0.17678439145E+03  0.22787340316E+03 -0.14448734883E+03  0.33239782737E+03  0.80204194020E+02 0.  0.
        254    2    1    2    0    0 -0.17678439145E+03 -0.22787340316E+03  0.10017087338E+04  0.13585795261E+04  0.87128579254E+03 0.  0.
         23    2    4    4    0    0 -0.86746461887E+02 -0.36559594594E+03  0.51274761992E+02  0.38986279827E+03  0.90435368745E+02 0.  0.
         23    2    4    4    0    0 -0.90037929562E+02  0.13772254278E+03  0.95043397185E+03  0.96871672780E+03  0.89515564725E+02 0.  0.
          1    1    3    3  502    0  0.63932927833E+02  0.10682032810E+03 -0.21801837082E+02  0.12638560779E+03  0.00000000000E+00 0. -1.
         -2    1    3    3    0  502  0.11285146362E+03  0.12105307507E+03 -0.12268551175E+03  0.20601221958E+03  0.00000000000E+00 0.  1.
         13    1    5    5    0    0 -0.14257633058E+01  0.48503191267E+01  0.46510590015E+01  0.68695521303E+01  0.00000000000E+00 0. -1.
        -13    1    5    5    0    0 -0.85320698581E+02 -0.37044626507E+03  0.46623702990E+02  0.38299324614E+03  0.00000000000E+00 0.  1.
          2    1    6    6  503    0 -0.23011836195E+02 -0.10006202030E+02  0.12701156035E+03  0.12946661789E+03  0.00000000000E+00 0. -1.
         -2    1    6    6    0  503 -0.67026093367E+02  0.14772874481E+03  0.82342241150E+03  0.83925010991E+03  0.00000000000E+00 0.  1.
<mgrwt>
<rscale>  0 0.14575925E+04</rscale>
<asrwt>0</asrwt>
<pdfrwt beam="1">  1        1 0.19601529E+00 0.14575925E+04</pdfrwt>
<pdfrwt beam="2">  1       -2 0.64135075E-01 0.14575925E+04</pdfrwt>
<totfact> 0.18061362E+01</totfact>
</mgrwt>
</event>
<event>
12    5  0.5197392E-008  0.1091973E+04  0.7818608E-02  0.9213051E-01
         -2   -1    0    0    0  501 -0.00000000000E+00  0.00000000000E+00  0.26880239855E+03  0.26880239855E+03  0.00000000000E+00 0.  1.
          1   -1    0    0  501    0  0.00000000000E+00 -0.00000000000E+00 -0.11089979691E+04  0.11089979691E+04  0.00000000000E+00 0. -1.
        -24    2    1    2    0    0  0.78314216680E+02  0.11319734538E+03 -0.37984597549E+02  0.16275808760E+03  0.78106401096E+02 0.  0.
        254    2    1    2    0    0 -0.78314216680E+02 -0.11319734538E+03 -0.80221097303E+03  0.12150422801E+04  0.90213000260E+03 0.  0.
         23    2    4    4    0    0 -0.47539720499E+03 -0.15846301034E+02 -0.51667754426E+03  0.70815524110E+03  0.90964569971E+02 0.  0.
         23    2    4    4    0    0  0.39708298831E+03 -0.97351044350E+02 -0.28553342877E+03  0.50688703898E+03  0.90846056056E+02 0.  0.
          1    1    3    3  502    0  0.19532120742E+02 -0.44489954418E+01 -0.22831242525E+02  0.30373721147E+02  0.00000000000E+00 0. -1.
         -2    1    3    3    0  502  0.58782095938E+02  0.11764634083E+03 -0.15153355024E+02  0.13238436645E+03  0.00000000000E+00 0.  1.
         13    1    5    5    0    0 -0.77129761278E+02 -0.27947275345E+02 -0.57387500258E+02  0.10011680908E+03  0.00000000000E+00 0.  1.
        -13    1    5    5    0    0 -0.39826744371E+03  0.12100974312E+02 -0.45929004400E+03  0.60803843203E+03  0.00000000000E+00 0. -1.
          2    1    6    6  503    0  0.28022270804E+03 -0.27441331637E+02 -0.20922325507E+03  0.35078791776E+03  0.00000000000E+00 0. -1.
         -2    1    6    6    0  503  0.11686028026E+03 -0.69909712713E+02 -0.76310173702E+02  0.15609912122E+03  0.00000000000E+00 0.  1.
<mgrwt>
<rscale>  0 0.10919731E+04</rscale>
<asrwt>0</asrwt>
<pdfrwt beam="1">  1        1 0.17061507E+00 0.10919731E+04</pdfrwt>
<pdfrwt beam="2">  1       -2 0.41354216E-01 0.10919731E+04</pdfrwt>
<totfact> 0.60427738E+01</totfact>
</mgrwt>
</event>
<event>
12    5  0.5197392E-008  0.1458637E+04  0.7818608E-02  0.8912434E-01
          1   -1    0    0  501    0  0.00000000000E+00  0.00000000000E+00  0.19883333509E+03  0.19883333509E+03  0.00000000000E+00 0. -1.
         -2   -1    0    0    0  501 -0.00000000000E+00 -0.00000000000E+00 -0.26751339307E+04  0.26751339307E+04  0.00000000000E+00 0.  1.
        -24    2    1    2    0    0  0.36679577835E+03  0.12838508258E+03 -0.35881473490E+03  0.53486689205E+03  0.79452537925E+02 0.  0.
        254    2    1    2    0    0 -0.36679577835E+03 -0.12838508258E+03 -0.21174858607E+04  0.23391003737E+04  0.91467060498E+03 0.  0.
         23    2    4    4    0    0 -0.55318272982E+03 -0.11977709912E+02 -0.19937621011E+04  0.20711277322E+04  0.91258804443E+02 0.  0.
         23    2    4    4    0    0  0.18638695147E+03 -0.11640737267E+03 -0.12372375963E+03  0.26797264150E+03  0.90614545221E+02 0.  0.
          1    1    3    3  502    0  0.36304825541E+03  0.12066263443E+03 -0.33143959951E+03  0.50617755307E+03  0.00000000000E+00 0. -1.
         -2    1    3    3    0  502  0.37475229398E+01  0.77224481482E+01 -0.27375135389E+02  0.28689338981E+02  0.00000000000E+00 0.  1.
         13    1    5    5    0    0 -0.12451987260E+03 -0.14305035742E+02 -0.32916007170E+03  0.35221610628E+03  0.00000000000E+00 0. -1.
        -13    1    5    5    0    0 -0.42866285722E+03  0.23273258301E+01 -0.16646020294E+04  0.17189116259E+04  0.00000000000E+00 0.  1.
          2    1    6    6  503    0  0.42850363220E+02  0.46365413322E+01 -0.50616229990E+02  0.66480477450E+02  0.00000000000E+00 0. -1.
         -2    1    6    6    0  503  0.14353658825E+03 -0.12104391400E+03 -0.73107529636E+02  0.20149216405E+03  0.00000000000E+00 0.  1.
<mgrwt>
<rscale>  0 0.14586374E+04</rscale>
<asrwt>0</asrwt>
<pdfrwt beam="1">  1        1 0.30589744E-01 0.14586374E+04</pdfrwt>
<pdfrwt beam="2">  1       -2 0.41155907E+00 0.14586374E+04</pdfrwt>
<totfact> 0.79953488E-01</totfact>
</mgrwt>
</event>
<event>
12    5  0.5197392E-008  0.1326067E+04  0.7818608E-02  0.9009146E-01
         -2   -1    0    0    0  501 -0.00000000000E+00  0.00000000000E+00  0.44183008559E+03  0.44183008559E+03  0.00000000000E+00 0.  1.
          1   -1    0    0  501    0  0.00000000000E+00 -0.00000000000E+00 -0.99498282733E+03  0.99498282733E+03  0.00000000000E+00 0. -1.
        -24    2    1    2    0    0  0.15222512047E+03 -0.21782682980E+03  0.99282882941E+02  0.29449489172E+03  0.79051472610E+02 0.  0.
        254    2    1    2    0    0 -0.15222512047E+03  0.21782682980E+03 -0.65243562468E+03  0.11423180212E+04  0.89922033014E+03 0.  0.
         23    2    4    4    0    0 -0.13616801591E+03 -0.33517151697E+03 -0.20440621294E+03  0.42482550285E+03  0.88391932019E+02 0.  0.
         23    2    4    4    0    0 -0.16057104561E+02  0.55299834677E+03 -0.44802941175E+03  0.71749251835E+03  0.89443602163E+02 0.  0.
          3    1    3    3  502    0  0.29807280322E+02 -0.81179384345E+02  0.12611689177E+01  0.86487900598E+02  0.00000000000E+00 0. -1.
         -4    1    3    3    0  502  0.12241784015E+03 -0.13664744546E+03  0.98021714024E+02  0.20800699112E+03  0.00000000000E+00 0.  1.
         13    1    5    5    0    0 -0.13192488323E+01 -0.10125203781E+03 -0.70921550259E+02  0.12362678459E+03  0.00000000000E+00 0. -1.
        -13    1    5    5    0    0 -0.13484876707E+03 -0.23391947916E+03 -0.13348466268E+03  0.30119871826E+03  0.00000000000E+00 0.  1.
          1    1    6    6  503    0  0.18354203611E+02  0.73331421605E+02 -0.92395593424E+02  0.11937889206E+03  0.00000000000E+00 0. -1.
         -1    1    6    6    0  503 -0.34411308172E+02  0.47966692516E+03 -0.35563381832E+03  0.59811362629E+03  0.00000000000E+00 0.  1.
<mgrwt>
<rscale>  0 0.13260669E+04</rscale>
<asrwt>0</asrwt>
<pdfrwt beam="1">  1        1 0.15307428E+00 0.13260669E+04</pdfrwt>
<pdfrwt beam="2">  1       -2 0.67973859E-01 0.13260669E+04</pdfrwt>
<totfact> 0.26015095E+01</totfact>
</mgrwt>
</event>
<event>
12    5  0.5197392E-008  0.2480054E+04  0.7818608E-02  0.8410126E-01
         -2   -1    0    0    0  501 -0.00000000000E+00  0.00000000000E+00  0.72837083296E+03  0.72837083296E+03  0.00000000000E+00 0.  1.
          1   -1    0    0  501    0  0.00000000000E+00 -0.00000000000E+00 -0.21111044016E+04  0.21111044016E+04  0.00000000000E+00 0. -1.
        -24    2    1    2    0    0 -0.89374358546E+03 -0.54435453078E+03 -0.32579866329E+03  0.10987665446E+04  0.77741230253E+02 0.  0.
        254    2    1    2    0    0  0.89374358546E+03  0.54435453078E+03 -0.10569349053E+04  0.17407086899E+04  0.90435385625E+03 0.  0.
         23    2    4    4    0    0  0.31448660657E+03  0.22528210753E+03  0.95476740875E+02  0.40894420502E+03  0.92009244593E+02 0.  0.
         23    2    4    4    0    0  0.57925697889E+03  0.31907242325E+03 -0.11524116462E+04  0.13317644849E+04  0.90543812827E+02 0.  0.
          1    1    3    3  502    0 -0.17508961918E+03 -0.72638458312E+02 -0.66163973506E+02  0.20077447986E+03  0.00000000000E+00 0. -1.
         -2    1    3    3    0  502 -0.71865396628E+03 -0.47171607246E+03 -0.25963468978E+03  0.89799206478E+03  0.00000000000E+00 0.  1.
         13    1    5    5    0    0  0.11262855024E+03  0.12439171853E+03  0.70087211268E+02  0.18185353214E+03  0.00000000000E+00 0.  1.
        -13    1    5    5    0    0  0.20185805633E+03  0.10089038899E+03  0.25389529607E+02  0.22709067288E+03  0.00000000000E+00 0. -1.
          4    1    6    6  503    0  0.55496345951E+03  0.31501885889E+03 -0.11332157744E+04  0.13005380864E+04  0.00000000000E+00 0. -1.
         -4    1    6    6    0  503  0.24293519381E+02  0.40535643598E+01 -0.19195871799E+02  0.31226398480E+02  0.00000000000E+00 0.  1.
<mgrwt>
<rscale>  0 0.24800539E+04</rscale>
<asrwt>0</asrwt>
<pdfrwt beam="1">  1        1 0.32478529E+00 0.24800539E+04</pdfrwt>
<pdfrwt beam="2">  1       -2 0.11205705E+00 0.24800539E+04</pdfrwt>
<totfact> 0.12302504E+00</totfact>
</mgrwt>
</event>
<event>
12    5  0.5197392E-008  0.4606590E+04  0.7818608E-02  0.7892237E-01
          1   -1    0    0  501    0  0.00000000000E+00  0.00000000000E+00  0.20973464184E+04  0.20973464184E+04  0.00000000000E+00 0. -1.
         -2   -1    0    0    0  501 -0.00000000000E+00 -0.00000000000E+00 -0.25294666285E+04  0.25294666285E+04  0.00000000000E+00 0.  1.
        -24    2    1    2    0    0 -0.61135101090E+03 -0.16828597155E+04  0.10976072821E+04  0.21018811243E+04  0.85997874384E+02 0.  0.
        254    2    1    2    0    0  0.61135101090E+03  0.16828597155E+04 -0.15297274922E+04  0.25249319226E+04  0.91074043105E+03 0.  0.
         23    2    4    4    0    0  0.40174324882E+03  0.11167344941E+04 -0.42833548773E+03  0.12655635425E+04  0.98418605540E+02 0.  0.
         23    2    4    4    0    0  0.20960776208E+03  0.56612522146E+03 -0.11013920044E+04  0.12593683801E+04  0.92256105318E+02 0.  0.
          1    1    3    3  502    0 -0.46955522599E+03 -0.12806290611E+04  0.87821411331E+03  0.16222678358E+04  0.00000000000E+00 0. -1.
         -2    1    3    3    0  502 -0.14179578491E+03 -0.40223065443E+03  0.21939316882E+03  0.47961328850E+03  0.00000000000E+00 0.  1.
         13    1    5    5    0    0  0.39660363917E+03  0.11138405251E+04 -0.43179864519E+03  0.12587236519E+04  0.00000000000E+00 0. -1.
        -13    1    5    5    0    0  0.51396096467E+01  0.28939689735E+01  0.34631574628E+01  0.68398905950E+01  0.00000000000E+00 0.  1.
          3    1    6    6  503    0  0.15585091806E+03  0.29634209155E+03 -0.63614750134E+03  0.71888231815E+03  0.00000000000E+00 0. -1.
         -3    1    6    6    0  503  0.53756844019E+02  0.26978312991E+03 -0.46524450310E+03  0.54048606192E+03  0.00000000000E+00 0.  1.
<mgrwt>
<rscale>  0 0.46065900E+04</rscale>
<asrwt>0</asrwt>
<pdfrwt beam="1">  1        1 0.32266868E+00 0.46065900E+04</pdfrwt>
<pdfrwt beam="2">  1       -2 0.38914871E+00 0.46065900E+04</pdfrwt>
<totfact> 0.14633374E-02</totfact>
</mgrwt>
</event>
<event>
12    5  0.5197392E-008  0.1542444E+04  0.7818608E-02  0.8856709E-01
         -2   -1    0    0    0  501 -0.00000000000E+00  0.00000000000E+00  0.53685603623E+03  0.53685603623E+03  0.00000000000E+00 0.  1.
          1   -1    0    0  501    0  0.00000000000E+00 -0.00000000000E+00 -0.11079009423E+04  0.11079009423E+04  0.00000000000E+00 0. -1.
        -24    2    1    2    0    0 -0.49349492381E+02  0.31978698001E+02 -0.72202581396E+03  0.72875624987E+03  0.79412758272E+02 0.  0.
        254    2    1    2    0    0  0.49349492381E+02 -0.31978698001E+02  0.15098090788E+03  0.91600072867E+03  0.90155648234E+03 0.  0.
         23    2    4    4    0    0  0.34886971241E+03  0.17083438733E+03 -0.15904593222E+03  0.42994848021E+03  0.93089327775E+02 0.  0.
         23    2    4    4    0    0 -0.29952022003E+03 -0.20281308533E+03  0.31002684010E+03  0.48605224846E+03  0.96356820513E+02 0.  0.
          1    1    3    3  502    0 -0.65281568885E+02  0.22747295871E+02 -0.38013525272E+03  0.38637020210E+03  0.00000000000E+00 0. -1.
         -2    1    3    3    0  502  0.15932076504E+02  0.92314021302E+01 -0.34189056124E+03  0.34238604777E+03  0.00000000000E+00 0.  1.
         13    1    5    5    0    0  0.60641197011E+02  0.73097606265E+02 -0.33291176093E+02  0.10064252194E+03  0.00000000000E+00 0.  1.
        -13    1    5    5    0    0  0.28822851540E+03  0.97736781060E+02 -0.12575475613E+03  0.32930595827E+03  0.00000000000E+00 0. -1.
          4    1    6    6  503    0 -0.20132521070E+03 -0.11213503828E+03  0.24851325445E+03  0.33891731279E+03  0.00000000000E+00 0. -1.
         -4    1    6    6    0  503 -0.98195009335E+02 -0.90678047042E+02  0.61513585654E+02  0.14713493567E+03  0.00000000000E+00 0.  1.
<mgrwt>
<rscale>  0 0.15424439E+04</rscale>
<asrwt>0</asrwt>
<pdfrwt beam="1">  1        1 0.17044630E+00 0.15424439E+04</pdfrwt>
<pdfrwt beam="2">  1       -2 0.82593237E-01 0.15424439E+04</pdfrwt>
<totfact> 0.13598250E+01</totfact>
</mgrwt>
</event>
<event>
12    5  0.5197392E-008  0.1432453E+04  0.7818608E-02  0.8930657E-01
          1   -1    0    0  501    0  0.00000000000E+00  0.00000000000E+00  0.18314662652E+04  0.18314662652E+04  0.00000000000E+00 0. -1.
         -2   -1    0    0    0  501 -0.00000000000E+00 -0.00000000000E+00 -0.28009257933E+03  0.28009257933E+03  0.00000000000E+00 0.  1.
        -24    2    1    2    0    0  0.18003622097E+03  0.12887719843E+03  0.10077348042E+04  0.10348595403E+04  0.79890296677E+02 0.  0.
        254    2    1    2    0    0 -0.18003622097E+03 -0.12887719843E+03  0.54363888172E+03  0.10766993043E+04  0.90261607836E+03 0.  0.
         23    2    4    4    0    0  0.56836382303E+02 -0.23610606854E+03 -0.17108283562E+03  0.31166541118E+03  0.94284367360E+02 0.  0.
         23    2    4    4    0    0 -0.23687260327E+03  0.10722887011E+03  0.71472171734E+03  0.76503389307E+03  0.82722811518E+02 0.  0.
          3    1    3    3  502    0  0.16396333028E+03  0.12786428147E+03  0.80268203872E+03  0.82917531526E+03  0.00000000000E+00 0. -1.
         -4    1    3    3    0  502  0.16072890684E+02  0.10129169544E+01  0.20505276547E+03  0.20568422507E+03  0.00000000000E+00 0.  1.
         13    1    5    5    0    0  0.25425320711E+02 -0.22607055631E+03 -0.15122019412E+03  0.27317007609E+03  0.00000000000E+00 0. -1.
        -13    1    5    5    0    0  0.31411061592E+02 -0.10035512228E+02 -0.19862641502E+02  0.38495335087E+02  0.00000000000E+00 0.  1.
          2    1    6    6  503    0 -0.24695438169E+02  0.41247703439E+02  0.17186676004E+03  0.17846406056E+03  0.00000000000E+00 0. -1.
         -2    1    6    6    0  503 -0.21217716510E+03  0.65981166671E+02  0.54285495730E+03  0.58656983251E+03  0.00000000000E+00 0.  1.
<mgrwt>
<rscale>  0 0.14324526E+04</rscale>
<asrwt>0</asrwt>
<pdfrwt beam="1">  1        1 0.28176403E+00 0.14324526E+04</pdfrwt>
<pdfrwt beam="2">  1       -2 0.43091167E-01 0.14324526E+04</pdfrwt>
<totfact> 0.16912066E+01</totfact>
</mgrwt>
</event>
<event>
12    5  0.5197392E-008  0.1168509E+04  0.7818608E-02  0.9140876E-01
         -2   -1    0    0    0  501 -0.00000000000E+00  0.00000000000E+00  0.38507657034E+03  0.38507657034E+03  0.00000000000E+00 0.  1.
          1   -1    0    0  501    0  0.00000000000E+00 -0.00000000000E+00 -0.88645576437E+03  0.88645576437E+03  0.00000000000E+00 0. -1.
        -24    2    1    2    0    0  0.16389404100E+03  0.39783701392E+02  0.54089714996E+02  0.19396781336E+03  0.79081070928E+02 0.  0.
        254    2    1    2    0    0 -0.16389404100E+03 -0.39783701392E+02 -0.55546890902E+03  0.10775645214E+04  0.90783015439E+03 0.  0.
         23    2    4    4    0    0 -0.74104876982E+02  0.42333125746E+03 -0.31210587871E+03  0.53904617344E+03  0.91977232169E+02 0.  0.
         23    2    4    4    0    0 -0.89789164014E+02 -0.46311495885E+03 -0.24336303031E+03  0.53851834791E+03  0.90768317348E+02 0.  0.
          1    1    3    3  502    0  0.22270351903E+02  0.37838133860E+02  0.20218028352E+02  0.48336959134E+02  0.00000000000E+00 0. -1.
         -2    1    3    3    0  502  0.14162368909E+03  0.19455675330E+01  0.33871686644E+02  0.14563085422E+03  0.00000000000E+00 0.  1.
         13    1    5    5    0    0 -0.11809766097E+02  0.75068535543E+02 -0.10327435712E+03  0.12821992218E+03  0.00000000000E+00 0.  1.
        -13    1    5    5    0    0 -0.62295110885E+02  0.34826272191E+03 -0.20883152159E+03  0.41082625126E+03  0.00000000000E+00 0. -1.
          2    1    6    6  503    0 -0.83133918952E+02 -0.46583142567E+03 -0.24018184553E+03  0.53065759633E+03  0.00000000000E+00 0. -1.
         -2    1    6    6    0  503 -0.66552450617E+01  0.27164668217E+01 -0.31811847777E+01  0.78607515808E+01  0.00000000000E+00 0.  1.
<mgrwt>
<rscale>  0 0.11685090E+04</rscale>
<asrwt>0</asrwt>
<pdfrwt beam="1">  1        1 0.13637781E+00 0.11685090E+04</pdfrwt>
<pdfrwt beam="2">  1       -2 0.59242550E-01 0.11685090E+04</pdfrwt>
<totfact> 0.43185057E+01</totfact>
</mgrwt>
</event>
<event>
12    5  0.5197392E-008  0.4291944E+04  0.7818608E-02  0.7948109E-01
          1   -1    0    0  501    0  0.00000000000E+00  0.00000000000E+00  0.27842397211E+04  0.27842397211E+04  0.00000000000E+00 0. -1.
         -2   -1    0    0    0  501 -0.00000000000E+00 -0.00000000000E+00 -0.16540225153E+04  0.16540225153E+04  0.00000000000E+00 0.  1.
        -24    2    1    2    0    0  0.14242529316E+04  0.12280533376E+04  0.13834668296E+04  0.23360196181E+04  0.79973585383E+02 0.  0.
        254    2    1    2    0    0 -0.14242529316E+04 -0.12280533376E+04 -0.25324962384E+03  0.21022426183E+04  0.90480784742E+03 0.  0.
         23    2    4    4    0    0 -0.87304008306E+03 -0.18244938926E+03 -0.39319256397E+02  0.89743651138E+03  0.91430420369E+02 0.  0.
         23    2    4    4    0    0 -0.55121284858E+03 -0.10456039484E+04 -0.21393036745E+03  0.12048061069E+04  0.93103876381E+02 0.  0.
          1    1    3    3  502    0  0.10019995950E+04  0.82415725854E+03  0.98032866858E+03  0.16261250486E+04  0.00000000000E+00 0. -1.
         -2    1    3    3    0  502  0.42225333659E+03  0.40389607910E+03  0.40313816099E+03  0.70989456951E+03  0.00000000000E+00 0.  1.
         13    1    5    5    0    0 -0.74375541987E+03 -0.16685662673E+03 -0.30119703343E+01  0.76224820789E+03  0.00000000000E+00 0. -1.
        -13    1    5    5    0    0 -0.12928466319E+03 -0.15592762531E+02 -0.36307286063E+02  0.13518830349E+03  0.00000000000E+00 0.  1.
          4    1    6    6  503    0 -0.46107650856E+03 -0.87975123765E+03 -0.21398284072E+03  0.10160425400E+04  0.00000000000E+00 0. -1.
         -4    1    6    6    0  503 -0.90136340019E+02 -0.16585271072E+03  0.52473274339E-01  0.18876356693E+03  0.00000000000E+00 0.  1.
<mgrwt>
<rscale>  0 0.42919437E+04</rscale>
<asrwt>0</asrwt>
<pdfrwt beam="1">  1        1 0.42834457E+00 0.42919437E+04</pdfrwt>
<pdfrwt beam="2">  1       -2 0.25446500E+00 0.42919437E+04</pdfrwt>
<totfact> 0.34697261E-02</totfact>
</mgrwt>
</event>
<event>
12    5  0.5197392E-008  0.1444953E+04  0.7818608E-02  0.8921907E-01
          1   -1    0    0  501    0  0.00000000000E+00  0.00000000000E+00  0.78673489707E+03  0.78673489707E+03  0.00000000000E+00 0. -1.
         -2   -1    0    0    0  501 -0.00000000000E+00 -0.00000000000E+00 -0.66346691972E+03  0.66346691972E+03  0.00000000000E+00 0.  1.
        -24    2    1    2    0    0  0.36282213819E+03 -0.23489664704E+03  0.70368150390E+02  0.44528083286E+03  0.80666007544E+02 0.  0.
        254    2    1    2    0    0 -0.36282213819E+03  0.23489664704E+03  0.52899826967E+02  0.10049209839E+04  0.90567734513E+03 0.  0.
         23    2    4    4    0    0  0.17592686255E+03 -0.18001093529E+03  0.15695048651E+03  0.30992409580E+03  0.89806971616E+02 0.  0.
         23    2    4    4    0    0 -0.53874900074E+03  0.41490758233E+03 -0.10405065954E+03  0.69499688813E+03  0.98971445803E+02 0.  0.
          1    1    3    3  502    0  0.26440815257E+03 -0.14980210638E+03  0.16120101287E+02  0.30432252609E+03  0.00000000000E+00 0. -1.
         -2    1    3    3    0  502  0.98413985620E+02 -0.85094540668E+02  0.54248049102E+02  0.14095830677E+03  0.00000000000E+00 0.  1.
         13    1    5    5    0    0  0.15605860648E+03 -0.18749675788E+03  0.13273577663E+03  0.27771947946E+03  0.00000000000E+00 0. -1.
        -13    1    5    5    0    0  0.19868256069E+02  0.74858225919E+01  0.24214709881E+02  0.32204616342E+02  0.00000000000E+00 0.  1.
          3    1    6    6  503    0 -0.54300326383E+03  0.41357023490E+03 -0.10449292158E+03  0.69051549902E+03  0.00000000000E+00 0. -1.
         -3    1    6    6    0  503  0.42542630945E+01  0.13373474365E+01  0.44226203897E+00  0.44813891099E+01  0.00000000000E+00 0.  1.
<mgrwt>
<rscale>  0 0.14449534E+04</rscale>
<asrwt>0</asrwt>
<pdfrwt beam="1">  1        1 0.12103614E+00 0.14449534E+04</pdfrwt>
<pdfrwt beam="2">  1       -2 0.10207183E+00 0.14449534E+04</pdfrwt>
<totfact> 0.15204935E+01</totfact>
</mgrwt>
</event>
<event>
12    5  0.5197392E-008  0.2337999E+04  0.7818608E-02  0.8463088E-01
         -2   -1    0    0    0  501 -0.00000000000E+00  0.00000000000E+00  0.20472950511E+04  0.20472950511E+04  0.00000000000E+00 0.  1.
          1   -1    0    0  501    0  0.00000000000E+00 -0.00000000000E+00 -0.66749528555E+03  0.66749528555E+03  0.00000000000E+00 0. -1.
        -24    2    1    2    0    0 -0.29542890643E+03  0.42491298538E+03  0.15730024668E+04  0.16579148106E+04  0.80718491171E+02 0.  0.
        254    2    1    2    0    0  0.29542890643E+03 -0.42491298538E+03 -0.19320270125E+03  0.10568755260E+04  0.90101571009E+03 0.  0.
         23    2    4    4    0    0 -0.54648612862E+00 -0.70723478620E+02  0.33221581385E+03  0.35150554024E+03  0.90480322561E+02 0.  0.
         23    2    4    4    0    0  0.29597539256E+03 -0.35418950676E+03 -0.52541851510E+03  0.70536998578E+03  0.91818087158E+02 0.  0.
          3    1    3    3  502    0 -0.48682373029E+02  0.42005270575E+02  0.13586637711E+03  0.15031330157E+03  0.00000000000E+00 0. -1.
         -4    1    3    3    0  502 -0.24674653340E+03  0.38290771480E+03  0.14371360897E+04  0.15076015091E+04  0.00000000000E+00 0.  1.
         13    1    5    5    0    0  0.24734519181E+02 -0.75620512630E+02  0.17556069608E+03  0.19274806452E+03  0.00000000000E+00 0.  1.
        -13    1    5    5    0    0 -0.25281005309E+02  0.48970340100E+01  0.15665511777E+03  0.15875747572E+03  0.00000000000E+00 0. -1.
          2    1    6    6  503    0  0.15430383467E+03 -0.25362261234E+03 -0.32944688513E+03  0.44347418528E+03  0.00000000000E+00 0.  1.
         -2    1    6    6    0  503  0.14167155789E+03 -0.10056689442E+03 -0.19597162997E+03  0.26189580050E+03  0.00000000000E+00 0. -1.
<mgrwt>
<rscale>  0 0.23379990E+04</rscale>
<asrwt>0</asrwt>
<pdfrwt beam="1">  1        1 0.10269158E+00 0.23379990E+04</pdfrwt>
<pdfrwt beam="2">  1       -2 0.31496847E+00 0.23379990E+04</pdfrwt>
<totfact> 0.59472097E-01</totfact>
</mgrwt>
</event>
<event>
12    5  0.5197392E-008  0.1971348E+04  0.7818608E-02  0.8620135E-01
          1   -1    0    0  501    0  0.00000000000E+00  0.00000000000E+00  0.54154589873E+03  0.54154589873E+03  0.00000000000E+00 0. -1.
         -2   -1    0    0    0  501 -0.00000000000E+00 -0.00000000000E+00 -0.17940371404E+04  0.17940371404E+04  0.00000000000E+00 0.  1.
        -24    2    1    2    0    0  0.44313482023E+03  0.30322149731E+03  0.16792310125E+03  0.56894499274E+03  0.84784972102E+02 0.  0.
        254    2    1    2    0    0 -0.44313482023E+03 -0.30322149731E+03 -0.14204143429E+04  0.17666380464E+04  0.90284070357E+03 0.  0.
         23    2    4    4    0    0  0.18494699956E+03  0.16175669048E+03 -0.31315054148E+03  0.40840402008E+03  0.91432830152E+02 0.  0.
         23    2    4    4    0    0 -0.62808181980E+03 -0.46497818779E+03 -0.11072638014E+04  0.13582340263E+04  0.89861319510E+02 0.  0.
          3    1    3    3  502    0  0.40992522957E+03  0.24793537281E+03  0.14596456054E+03  0.50081563061E+03  0.00000000000E+00 0. -1.
         -4    1    3    3    0  502  0.33209590666E+02  0.55286124497E+02  0.21958540709E+02  0.68129362130E+02  0.00000000000E+00 0.  1.
         13    1    5    5    0    0  0.18972958120E+03  0.13601738495E+03 -0.26181220016E+03  0.35077581322E+03  0.00000000000E+00 0. -1.
        -13    1    5    5    0    0 -0.47825816375E+01  0.25739305531E+02 -0.51338341321E+02  0.57628206860E+02  0.00000000000E+00 0.  1.
          3    1    6    6  503    0 -0.27422356754E+03 -0.14935524253E+03 -0.42501530432E+03  0.52739317627E+03  0.00000000000E+00 0. -1.
         -3    1    6    6    0  503 -0.35385825225E+03 -0.31562294526E+03 -0.68224849713E+03  0.83084085004E+03  0.00000000000E+00 0.  1.
<mgrwt>
<rscale>  0 0.19713482E+04</rscale>
<asrwt>0</asrwt>
<pdfrwt beam="1">  1        1 0.83314755E-01 0.19713482E+04</pdfrwt>
<pdfrwt beam="2">  1       -2 0.27600571E+00 0.19713482E+04</pdfrwt>
<totfact> 0.14384289E+00</totfact>
</mgrwt>
</event>
<event>
12    5  0.5197392E-008  0.3279426E+04  0.7818608E-02  0.8168150E-01
          1   -1    0    0  501    0  0.00000000000E+00  0.00000000000E+00  0.20726651076E+04  0.20726651076E+04  0.00000000000E+00 0. -1.
         -2   -1    0    0    0  501 -0.00000000000E+00 -0.00000000000E+00 -0.12971991428E+04  0.12971991428E+04  0.00000000000E+00 0.  1.
        -24    2    1    2    0    0  0.92964580959E+03 -0.11001245502E+04 -0.11203564797E+03  0.14468302465E+04  0.79059588541E+02 0.  0.
        254    2    1    2    0    0 -0.92964580959E+03  0.11001245502E+04  0.88750161271E+03  0.19230340039E+04  0.91426763603E+03 0.  0.
         23    2    4    4    0    0 -0.46341883878E+03  0.95879742806E+03  0.21924524129E+03  0.10910279983E+04  0.90686763877E+02 0.  0.
         23    2    4    4    0    0 -0.46622697082E+03  0.14132712212E+03  0.66825637143E+03  0.83200600554E+03  0.91249501567E+02 0.  0.
          3    1    3    3  502    0  0.18613548890E+03 -0.23823566459E+03  0.65456836743E+01  0.30239956694E+03  0.00000000000E+00 0. -1.
         -4    1    3    3    0  502  0.74351032070E+03 -0.86188888559E+03 -0.11858133165E+03  0.11444306796E+04  0.00000000000E+00 0.  1.
         13    1    5    5    0    0 -0.39755192358E+02  0.15285996349E+03  0.23003960226E+02  0.15961148437E+03  0.00000000000E+00 0. -1.
        -13    1    5    5    0    0 -0.42366364642E+03  0.80593746457E+03  0.19624128106E+03  0.93141651397E+03  0.00000000000E+00 0.  1.
          3    1    6    6  503    0 -0.62856748027E+02  0.52208952304E+02  0.12910958139E+03  0.15279407540E+03  0.00000000000E+00 0. -1.
         -3    1    6    6    0  503 -0.40337022279E+03  0.89118169817E+02  0.53914679004E+03  0.67921193014E+03  0.00000000000E+00 0.  1.
<mgrwt>
<rscale>  0 0.32794264E+04</rscale>
<asrwt>0</asrwt>
<pdfrwt beam="1">  1        1 0.31887155E+00 0.32794264E+04</pdfrwt>
<pdfrwt beam="2">  1       -2 0.19956910E+00 0.32794264E+04</pdfrwt>
<totfact> 0.26021802E-01</totfact>
</mgrwt>
</event>
<event>
12    5  0.5197392E-008  0.1367382E+04  0.7818608E-02  0.8977773E-01
         -2   -1    0    0    0  501 -0.00000000000E+00  0.00000000000E+00  0.28715691048E+03  0.28715691048E+03  0.00000000000E+00 0.  1.
          1   -1    0    0  501    0  0.00000000000E+00 -0.00000000000E+00 -0.16277986759E+04  0.16277986759E+04  0.00000000000E+00 0. -1.
        -24    2    1    2    0    0 -0.66750497633E+02 -0.25749493278E+03 -0.75685546789E+03  0.80634575483E+03  0.81265046098E+02 0.  0.
        254    2    1    2    0    0  0.66750497633E+02  0.25749493278E+03 -0.58378629757E+03  0.11086098316E+04  0.90412944213E+03 0.  0.
         23    2    4    4    0    0 -0.39185442734E+03  0.49942160874E+02 -0.38224783223E+03  0.55882363440E+03  0.10062970460E+03 0.  0.
         23    2    4    4    0    0  0.45860492498E+03  0.20755277191E+03 -0.20153846534E+03  0.54978619720E+03  0.90832148922E+02 0.  0.
          1    1    3    3  502    0 -0.67232015438E+02 -0.22546669937E+03 -0.72025077004E+03  0.75770478959E+03  0.00000000000E+00 0. -1.
         -2    1    3    3    0  502  0.48151780505E+00 -0.32028233412E+02 -0.36604697849E+02  0.48640965241E+02  0.00000000000E+00 0.  1.
         13    1    5    5    0    0 -0.26047442263E+03  0.64044864427E+01 -0.30189414864E+03  0.39878317326E+03  0.00000000000E+00 0.  1.
        -13    1    5    5    0    0 -0.13138000472E+03  0.43537674431E+02 -0.80353683595E+02  0.16004046114E+03  0.00000000000E+00 0. -1.
          4    1    6    6  503    0  0.36837236207E+03  0.14748472188E+03 -0.19245370644E+03  0.44100835531E+03  0.00000000000E+00 0. -1.
         -4    1    6    6    0  503  0.90232562905E+02  0.60068050026E+02 -0.90847588993E+01  0.10877784189E+03  0.00000000000E+00 0.  1.
<mgrwt>
<rscale>  0 0.13673824E+04</rscale>
<asrwt>0</asrwt>
<pdfrwt beam="1">  1        1 0.25043056E+00 0.13673824E+04</pdfrwt>
<pdfrwt beam="2">  1       -2 0.44177987E-01 0.13673824E+04</pdfrwt>
<totfact> 0.22261966E+01</totfact>
</mgrwt>
</event>
<event>
12    5  0.5197392E-008  0.1645344E+04  0.7818608E-02  0.8793166E-01
          1   -1    0    0  501    0  0.00000000000E+00  0.00000000000E+00  0.64181439632E+03  0.64181439632E+03  0.00000000000E+00 0. -1.
         -2   -1    0    0    0  501 -0.00000000000E+00 -0.00000000000E+00 -0.10544935126E+04  0.10544935126E+04  0.00000000000E+00 0.  1.
        -24    2    1    2    0    0  0.45568556946E+03  0.26201237073E+03 -0.37118600479E+03  0.64841991805E+03  0.79809268554E+02 0.  0.
        254    2    1    2    0    0 -0.45568556946E+03 -0.26201237073E+03 -0.41493111451E+02  0.10478879908E+04  0.90556487476E+03 0.  0.
         23    2    4    4    0    0  0.95503015492E+00 -0.49206365783E+03  0.98024721232E+02  0.50982253139E+03  0.90457791836E+02 0.  0.
         23    2    4    4    0    0 -0.45664059961E+03  0.23005128710E+03 -0.13951783268E+03  0.53806545944E+03  0.92763037341E+02 0.  0.
          1    1    3    3  502    0  0.10767791608E+03  0.67240216431E+02 -0.50309119747E+02  0.13655324180E+03  0.00000000000E+00 0. -1.
         -2    1    3    3    0  502  0.34800765337E+03  0.19477215430E+03 -0.32087688504E+03  0.51186667624E+03  0.00000000000E+00 0.  1.
         13    1    5    5    0    0 -0.15214652252E+02 -0.46623142527E+03  0.10589266861E+03  0.47834766103E+03  0.00000000000E+00 0. -1.
        -13    1    5    5    0    0  0.16169682407E+02 -0.25832232559E+02 -0.78679473756E+01  0.31474870358E+02  0.00000000000E+00 0.  1.
          1    1    6    6  503    0 -0.33988551352E+03  0.16349905516E+03 -0.14368953324E+03  0.40360969426E+03  0.00000000000E+00 0. -1.
         -1    1    6    6    0  503 -0.11675508609E+03  0.66552231939E+02  0.41717005576E+01  0.13445576518E+03  0.00000000000E+00 0.  1.
<mgrwt>
<rscale>  0 0.16453439E+04</rscale>
<asrwt>0</asrwt>
<pdfrwt beam="1">  1        1 0.98740677E-01 0.16453439E+04</pdfrwt>
<pdfrwt beam="2">  1       -2 0.16222977E+00 0.16453439E+04</pdfrwt>
<totfact> 0.62943207E+00</totfact>
</mgrwt>
</event>
<event>
12    5  0.5197392E-008  0.1938950E+04  0.7818608E-02  0.8635708E-01
         -2   -1    0    0    0  501 -0.00000000000E+00  0.00000000000E+00  0.49569508727E+03  0.49569508727E+03  0.00000000000E+00 0.  1.
          1   -1    0    0  501    0  0.00000000000E+00 -0.00000000000E+00 -0.18960895044E+04  0.18960895044E+04  0.00000000000E+00 0. -1.
        -24    2    1    2    0    0  0.64824622265E+03 -0.36420926744E+03 -0.38101225151E+03  0.83942389272E+03  0.81182388446E+02 0.  0.
        254    2    1    2    0    0 -0.64824622265E+03  0.36420926744E+03 -0.10193821656E+04  0.15523606990E+04  0.90432968790E+03 0.  0.
         23    2    4    4    0    0  0.23069955423E+02  0.62311776953E+02  0.13697864564E+03  0.17858526104E+03  0.93351838286E+02 0.  0.
         23    2    4    4    0    0 -0.67131617808E+03  0.30189749049E+03 -0.11563608113E+04  0.13737754379E+04  0.91000671875E+02 0.  0.
          1    1    3    3  502    0  0.28384984872E+03 -0.12935319003E+03 -0.12571072323E+03  0.33631260804E+03  0.00000000000E+00 0. -1.
         -2    1    3    3    0  502  0.36439637393E+03 -0.23485607741E+03 -0.25530152828E+03  0.50311128468E+03  0.00000000000E+00 0.  1.
         13    1    5    5    0    0 -0.51119015453E+01 -0.23339353983E+02  0.22102620189E+02  0.32548161253E+02  0.00000000000E+00 0. -1.
        -13    1    5    5    0    0  0.28181856968E+02  0.85651130936E+02  0.11487602545E+03  0.14603709979E+03  0.00000000000E+00 0.  1.
          3    1    6    6  503    0 -0.12085743827E+03  0.94548676125E+02 -0.24295969595E+03  0.28735933324E+03  0.00000000000E+00 0. -1.
         -3    1    6    6    0  503 -0.55045873981E+03  0.20734881436E+03 -0.91340111533E+03  0.10864161047E+04  0.00000000000E+00 0.  1.
<mgrwt>
<rscale>  0 0.19389505E+04</rscale>
<asrwt>0</asrwt>
<pdfrwt beam="1">  1        1 0.29170608E+00 0.19389505E+04</pdfrwt>
<pdfrwt beam="2">  1       -2 0.76260783E-01 0.19389505E+04</pdfrwt>
<totfact> 0.44165613E+00</totfact>
</mgrwt>
</event>
<event>
12    5  0.5197392E-008  0.2634338E+04  0.7818608E-02  0.8356630E-01
         -2   -1    0    0    0  501 -0.00000000000E+00  0.00000000000E+00  0.83599256328E+03  0.83599256328E+03  0.00000000000E+00 0.  1.
          1   -1    0    0  501    0  0.00000000000E+00 -0.00000000000E+00 -0.20752984475E+04  0.20752984475E+04  0.00000000000E+00 0. -1.
        -24    2    1    2    0    0 -0.98500647291E+03  0.41596332430E+03 -0.51801165032E+02  0.10730416898E+04  0.73972079582E+02 0.  0.
        254    2    1    2    0    0  0.98500647291E+03 -0.41596332430E+03 -0.11875047192E+04  0.18382493210E+04  0.90869679712E+03 0.  0.
         23    2    4    4    0    0  0.39368426810E+03  0.21367931838E+03 -0.14142593743E+03  0.47847635713E+03  0.91061377649E+02 0.  0.
         23    2    4    4    0    0  0.59132220481E+03 -0.62964264268E+03 -0.10460787818E+04  0.13597729639E+04  0.92681649554E+02 0.  0.
          1    1    3    3  502    0 -0.36927158545E+02  0.65723629134E+01 -0.12732486177E+02  0.39609685643E+02  0.00000000000E+00 0. -1.
         -2    1    3    3    0  502 -0.94807931436E+03  0.40939096139E+03 -0.39068678855E+02  0.10334320042E+04  0.00000000000E+00 0.  1.
         13    1    5    5    0    0  0.30386349927E+03  0.15992754769E+03 -0.66530072057E+02  0.34976577475E+03  0.00000000000E+00 0. -1.
        -13    1    5    5    0    0  0.89820768826E+02  0.53751770684E+02 -0.74895865376E+02  0.12871058237E+03  0.00000000000E+00 0.  1.
          3    1    6    6  503    0  0.17703992711E+03 -0.21547901302E+03 -0.27772930266E+03  0.39358341733E+03  0.00000000000E+00 0. -1.
         -3    1    6    6    0  503  0.41428227770E+03 -0.41416362966E+03 -0.76834947912E+03  0.96618954653E+03  0.00000000000E+00 0.  1.
<mgrwt>
<rscale>  0 0.26343379E+04</rscale>
<asrwt>0</asrwt>
<pdfrwt beam="1">  1        1 0.31927668E+00 0.26343379E+04</pdfrwt>
<pdfrwt beam="2">  1       -2 0.12861424E+00 0.26343379E+04</pdfrwt>
<totfact> 0.91231424E-01</totfact>
</mgrwt>
</event>
<event>
12    5  0.5197392E-008  0.1188689E+04  0.7818608E-02  0.9122815E-01
          1   -1    0    0  501    0  0.00000000000E+00  0.00000000000E+00  0.19799495281E+04  0.19799495281E+04  0.00000000000E+00 0. -1.
         -2   -1    0    0    0  501 -0.00000000000E+00 -0.00000000000E+00 -0.17841135582E+03  0.17841135582E+03  0.00000000000E+00 0.  1.
        -24    2    1    2    0    0  0.17015858210E+03 -0.52926017044E+02  0.79287190584E+03  0.81668498328E+03  0.81076485579E+02 0.  0.
        254    2    1    2    0    0 -0.17015858210E+03  0.52926017044E+02  0.10086662665E+04  0.13416759007E+04  0.86656302654E+03 0.  0.
         23    2    4    4    0    0 -0.44920230606E+03 -0.19213727800E+03  0.48894835513E+03  0.69677202244E+03  0.87870995826E+02 0.  0.
         23    2    4    4    0    0  0.27904372396E+03  0.24506329505E+03  0.51971791137E+03  0.64490387824E+03  0.88729286660E+02 0.  0.
          1    1    3    3  502    0  0.97370315780E+02  0.54394594863E+01  0.49604559688E+03  0.50554109655E+03  0.00000000000E+00 0. -1.
         -2    1    3    3    0  502  0.72788266316E+02 -0.58365476531E+02  0.29682630896E+03  0.31114388674E+03  0.00000000000E+00 0.  1.
         13    1    5    5    0    0 -0.34732264405E+03 -0.12109866709E+03  0.32317455342E+03  0.48963220709E+03  0.00000000000E+00 0. -1.
        -13    1    5    5    0    0 -0.10187966201E+03 -0.71038610917E+02  0.16577380171E+03  0.20713981535E+03  0.00000000000E+00 0.  1.
          2    1    6    6  503    0  0.18734138040E+03  0.21445984582E+03  0.37499936172E+03  0.47086552175E+03  0.00000000000E+00 0.  1.
         -2    1    6    6    0  503  0.91702343562E+02  0.30603449231E+02  0.14471854964E+03  0.17403835649E+03  0.00000000000E+00 0. -1.
<mgrwt>
<rscale>  0 0.11886892E+04</rscale>
<asrwt>0</asrwt>
<pdfrwt beam="1">  1        1 0.30460760E+00 0.11886892E+04</pdfrwt>
<pdfrwt beam="2">  1       -2 0.27447902E-01 0.11886892E+04</pdfrwt>
<totfact> 0.32393461E+01</totfact>
</mgrwt>
</event>
<event>
12    5  0.5197392E-008  0.1430469E+04  0.7818608E-02  0.8932054E-01
         -2   -1    0    0    0  501 -0.00000000000E+00  0.00000000000E+00  0.41009211650E+03  0.41009211650E+03  0.00000000000E+00 0.  1.
          1   -1    0    0  501    0  0.00000000000E+00 -0.00000000000E+00 -0.12474284630E+04  0.12474284630E+04  0.00000000000E+00 0. -1.
        -24    2    1    2    0    0 -0.36412798482E+03 -0.14032991315E+03 -0.44514657740E+03  0.59734499843E+03  0.79899298673E+02 0.  0.
        254    2    1    2    0    0  0.36412798482E+03  0.14032991315E+03 -0.39218976911E+03  0.10601755811E+04  0.90436595130E+03 0.  0.
         23    2    4    4    0    0  0.10080119217E+03 -0.37026291465E+03 -0.22771576190E+03  0.45557585229E+03  0.91866112740E+02 0.  0.
         23    2    4    4    0    0  0.26332679265E+03  0.51059282780E+03 -0.16447400722E+03  0.60459972879E+03  0.91886329107E+02 0.  0.
          1    1    3    3  502    0 -0.26148629949E+03 -0.91883310675E+02 -0.25908907376E+03  0.37940054789E+03  0.00000000000E+00 0. -1.
         -2    1    3    3    0  502 -0.10264168533E+03 -0.48446602473E+02 -0.18605750365E+03  0.21794445054E+03  0.00000000000E+00 0.  1.
         13    1    5    5    0    0  0.37880396019E+02 -0.13581495256E+03 -0.34075350693E+02  0.14505776527E+03  0.00000000000E+00 0.  1.
        -13    1    5    5    0    0  0.62920796148E+02 -0.23444796209E+03 -0.19364041120E+03  0.31051808702E+03  0.00000000000E+00 0. -1.
          3    1    6    6  503    0  0.22560415219E+03  0.35361832638E+03 -0.13370671097E+03  0.44025065450E+03  0.00000000000E+00 0. -1.
         -3    1    6    6    0  503  0.37722640463E+02  0.15697450142E+03 -0.30767296246E+02  0.16434907428E+03  0.00000000000E+00 0.  1.
<mgrwt>
<rscale>  0 0.14304693E+04</rscale>
<asrwt>0</asrwt>
<pdfrwt beam="1">  1        1 0.19191207E+00 0.14304693E+04</pdfrwt>
<pdfrwt beam="2">  1       -2 0.63091096E-01 0.14304693E+04</pdfrwt>
<totfact> 0.19596769E+01</totfact>
</mgrwt>
</event>
<event>
12    5  0.5197392E-008  0.1946063E+04  0.7818608E-02  0.8632262E-01
          1   -1    0    0  501    0  0.00000000000E+00  0.00000000000E+00  0.17661180236E+04  0.17661180236E+04  0.00000000000E+00 0. -1.
         -2   -1    0    0    0  501 -0.00000000000E+00 -0.00000000000E+00 -0.53608532836E+03  0.53608532836E+03  0.00000000000E+00 0.  1.
        -24    2    1    2    0    0  0.33907967109E+03 -0.40167264532E+03  0.11401499138E+04  0.12578264270E+04  0.76613034940E+02 0.  0.
        254    2    1    2    0    0 -0.33907967109E+03  0.40167264532E+03  0.89882781453E+02  0.10443769250E+04  0.89795785520E+03 0.  0.
         23    2    4    4    0    0 -0.41814487245E+03  0.56429986697E+03 -0.15695511590E+03  0.72555167977E+03  0.92254308247E+02 0.  0.
         23    2    4    4    0    0  0.79065201353E+02 -0.16262722165E+03  0.24683789735E+03  0.31882524523E+03  0.89563776948E+02 0.  0.
          3    1    3    3  502    0  0.33736874340E+03 -0.38211439067E+03  0.11144027092E+04  0.12254478670E+04  0.00000000000E+00 0. -1.
         -4    1    3    3    0  502  0.17109276978E+01 -0.19558254658E+02  0.25747204613E+02  0.32378559947E+02  0.00000000000E+00 0.  1.
         13    1    5    5    0    0 -0.66375068261E+02  0.12292749722E+03  0.10386447050E+00  0.13970264867E+03  0.00000000000E+00 0. -1.
        -13    1    5    5    0    0 -0.35176980419E+03  0.44137236975E+03 -0.15705898037E+03  0.58584903109E+03  0.00000000000E+00 0.  1.
          4    1    6    6  503    0 -0.54744475703E+01  0.80979800757E+01  0.22359603785E+02  0.24402842845E+02  0.00000000000E+00 0. -1.
         -4    1    6    6    0  503  0.84539648924E+02 -0.17072520172E+03  0.22447829357E+03  0.29442240238E+03  0.00000000000E+00 0.  1.
<mgrwt>
<rscale>  0 0.19460627E+04</rscale>
<asrwt>0</asrwt>
<pdfrwt beam="1">  1        1 0.27171046E+00 0.19460627E+04</pdfrwt>
<pdfrwt beam="2">  1       -2 0.82474667E-01 0.19460627E+04</pdfrwt>
<totfact> 0.45358197E+00</totfact>
</mgrwt>
</event>
<event>
12    5  0.5197392E-008  0.1566003E+04  0.7818608E-02  0.8841710E-01
          1   -1    0    0  501    0  0.00000000000E+00  0.00000000000E+00  0.99164311146E+03  0.99164311146E+03  0.00000000000E+00 0. -1.
         -2   -1    0    0    0  501 -0.00000000000E+00 -0.00000000000E+00 -0.61825831189E+03  0.61825831189E+03  0.00000000000E+00 0.  1.
        -24    2    1    2    0    0  0.21421469469E+03 -0.96701103040E+02  0.58858186448E+03  0.63922460466E+03  0.83309334728E+02 0.  0.
        254    2    1    2    0    0 -0.21421469469E+03  0.96701103040E+02 -0.21519706491E+03  0.97067681869E+03  0.91687767496E+03 0.  0.
         23    2    4    4    0    0  0.31743753772E+03 -0.13797578845E+03 -0.86191252140E+02  0.36876057050E+03  0.93549547594E+02 0.  0.
         23    2    4    4    0    0 -0.53165223241E+03  0.23467689149E+03 -0.12900581277E+03  0.60191624819E+03  0.89069245429E+02 0.  0.
          1    1    3    3  502    0  0.20575874534E+03 -0.78111792931E+02  0.57212509856E+03  0.61299693465E+03  0.00000000000E+00 0. -1.
         -2    1    3    3    0  502  0.84559493473E+01 -0.18589310109E+02  0.16456765916E+02  0.26227670009E+02  0.00000000000E+00 0.  1.
         13    1    5    5    0    0  0.70015673416E+02 -0.36947084488E+01  0.10942942661E+02  0.70961915057E+02  0.00000000000E+00 0. -1.
        -13    1    5    5    0    0  0.24742186431E+03 -0.13428108000E+03 -0.97134194801E+02  0.29779865544E+03  0.00000000000E+00 0.  1.
          4    1    6    6  503    0 -0.14908951505E+02  0.24873656242E+02  0.18550985334E+01  0.29058854079E+02  0.00000000000E+00 0. -1.
         -4    1    6    6    0  503 -0.51674328091E+03  0.20980323525E+03 -0.13086091130E+03  0.57285739411E+03  0.00000000000E+00 0.  1.
<mgrwt>
<rscale>  0 0.15660033E+04</rscale>
<asrwt>0</asrwt>
<pdfrwt beam="1">  1        1 0.15256048E+00 0.15660033E+04</pdfrwt>
<pdfrwt beam="2">  1       -2 0.95116664E-01 0.15660033E+04</pdfrwt>
<totfact> 0.12041708E+01</totfact>
</mgrwt>
</event>
<event>
12    5  0.5197392E-008  0.2182768E+04  0.7818608E-02  0.8525635E-01
         -2   -1    0    0    0  501 -0.00000000000E+00  0.00000000000E+00  0.44366364162E+03  0.44366364162E+03  0.00000000000E+00 0.  1.
          1   -1    0    0  501    0  0.00000000000E+00 -0.00000000000E+00 -0.26847334095E+04  0.26847334095E+04  0.00000000000E+00 0. -1.
        -24    2    1    2    0    0  0.34133143789E+03 -0.82190573368E+03 -0.65762657091E+03  0.11094908840E+04  0.80381150236E+02 0.  0.
        254    2    1    2    0    0 -0.34133143789E+03  0.82190573368E+03 -0.15834431970E+04  0.20189061672E+04  0.88127950627E+03 0.  0.
         23    2    4    4    0    0 -0.41350513409E+03  0.68881333163E+03 -0.56798676363E+03  0.98817031260E+03  0.91767648319E+02 0.  0.
         23    2    4    4    0    0  0.72173696198E+02  0.13309240205E+03 -0.10154564334E+04  0.10307358546E+04  0.91334571389E+02 0.  0.
          1    1    3    3  502    0  0.93617194057E+01 -0.71820210083E+02 -0.40317087983E+02  0.82893015085E+02  0.00000000000E+00 0. -1.
         -2    1    3    3    0  502  0.33196971849E+03 -0.75008552360E+03 -0.61730948292E+03  0.10265978689E+04  0.00000000000E+00 0.  1.
         13    1    5    5    0    0 -0.10555260678E+03  0.17711522754E+03 -0.98473221854E+02  0.22849098898E+03  0.00000000000E+00 0.  1.
        -13    1    5    5    0    0 -0.30795252731E+03  0.51169810410E+03 -0.46951354178E+03  0.75967932361E+03  0.00000000000E+00 0. -1.
          4    1    6    6  503    0  0.91357059529E+02  0.84422293423E+02 -0.69778951434E+03  0.70879012569E+03  0.00000000000E+00 0. -1.
         -4    1    6    6    0  503 -0.19183363330E+02  0.48670108626E+02 -0.31766691904E+03  0.32194572889E+03  0.00000000000E+00 0.  1.
<mgrwt>
<rscale>  0 0.21827676E+04</rscale>
<asrwt>0</asrwt>
<pdfrwt beam="1">  1        1 0.41303591E+00 0.21827676E+04</pdfrwt>
<pdfrwt beam="2">  1       -2 0.68255945E-01 0.21827676E+04</pdfrwt>
<totfact> 0.15859801E+00</totfact>
</mgrwt>
</event>
<event>
12    5  0.5197392E-008  0.2300019E+04  0.7818608E-02  0.8477913E-01
          1   -1    0    0  501    0  0.00000000000E+00  0.00000000000E+00  0.12424051525E+04  0.12424051525E+04  0.00000000000E+00 0. -1.
         -2   -1    0    0    0  501 -0.00000000000E+00 -0.00000000000E+00 -0.10644854494E+04  0.10644854494E+04  0.00000000000E+00 0.  1.
        -24    2    1    2    0    0  0.23722655467E+03  0.41620667001E+02  0.10223068441E+04  0.10534170354E+04  0.81039798503E+02 0.  0.
        254    2    1    2    0    0 -0.23722655467E+03 -0.41620667001E+02 -0.84438714094E+03  0.12534735665E+04  0.89453765704E+03 0.  0.
         23    2    4    4    0    0  0.25823658852E+03  0.18615245473E+03 -0.14505697464E+03  0.36187569370E+03  0.92593842927E+02 0.  0.
         23    2    4    4    0    0 -0.49546314319E+03 -0.22777312173E+03 -0.69933016629E+03  0.89159787276E+03  0.92302567552E+02 0.  0.
          3    1    3    3  502    0  0.14749285763E+03 -0.10073879603E+02  0.67498490720E+03  0.69098498612E+03  0.00000000000E+00 0. -1.
         -4    1    3    3    0  502  0.89733697046E+02  0.51694546603E+02  0.34732193688E+03  0.36243204931E+03  0.00000000000E+00 0.  1.
         13    1    5    5    0    0  0.17788102744E+03  0.10590185010E+03 -0.13653797442E+03  0.24799088740E+03  0.00000000000E+00 0.  1.
        -13    1    5    5    0    0  0.80355561080E+02  0.80250604630E+02 -0.85190002190E+01  0.11388480629E+03  0.00000000000E+00 0. -1.
          1    1    6    6  503    0 -0.21998752667E+02 -0.12029635833E+02 -0.73912555557E+02  0.78049491517E+02  0.00000000000E+00 0. -1.
         -1    1    6    6    0  503 -0.47346439053E+03 -0.21574348589E+03 -0.62541761074E+03  0.81354838124E+03  0.00000000000E+00 0.  1.
<mgrwt>
<rscale>  0 0.23000193E+04</rscale>
<asrwt>0</asrwt>
<pdfrwt beam="1">  1        1 0.19113925E+00 0.23000193E+04</pdfrwt>
<pdfrwt beam="2">  1       -2 0.16376699E+00 0.23000193E+04</pdfrwt>
<totfact> 0.18654920E+00</totfact>
</mgrwt>
</event>
<event>
12    5  0.5197392E-008  0.1728216E+04  0.7818608E-02  0.8745434E-01
         -2   -1    0    0    0  501 -0.00000000000E+00  0.00000000000E+00  0.23648251106E+03  0.23648251106E+03  0.00000000000E+00 0.  1.
          1   -1    0    0  501    0  0.00000000000E+00 -0.00000000000E+00 -0.31574522484E+04  0.31574522484E+04  0.00000000000E+00 0. -1.
        -24    2    1    2    0    0  0.25147678238E+03 -0.16862595990E+03  0.11184359602E+02  0.31294468064E+03  0.78319836638E+02 0.  0.
        254    2    1    2    0    0 -0.25147678238E+03  0.16862595990E+03 -0.29321540970E+04  0.30809900788E+04  0.89626833654E+03 0.  0.
         23    2    4    4    0    0  0.44159882717E+02 -0.26655730416E+03 -0.18741075805E+04  0.18956783157E+04  0.91182026085E+02 0.  0.
         23    2    4    4    0    0 -0.29563666510E+03  0.43518326407E+03 -0.10580465165E+04  0.11853117631E+04  0.93359700261E+02 0.  0.
          1    1    3    3  502    0  0.11210582798E+03 -0.12029500039E+03  0.17043899469E+02  0.16531514842E+03  0.00000000000E+00 0. -1.
         -2    1    3    3    0  502  0.13937095440E+03 -0.48330959513E+02 -0.58595398670E+01  0.14762953222E+03  0.00000000000E+00 0.  1.
         13    1    5    5    0    0  0.51002570499E+02 -0.12153374082E+03 -0.11194122547E+04  0.11271448480E+04  0.00000000000E+00 0. -1.
        -13    1    5    5    0    0 -0.68426877816E+01 -0.14502356334E+03 -0.75469532573E+03  0.76853346771E+03  0.00000000000E+00 0.  1.
          3    1    6    6  503    0 -0.28783288251E+03  0.39306760471E+03 -0.92372739306E+03  0.10443285914E+04  0.00000000000E+00 0. -1.
         -3    1    6    6    0  503 -0.78037825912E+01  0.42115659358E+02 -0.13431912346E+03  0.14098317173E+03  0.00000000000E+00 0.  1.
<mgrwt>
<rscale>  0 0.17282155E+04</rscale>
<asrwt>0</asrwt>
<pdfrwt beam="1">  1        1 0.48576188E+00 0.17282155E+04</pdfrwt>
<pdfrwt beam="2">  1       -2 0.36381925E-01 0.17282155E+04</pdfrwt>
<totfact> 0.27253577E+00</totfact>
</mgrwt>
</event>
<event>
12    5  0.5197392E-008  0.1718052E+04  0.7818608E-02  0.8751135E-01
          1   -1    0    0  501    0  0.00000000000E+00  0.00000000000E+00  0.13438447150E+04  0.13438447150E+04  0.00000000000E+00 0. -1.
         -2   -1    0    0    0  501 -0.00000000000E+00 -0.00000000000E+00 -0.54911517201E+03  0.54911517201E+03  0.00000000000E+00 0.  1.
        -24    2    1    2    0    0 -0.40200478645E+03  0.43793333988E+03  0.17880449631E+03  0.62840488129E+03  0.97612439882E+02 0.  0.
        254    2    1    2    0    0  0.40200478645E+03 -0.43793333988E+03  0.61592504669E+03  0.12645550057E+04  0.93077507533E+03 0.  0.
         23    2    4    4    0    0 -0.89366104696E+02 -0.12280907127E+03  0.64828397290E+03  0.67257356540E+03  0.94945893586E+02 0.  0.
         23    2    4    4    0    0  0.49137089115E+03 -0.31512426861E+03 -0.32358926207E+02  0.59198144032E+03  0.92985311993E+02 0.  0.
          1    1    3    3  502    0 -0.63941365059E+02  0.71617963574E+02  0.68320615735E+02  0.11783606157E+03  0.00000000000E+00 0. -1.
         -2    1    3    3    0  502 -0.33806342139E+03  0.36631537631E+03  0.11048388057E+03  0.51056881972E+03  0.00000000000E+00 0.  1.
         13    1    5    5    0    0 -0.92790805930E+02 -0.61820662430E+02  0.32568012904E+03  0.34423752617E+03  0.00000000000E+00 0.  1.
        -13    1    5    5    0    0  0.34247012339E+01 -0.60988408839E+02  0.32260384386E+03  0.32833603924E+03  0.00000000000E+00 0. -1.
          1    1    6    6  503    0  0.74033229747E+02 -0.37143929488E+02 -0.36520202483E+02  0.90522460163E+02  0.00000000000E+00 0. -1.
         -1    1    6    6    0  503  0.41733766140E+03 -0.27798033912E+03  0.41612762766E+01  0.50145898016E+03  0.00000000000E+00 0.  1.
<mgrwt>
<rscale>  0 0.17180518E+04</rscale>
<asrwt>0</asrwt>
<pdfrwt beam="1">  1        1 0.20674534E+00 0.17180518E+04</pdfrwt>
<pdfrwt beam="2">  1       -2 0.84479257E-01 0.17180518E+04</pdfrwt>
<totfact> 0.85742013E+00</totfact>
</mgrwt>
</event>
<event>
12    5  0.5197392E-008  0.1499560E+04  0.7818608E-02  0.8884746E-01
          1   -1    0    0  501    0  0.00000000000E+00  0.00000000000E+00  0.18150212280E+04  0.18150212280E+04  0.00000000000E+00 0. -1.
         -2   -1    0    0    0  501 -0.00000000000E+00 -0.00000000000E+00 -0.30973174026E+03  0.30973174026E+03  0.00000000000E+00 0.  1.
        -24    2    1    2    0    0  0.36954397070E+01  0.12070961946E+03  0.11344923217E+04  0.11433455301E+04  0.74710807138E+02 0.  0.
        254    2    1    2    0    0 -0.36954397070E+01 -0.12070961946E+03  0.37079716607E+03  0.98140743819E+03  0.90060288300E+03 0.  0.
         23    2    4    4    0    0 -0.98672873026E+02 -0.35854947744E+03 -0.13559504448E+03  0.40561068798E+03  0.88543494776E+02 0.  0.
         23    2    4    4    0    0  0.94977433319E+02  0.23783985799E+03  0.50639221055E+03  0.57579675022E+03  0.97572105504E+02 0.  0.
          3    1    3    3  502    0  0.32571480710E+02  0.74054719528E+02  0.83140579274E+03  0.83533262540E+03  0.00000000000E+00 0. -1.
         -4    1    3    3    0  502 -0.28876041004E+02  0.46654899931E+02  0.30308652892E+03  0.30801290468E+03  0.00000000000E+00 0.  1.
         13    1    5    5    0    0 -0.10490520098E+03 -0.27898696021E+03 -0.80840181291E+02  0.30882674766E+03  0.00000000000E+00 0. -1.
        -13    1    5    5    0    0  0.62323279528E+01 -0.79562517234E+02 -0.54754863188E+02  0.96783940316E+02  0.00000000000E+00 0.  1.
          4    1    6    6  503    0  0.10305985798E+03  0.15482446607E+03  0.29731822434E+03  0.35069940996E+03  0.00000000000E+00 0. -1.
         -4    1    6    6    0  503 -0.80824246617E+01  0.83015391915E+02  0.20907398620E+03  0.22509734026E+03  0.00000000000E+00 0.  1.
<mgrwt>
<rscale>  0 0.14995595E+04</rscale>
<asrwt>0</asrwt>
<pdfrwt beam="1">  1        1 0.27923403E+00 0.14995595E+04</pdfrwt>
<pdfrwt beam="2">  1       -2 0.47651038E-01 0.14995595E+04</pdfrwt>
<totfact> 0.14105221E+01</totfact>
</mgrwt>
</event>
<event>
12    5  0.5197392E-008  0.2734348E+04  0.7818608E-02  0.8323946E-01
         -2   -1    0    0    0  501 -0.00000000000E+00  0.00000000000E+00  0.96485103720E+03  0.96485103720E+03  0.00000000000E+00 0.  1.
          1   -1    0    0  501    0  0.00000000000E+00 -0.00000000000E+00 -0.19372569961E+04  0.19372569961E+04  0.00000000000E+00 0. -1.
        -24    2    1    2    0    0  0.15473144073E+03  0.70680675423E+03 -0.14681384432E+04  0.16390521959E+04  0.86856237548E+02 0.  0.
        254    2    1    2    0    0 -0.15473144073E+03 -0.70680675423E+03  0.49573248428E+03  0.12630558374E+04  0.90886838751E+03 0.  0.
         23    2    4    4    0    0  0.22391839472E+03 -0.19951142268E+03  0.53763742322E+03  0.62217383116E+03  0.90011232924E+02 0.  0.
         23    2    4    4    0    0 -0.37864983545E+03 -0.50729533154E+03 -0.41904938937E+02  0.64088200623E+03  0.90826596920E+02 0.  0.
          1    1    3    3  502    0  0.16406710500E+02  0.53236870681E+02 -0.17335009426E+03  0.18208129978E+03  0.00000000000E+00 0. -1.
         -2    1    3    3    0  502  0.13832473023E+03  0.65356988355E+03 -0.12947883490E+04  0.14569708962E+04  0.00000000000E+00 0.  1.
         13    1    5    5    0    0  0.38939214734E+02 -0.80318447853E+02  0.11394639043E+03  0.14474493221E+03  0.00000000000E+00 0. -1.
        -13    1    5    5    0    0  0.18497917999E+03 -0.11919297483E+03  0.42369103279E+03  0.47742889894E+03  0.00000000000E+00 0.  1.
          3    1    6    6  503    0 -0.26554089092E+02 -0.88263154103E+02 -0.77892630897E+01  0.92499603455E+02  0.00000000000E+00 0. -1.
         -3    1    6    6    0  503 -0.35209574636E+03 -0.41903217744E+03 -0.34115675847E+02  0.54838240278E+03  0.00000000000E+00 0.  1.
<mgrwt>
<rscale>  0 0.27343478E+04</rscale>
<asrwt>0</asrwt>
<pdfrwt beam="1">  1        1 0.29803954E+00 0.27343478E+04</pdfrwt>
<pdfrwt beam="2">  1       -2 0.14843862E+00 0.27343478E+04</pdfrwt>
<totfact> 0.77475985E-01</totfact>
</mgrwt>
</event>
<event>
12    5  0.5197392E-008  0.2259825E+04  0.7818608E-02  0.8493932E-01
          1   -1    0    0  501    0  0.00000000000E+00  0.00000000000E+00  0.19342995477E+04  0.19342995477E+04  0.00000000000E+00 0. -1.
         -2   -1    0    0    0  501 -0.00000000000E+00 -0.00000000000E+00 -0.66003348950E+03  0.66003348950E+03  0.00000000000E+00 0.  1.
        -24    2    1    2    0    0 -0.43095808633E+03 -0.85528381951E+03  0.39579565455E+03  0.10395395756E+04  0.82176912413E+02 0.  0.
        254    2    1    2    0    0  0.43095808633E+03  0.85528381951E+03  0.87847040366E+03  0.15547934616E+04  0.85348530985E+03 0.  0.
         23    2    4    4    0    0  0.65688818797E+03  0.66750319876E+03  0.49563059017E+03  0.10637507941E+04  0.94092816798E+02 0.  0.
         23    2    4    4    0    0 -0.22593010165E+03  0.18778062074E+03  0.38283981348E+03  0.49104266752E+03  0.90832847511E+02 0.  0.
          1    1    3    3  502    0 -0.40415176225E+03 -0.82874473926E+03  0.39098860141E+03  0.10015131433E+04  0.00000000000E+00 0. -1.
         -2    1    3    3    0  502 -0.26806324075E+02 -0.26539080247E+02  0.48070531384E+01  0.38026432263E+02  0.00000000000E+00 0.  1.
         13    1    5    5    0    0  0.61929413446E+03  0.65472918473E+03  0.48004073405E+03  0.10210948226E+04  0.00000000000E+00 0.  1.
        -13    1    5    5    0    0  0.37594053511E+02  0.12774014037E+02  0.15589856125E+02  0.42655971539E+02  0.00000000000E+00 0. -1.
          1    1    6    6  503    0 -0.42500869359E+01  0.41139609857E+02  0.43867767883E+02  0.60290229699E+02  0.00000000000E+00 0. -1.
         -1    1    6    6    0  503 -0.22168001471E+03  0.14664101089E+03  0.33897204560E+03  0.43075243783E+03  0.00000000000E+00 0.  1.
<mgrwt>
<rscale>  0 0.22598252E+04</rscale>
<asrwt>0</asrwt>
<pdfrwt beam="1">  1        1 0.29758454E+00 0.22598252E+04</pdfrwt>
<pdfrwt beam="2">  1       -2 0.10154361E+00 0.22598252E+04</pdfrwt>
<totfact> 0.20953875E+00</totfact>
</mgrwt>
</event>
<event>
12    5  0.5197392E-008  0.1123809E+04  0.7818608E-02  0.9182292E-01
         -2   -1    0    0    0  501 -0.00000000000E+00  0.00000000000E+00  0.22776857947E+03  0.22776857947E+03  0.00000000000E+00 0.  1.
          1   -1    0    0  501    0  0.00000000000E+00 -0.00000000000E+00 -0.13862166117E+04  0.13862166117E+04  0.00000000000E+00 0. -1.
        -24    2    1    2    0    0  0.11911013944E+03 -0.98634132056E+02 -0.46721669075E+02  0.18073227391E+03  0.81026681695E+02 0.  0.
        254    2    1    2    0    0 -0.11911013944E+03  0.98634132056E+02 -0.11117263631E+04  0.14332529172E+04  0.89127016160E+03 0.  0.
         23    2    4    4    0    0 -0.17659805365E+03 -0.20027806994E+03 -0.10774253847E+04  0.11138486227E+04  0.92277391164E+02 0.  0.
         23    2    4    4    0    0  0.57487914212E+02  0.29891220200E+03 -0.34300978421E+02  0.31940429449E+03  0.90494096150E+02 0.  0.
          3    1    3    3  502    0  0.92370160069E+02 -0.65729715137E+02 -0.69121276350E+02  0.13277948926E+03  0.00000000000E+00 0. -1.
         -4    1    3    3    0  502  0.26739979371E+02 -0.32904416919E+02  0.22399607275E+02  0.47952784649E+02  0.00000000000E+00 0.  1.
         13    1    5    5    0    0 -0.75008144749E+02 -0.73276216314E+02 -0.25902464717E+03  0.27944479508E+03  0.00000000000E+00 0. -1.
        -13    1    5    5    0    0 -0.10158990890E+03 -0.12700185363E+03 -0.81840073752E+03  0.83440382764E+03  0.00000000000E+00 0.  1.
          3    1    6    6  503    0 -0.14058958969E+02  0.84141440557E+02 -0.37066889091E+02  0.93012851871E+02  0.00000000000E+00 0. -1.
         -3    1    6    6    0  503  0.71546873181E+02  0.21477076144E+03  0.27659106701E+01  0.22639144262E+03  0.00000000000E+00 0.  1.
<mgrwt>
<rscale>  0 0.11238089E+04</rscale>
<asrwt>0</asrwt>
<pdfrwt beam="1">  1        1 0.21326409E+00 0.11238089E+04</pdfrwt>
<pdfrwt beam="2">  1       -2 0.35041320E-01 0.11238089E+04</pdfrwt>
<totfact> 0.52400383E+01</totfact>
</mgrwt>
</event>
<event>
12    5  0.5197392E-008  0.1778029E+04  0.7818608E-02  0.8718071E-01
          1   -1    0    0  501    0  0.00000000000E+00  0.00000000000E+00  0.58680525802E+03  0.58680525802E+03  0.00000000000E+00 0. -1.
         -2   -1    0    0    0  501 -0.00000000000E+00 -0.00000000000E+00 -0.13468638738E+04  0.13468638738E+04  0.00000000000E+00 0.  1.
        -24    2    1    2    0    0  0.57149031361E+03 -0.23163468794E+03 -0.35883658002E+02  0.62286868547E+03  0.80137102616E+02 0.  0.
        254    2    1    2    0    0 -0.57149031361E+03  0.23163468794E+03 -0.72417495781E+03  0.13108004464E+04  0.90194935198E+03 0.  0.
         23    2    4    4    0    0  0.18470861765E+03 -0.11962277476E+03 -0.73238185305E+02  0.24908127312E+03  0.90833733573E+02 0.  0.
         23    2    4    4    0    0 -0.75619893127E+03  0.35125746270E+03 -0.65093677251E+03  0.10617191733E+04  0.91160804873E+02 0.  0.
          3    1    3    3  502    0  0.31560291144E+03 -0.14480567686E+03  0.16462016486E+02  0.34762750142E+03  0.00000000000E+00 0. -1.
         -4    1    3    3    0  502  0.25588740218E+03 -0.86829011072E+02 -0.52345674487E+02  0.27524118404E+03  0.00000000000E+00 0.  1.
         13    1    5    5    0    0  0.18551864655E+03 -0.12899906048E+03 -0.61779836140E+02  0.23425343962E+03  0.00000000000E+00 0.  1.
        -13    1    5    5    0    0 -0.81002889500E+00  0.93762857158E+01 -0.11458349165E+02  0.14827833497E+02  0.00000000000E+00 0. -1.
          3    1    6    6  503    0 -0.36706393850E+03  0.18369143369E+03 -0.26470088890E+03  0.48841072710E+03  0.00000000000E+00 0. -1.
         -3    1    6    6    0  503 -0.38913499276E+03  0.16756602901E+03 -0.38623588360E+03  0.57330844617E+03  0.00000000000E+00 0.  1.
<mgrwt>
<rscale>  0 0.17780290E+04</rscale>
<asrwt>0</asrwt>
<pdfrwt beam="1">  1        1 0.90277732E-01 0.17780290E+04</pdfrwt>
<pdfrwt beam="2">  1       -2 0.20720983E+00 0.17780290E+04</pdfrwt>
<totfact> 0.34903933E+00</totfact>
</mgrwt>
</event>
<event>
12    5  0.5197392E-008  0.1170166E+04  0.7818608E-02  0.9139379E-01
          1   -1    0    0  501    0  0.00000000000E+00  0.00000000000E+00  0.12713608515E+04  0.12713608515E+04  0.00000000000E+00 0. -1.
         -2   -1    0    0    0  501 -0.00000000000E+00 -0.00000000000E+00 -0.26925632014E+03  0.26925632014E+03  0.00000000000E+00 0.  1.
        -24    2    1    2    0    0  0.66866856001E+02 -0.20403226614E+03  0.30892129568E+03  0.38473716099E+03  0.80560375250E+02 0.  0.
        254    2    1    2    0    0 -0.66866856001E+02  0.20403226614E+03  0.69318323567E+03  0.11558800107E+04  0.89969731507E+03 0.  0.
         23    2    4    4    0    0  0.20188117715E+02  0.54158758469E+03  0.51713421969E+03  0.75477843657E+03  0.92401380646E+02 0.  0.
         23    2    4    4    0    0 -0.87054973716E+02 -0.33755531855E+03  0.17604901598E+03  0.40110157408E+03  0.91471608581E+02 0.  0.
          1    1    3    3  502    0  0.19166659012E+02 -0.13477936626E+03  0.24037542581E+03  0.27624840944E+03  0.00000000000E+00 0. -1.
         -2    1    3    3    0  502  0.47700196988E+02 -0.69252899884E+02  0.68545869870E+02  0.10848875154E+03  0.00000000000E+00 0.  1.
         13    1    5    5    0    0 -0.22043795518E+02  0.29655299729E+03  0.32524675863E+03  0.44069838112E+03  0.00000000000E+00 0.  1.
        -13    1    5    5    0    0  0.42231913234E+02  0.24503458740E+03  0.19188746106E+03  0.31408005545E+03  0.00000000000E+00 0. -1.
          2    1    6    6  503    0 -0.30454170342E+02 -0.30249104292E+02  0.45205956221E+02  0.62338136638E+02  0.00000000000E+00 0. -1.
         -2    1    6    6    0  503 -0.56600803374E+02 -0.30730621426E+03  0.13084305976E+03  0.33876343745E+03  0.00000000000E+00 0.  1.
<mgrwt>
<rscale>  0 0.11701657E+04</rscale>
<asrwt>0</asrwt>
<pdfrwt beam="1">  1        1 0.19559397E+00 0.11701657E+04</pdfrwt>
<pdfrwt beam="2">  1       -2 0.41424050E-01 0.11701657E+04</pdfrwt>
<totfact> 0.45539547E+01</totfact>
</mgrwt>
</event>
<event>
12    5  0.5197392E-008  0.1871882E+04  0.7818608E-02  0.8668980E-01
         -2   -1    0    0    0  501 -0.00000000000E+00  0.00000000000E+00  0.10739257272E+04  0.10739257272E+04  0.00000000000E+00 0.  1.
          1   -1    0    0  501    0  0.00000000000E+00 -0.00000000000E+00 -0.81568563636E+03  0.81568563636E+03  0.00000000000E+00 0. -1.
        -24    2    1    2    0    0 -0.48319753289E+03 -0.50042000808E+03  0.22667532990E+03  0.73623609442E+03  0.82230415722E+02 0.  0.
        254    2    1    2    0    0  0.48319753289E+03  0.50042000808E+03  0.31564760920E+02  0.11533752691E+04  0.91944447195E+03 0.  0.
         23    2    4    4    0    0 -0.82190560836E+02 -0.90994955006E+02 -0.24193087349E+03  0.28574900243E+03  0.89925384161E+02 0.  0.
         23    2    4    4    0    0  0.56538809372E+03  0.59141496308E+03  0.27349563441E+03  0.86762626669E+03  0.92412777910E+02 0.  0.
          3    1    3    3  502    0 -0.32235857510E+03 -0.35577152968E+03  0.11908315855E+03  0.49464050675E+03  0.00000000000E+00 0. -1.
         -4    1    3    3    0  502 -0.16083895779E+03 -0.14464847840E+03  0.10759217135E+03  0.24159558767E+03  0.00000000000E+00 0.  1.
         13    1    5    5    0    0 -0.17167756968E+01 -0.65746542787E+02 -0.12900785385E+03  0.14480532297E+03  0.00000000000E+00 0.  1.
        -13    1    5    5    0    0 -0.80473785139E+02 -0.25248412219E+02 -0.11292301964E+03  0.14094367946E+03  0.00000000000E+00 0. -1.
          3    1    6    6  503    0  0.64598025621E+02  0.33278628481E+02  0.35639732846E+02  0.80935545868E+02  0.00000000000E+00 0. -1.
         -3    1    6    6    0  503  0.50079006810E+03  0.55813633460E+03  0.23785590156E+03  0.78669072082E+03  0.00000000000E+00 0.  1.
<mgrwt>
<rscale>  0 0.18718823E+04</rscale>
<asrwt>0</asrwt>
<pdfrwt beam="1">  1        1 0.12549010E+00 0.18718823E+04</pdfrwt>
<pdfrwt beam="2">  1       -2 0.16521934E+00 0.18718823E+04</pdfrwt>
<totfact> 0.40594429E+00</totfact>
</mgrwt>
</event>
<event>
12    5  0.5197392E-008  0.1861195E+04  0.7818608E-02  0.8674417E-01
         -2   -1    0    0    0  501 -0.00000000000E+00  0.00000000000E+00  0.53761694429E+03  0.53761694429E+03  0.00000000000E+00 0.  1.
          1   -1    0    0  501    0  0.00000000000E+00 -0.00000000000E+00 -0.16108345624E+04  0.16108345624E+04  0.00000000000E+00 0. -1.
        -24    2    1    2    0    0 -0.95325832983E+02  0.71298621567E+03 -0.52339653698E+03  0.89318275360E+03  0.79969608242E+02 0.  0.
        254    2    1    2    0    0  0.95325832983E+02 -0.71298621567E+03 -0.54982108115E+03  0.12552687531E+04  0.86945963855E+03 0.  0.
         23    2    4    4    0    0 -0.35085093225E+03 -0.51913296946E+03 -0.27208479847E+03  0.68951844881E+03  0.93862330304E+02 0.  0.
         23    2    4    4    0    0  0.44617676523E+03 -0.19385324621E+03 -0.27773628268E+03  0.56575030429E+03  0.79266494771E+02 0.  0.
          3    1    3    3  502    0 -0.48765135149E+02  0.47085889914E+03 -0.29975493289E+03  0.56030274057E+03  0.00000000000E+00 0. -1.
         -4    1    3    3    0  502 -0.46560697834E+02  0.24212731653E+03 -0.22364160409E+03  0.33288001303E+03  0.00000000000E+00 0.  1.
         13    1    5    5    0    0 -0.11246853527E+02 -0.20518061763E+02  0.75411254948E+01  0.24583554391E+02  0.00000000000E+00 0. -1.
        -13    1    5    5    0    0 -0.33960407872E+03 -0.49861490770E+03 -0.27962592397E+03  0.66493489442E+03  0.00000000000E+00 0.  1.
          2    1    6    6  503    0  0.40137893369E+03 -0.15730232008E+03 -0.21980668586E+03  0.48390499838E+03  0.00000000000E+00 0.  1.
         -2    1    6    6    0  503  0.44797831542E+02 -0.36550926121E+02 -0.57929596823E+02  0.81845305908E+02  0.00000000000E+00 0. -1.
<mgrwt>
<rscale>  0 0.18611953E+04</rscale>
<asrwt>0</asrwt>
<pdfrwt beam="1">  1        1 0.24782070E+00 0.18611953E+04</pdfrwt>
<pdfrwt beam="2">  1       -2 0.82710300E-01 0.18611953E+04</pdfrwt>
<totfact> 0.57942610E+00</totfact>
</mgrwt>
</event>
<event>
12    5  0.5197392E-008  0.2186238E+04  0.7818608E-02  0.8524178E-01
         -2   -1    0    0    0  501 -0.00000000000E+00  0.00000000000E+00  0.42525320154E+03  0.42525320154E+03  0.00000000000E+00 0.  1.
          1   -1    0    0  501    0  0.00000000000E+00 -0.00000000000E+00 -0.28098764416E+04  0.28098764416E+04  0.00000000000E+00 0. -1.
        -24    2    1    2    0    0  0.89038432971E+03  0.14432287994E+03 -0.98963764292E+03  0.13414397347E+04  0.80402420598E+02 0.  0.
        254    2    1    2    0    0 -0.89038432971E+03 -0.14432287994E+03 -0.13949855971E+04  0.18936899084E+04  0.90910027215E+03 0.  0.
         23    2    4    4    0    0 -0.63245882191E+03 -0.25593082488E+03 -0.28497746050E+03  0.74498828958E+03  0.91053007022E+02 0.  0.
         23    2    4    4    0    0 -0.25792550780E+03  0.11160794494E+03 -0.11100081366E+04  0.11487016188E+04  0.91735733614E+02 0.  0.
          1    1    3    3  502    0  0.11268513048E+03  0.28320693857E+02 -0.16714161827E+03  0.20355913364E+03  0.00000000000E+00 0. -1.
         -2    1    3    3    0  502  0.77769919923E+03  0.11600218609E+03 -0.82249602465E+03  0.11378806010E+04  0.00000000000E+00 0.  1.
         13    1    5    5    0    0 -0.53126883493E+03 -0.18447416594E+03 -0.25521872321E+03  0.61758715138E+03  0.00000000000E+00 0. -1.
        -13    1    5    5    0    0 -0.10118998698E+03 -0.71456658937E+02 -0.29758737295E+02  0.12740113821E+03  0.00000000000E+00 0.  1.
          2    1    6    6  503    0 -0.25487691065E+03  0.10056877409E+03 -0.96225687296E+03  0.10005071751E+04  0.00000000000E+00 0.  1.
         -2    1    6    6    0  503 -0.30485971518E+01  0.11039170846E+02 -0.14775126367E+03  0.14819444373E+03  0.00000000000E+00 0. -1.
<mgrwt>
<rscale>  0 0.21862378E+04</rscale>
<asrwt>0</asrwt>
<pdfrwt beam="1">  1        1 0.43228867E+00 0.21862378E+04</pdfrwt>
<pdfrwt beam="2">  1       -2 0.65423571E-01 0.21862378E+04</pdfrwt>
<totfact> 0.14168015E+00</totfact>
</mgrwt>
</event>
<event>
12    5  0.5197392E-008  0.1816514E+04  0.7818608E-02  0.8697567E-01
         -2   -1    0    0    0  501 -0.00000000000E+00  0.00000000000E+00  0.31972924511E+03  0.31972924511E+03  0.00000000000E+00 0.  1.
          1   -1    0    0  501    0  0.00000000000E+00 -0.00000000000E+00 -0.25800908128E+04  0.25800908128E+04  0.00000000000E+00 0. -1.
        -24    2    1    2    0    0  0.45173877398E+02 -0.59335815005E+03 -0.31667999948E+03  0.67894532257E+03  0.81030583940E+02 0.  0.
        254    2    1    2    0    0 -0.45173877398E+02  0.59335815005E+03 -0.19436815682E+04  0.22208747353E+04  0.89457921840E+03 0.  0.
         23    2    4    4    0    0 -0.39974062230E+03  0.59728666292E+02 -0.60619882726E+03  0.73513909071E+03  0.97940726045E+02 0.  0.
         23    2    4    4    0    0  0.35456674490E+03  0.53362948376E+03 -0.13374827409E+04  0.14857356446E+04  0.89846095313E+02 0.  0.
          3    1    3    3  502    0  0.83878573714E+01 -0.21893602790E+03 -0.16048424599E+03  0.27158522359E+03  0.00000000000E+00 0. -1.
         -4    1    3    3    0  502  0.36786020027E+02 -0.37442212216E+03 -0.15619575349E+03  0.40736009898E+03  0.00000000000E+00 0.  1.
         13    1    5    5    0    0  0.48391565750E+01 -0.28374727908E+00 -0.18503054437E+02  0.19127492580E+02  0.00000000000E+00 0.  1.
        -13    1    5    5    0    0 -0.40457977888E+03  0.60012413571E+02 -0.58769577282E+03  0.71601159813E+03  0.00000000000E+00 0. -1.
          4    1    6    6  503    0  0.28006866861E+03  0.46841031484E+03 -0.11731248598E+04  0.12938580366E+04  0.00000000000E+00 0. -1.
         -4    1    6    6    0  503  0.74498076294E+02  0.65219168922E+02 -0.16435788111E+03  0.19187760799E+03  0.00000000000E+00 0.  1.
<mgrwt>
<rscale>  0 0.18165137E+04</rscale>
<asrwt>0</asrwt>
<pdfrwt beam="1">  1        1 0.39693704E+00 0.18165137E+04</pdfrwt>
<pdfrwt beam="2">  1       -2 0.49189116E-01 0.18165137E+04</pdfrwt>
<totfact> 0.38629272E+00</totfact>
</mgrwt>
</event>
<event>
12    5  0.5197392E-008  0.2284606E+04  0.7818608E-02  0.8484016E-01
         -2   -1    0    0    0  501 -0.00000000000E+00  0.00000000000E+00  0.34031638092E+03  0.34031638092E+03  0.00000000000E+00 0.  1.
          1   -1    0    0  501    0  0.00000000000E+00 -0.00000000000E+00 -0.38342433539E+04  0.38342433539E+04  0.00000000000E+00 0. -1.
        -24    2    1    2    0    0 -0.93130245461E+03  0.71541390891E+01 -0.10532581569E+04  0.14083403314E+04  0.81818704224E+02 0.  0.
        254    2    1    2    0    0  0.93130245461E+03 -0.71541390891E+01 -0.24406688160E+04  0.27662194033E+04  0.90979672142E+03 0.  0.
         23    2    4    4    0    0  0.34453927369E+03  0.31810135022E+03 -0.42332080126E+03  0.63829596135E+03  0.91243922359E+02 0.  0.
         23    2    4    4    0    0  0.58676318093E+03 -0.32525548931E+03 -0.20173480148E+04  0.21279234420E+04  0.91010980507E+02 0.  0.
          3    1    3    3  502    0 -0.26645672971E+03 -0.97849588326E+01 -0.25015500920E+03  0.36561244899E+03  0.00000000000E+00 0. -1.
         -4    1    3    3    0  502 -0.66484572490E+03  0.16939097922E+02 -0.80310314772E+03  0.10427278825E+04  0.00000000000E+00 0.  1.
         13    1    5    5    0    0  0.30746271661E+03  0.25938548617E+03 -0.32102325109E+03  0.51465530239E+03  0.00000000000E+00 0.  1.
        -13    1    5    5    0    0  0.37076557080E+02  0.58715864049E+02 -0.10229755017E+03  0.12364065896E+03  0.00000000000E+00 0. -1.
          1    1    6    6  503    0  0.29553162732E+02 -0.35526138389E+02 -0.96135432412E+02  0.10666544568E+03  0.00000000000E+00 0. -1.
         -1    1    6    6    0  503  0.55721001820E+03 -0.28972935092E+03 -0.19212125823E+04  0.20212579963E+04  0.00000000000E+00 0.  1.
<mgrwt>
<rscale>  0 0.22846057E+04</rscale>
<asrwt>0</asrwt>
<pdfrwt beam="1">  1        1 0.58988361E+00 0.22846057E+04</pdfrwt>
<pdfrwt beam="2">  1       -2 0.52356365E-01 0.22846057E+04</pdfrwt>
<totfact> 0.36664773E-01</totfact>
</mgrwt>
</event>
<event>
12    5  0.5197392E-008  0.1600385E+04  0.7818608E-02  0.8820312E-01
          1   -1    0    0  501    0  0.00000000000E+00  0.00000000000E+00  0.17122337700E+04  0.17122337700E+04  0.00000000000E+00 0. -1.
         -2   -1    0    0    0  501 -0.00000000000E+00 -0.00000000000E+00 -0.37396056121E+03  0.37396056121E+03  0.00000000000E+00 0.  1.
        -24    2    1    2    0    0  0.39056511534E+03  0.37336013123E+03  0.37894635647E+03  0.66453775398E+03  0.77917831439E+02 0.  0.
        254    2    1    2    0    0 -0.39056511534E+03 -0.37336013123E+03  0.95932685228E+03  0.14216565772E+04  0.89936673114E+03 0.  0.
         23    2    4    4    0    0 -0.11867778430E+03 -0.63024326613E+03  0.47879713988E+03  0.80618008307E+03  0.96894964726E+02 0.  0.
         23    2    4    4    0    0 -0.27188733105E+03  0.25688313490E+03  0.48052971239E+03  0.61547649413E+03  0.89391523928E+02 0.  0.
          3    1    3    3  502    0  0.10523351922E+03  0.57424338363E+02  0.92668308524E+02  0.15152248549E+03  0.00000000000E+00 0. -1.
         -4    1    3    3    0  502  0.28533159612E+03  0.31593579287E+03  0.28627804795E+03  0.51301526849E+03  0.00000000000E+00 0.  1.
         13    1    5    5    0    0 -0.70150024706E+02 -0.54115107692E+03  0.42274186114E+03  0.69027255137E+03  0.00000000000E+00 0.  1.
        -13    1    5    5    0    0 -0.48527759589E+02 -0.89092189213E+02  0.56055278742E+02  0.11590753170E+03  0.00000000000E+00 0. -1.
          2    1    6    6  503    0 -0.68388692025E+02  0.59644139426E+02  0.18480341930E+03  0.20588040303E+03  0.00000000000E+00 0. -1.
         -2    1    6    6    0  503 -0.20349863902E+03  0.19723899547E+03  0.29572629309E+03  0.40959609110E+03  0.00000000000E+00 0.  1.
<mgrwt>
<rscale>  0 0.16003848E+04</rscale>
<asrwt>0</asrwt>
<pdfrwt beam="1">  1        1 0.26342058E+00 0.16003848E+04</pdfrwt>
<pdfrwt beam="2">  1       -2 0.57532395E-01 0.16003848E+04</pdfrwt>
<totfact> 0.11142085E+01</totfact>
</mgrwt>
</event>
<event>
12    5  0.5197392E-008  0.1290159E+04  0.7818608E-02  0.9037406E-01
          1   -1    0    0  501    0  0.00000000000E+00  0.00000000000E+00  0.18636581537E+04  0.18636581537E+04  0.00000000000E+00 0. -1.
         -2   -1    0    0    0  501 -0.00000000000E+00 -0.00000000000E+00 -0.22328542785E+03  0.22328542785E+03  0.00000000000E+00 0.  1.
        -24    2    1    2    0    0 -0.81564692462E+02  0.75811305732E+02 -0.67829954947E+02  0.15303894462E+03  0.80124045390E+02 0.  0.
        254    2    1    2    0    0  0.81564692462E+02 -0.75811305732E+02  0.17082026808E+04  0.19339046369E+04  0.89979475045E+03 0.  0.
         23    2    4    4    0    0  0.29352421215E+03 -0.38704808354E+03  0.11766484077E+04  0.12762303001E+04  0.91102258164E+02 0.  0.
         23    2    4    4    0    0 -0.21195951969E+03  0.31123677780E+03  0.53155427307E+03  0.65767433682E+03  0.90500929536E+02 0.  0.
          3    1    3    3  502    0 -0.30597754985E+02 -0.85289094165E+01  0.26654118645E+01  0.31875842363E+02  0.00000000000E+00 0. -1.
         -4    1    3    3    0  502 -0.50966937477E+02  0.84340215148E+02 -0.70495366811E+02  0.12116310226E+03  0.00000000000E+00 0.  1.
         13    1    5    5    0    0  0.67893562770E+02 -0.52659865815E+02  0.28297477792E+03  0.29573184183E+03  0.00000000000E+00 0.  1.
        -13    1    5    5    0    0  0.22563064938E+03 -0.33438821772E+03  0.89367362979E+03  0.98049845827E+03  0.00000000000E+00 0. -1.
          2    1    6    6  503    0 -0.31678197811E+02  0.11605335756E+03  0.19105931917E+03  0.22577766377E+03  0.00000000000E+00 0. -1.
         -2    1    6    6    0  503 -0.18028132187E+03  0.19518342024E+03  0.34049495390E+03  0.43189667304E+03  0.00000000000E+00 0.  1.
<mgrwt>
<rscale>  0 0.12901592E+04</rscale>
<asrwt>0</asrwt>
<pdfrwt beam="1">  1        1 0.28671663E+00 0.12901592E+04</pdfrwt>
<pdfrwt beam="2">  1       -2 0.34351606E-01 0.12901592E+04</pdfrwt>
<totfact> 0.25289922E+01</totfact>
</mgrwt>
</event>
<event>
12    5  0.5197392E-008  0.1451454E+04  0.7818608E-02  0.8917393E-01
         -2   -1    0    0    0  501 -0.00000000000E+00  0.00000000000E+00  0.98547731311E+03  0.98547731311E+03  0.00000000000E+00 0.  1.
          1   -1    0    0  501    0  0.00000000000E+00 -0.00000000000E+00 -0.53444153495E+03  0.53444153495E+03  0.00000000000E+00 0. -1.
        -24    2    1    2    0    0  0.30281694275E+03  0.12619253487E+03  0.46803026814E+03  0.57734174811E+03  0.81538368481E+02 0.  0.
        254    2    1    2    0    0 -0.30281694275E+03 -0.12619253487E+03 -0.16994489976E+02  0.94257709995E+03  0.88348181645E+03 0.  0.
         23    2    4    4    0    0  0.18763195045E+03 -0.28110606875E+03 -0.18294410501E+03  0.39466989648E+03  0.89829899861E+02 0.  0.
         23    2    4    4    0    0 -0.49044889320E+03  0.15491353388E+03  0.16594961504E+03  0.54790720348E+03  0.90137168102E+02 0.  0.
          3    1    3    3  502    0  0.97570885654E+02  0.46416815923E+02  0.93569711647E+02  0.14293316433E+03  0.00000000000E+00 0. -1.
         -4    1    3    3    0  502  0.20524605710E+03  0.79775718950E+02  0.37446055649E+03  0.43440858378E+03  0.00000000000E+00 0.  1.
         13    1    5    5    0    0  0.33554404402E+02 -0.68764372462E+01 -0.98557340983E+01  0.35641533898E+02  0.00000000000E+00 0. -1.
        -13    1    5    5    0    0  0.15407754604E+03 -0.27422963151E+03 -0.17308837091E+03  0.35902836258E+03  0.00000000000E+00 0.  1.
          4    1    6    6  503    0 -0.21605670453E+02  0.29121480820E+02  0.56460242369E+01  0.36698000361E+02  0.00000000000E+00 0. -1.
         -4    1    6    6    0  503 -0.46884322274E+03  0.12579205306E+03  0.16030359080E+03  0.51120920312E+03  0.00000000000E+00 0.  1.
<mgrwt>
<rscale>  0 0.14514545E+04</rscale>
<asrwt>0</asrwt>
<pdfrwt beam="1">  1        1 0.82221775E-01 0.14514545E+04</pdfrwt>
<pdfrwt beam="2">  1       -2 0.15161189E+00 0.14514545E+04</pdfrwt>
<totfact> 0.99846871E+00</totfact>
</mgrwt>
</event>
<event>
12    5  0.5197392E-008  0.1379153E+04  0.7818608E-02  0.8969048E-01
          1   -1    0    0  501    0  0.00000000000E+00  0.00000000000E+00  0.97039367789E+03  0.97039367789E+03  0.00000000000E+00 0. -1.
         -2   -1    0    0    0  501 -0.00000000000E+00 -0.00000000000E+00 -0.49002371387E+03  0.49002371387E+03  0.00000000000E+00 0.  1.
        -24    2    1    2    0    0  0.86259387805E+02  0.17770847408E+03  0.49251770726E+03  0.53637936833E+03  0.78154661142E+02 0.  0.
        254    2    1    2    0    0 -0.86259387805E+02 -0.17770847408E+03 -0.12147743243E+02  0.92403802343E+03  0.90259499076E+03 0.  0.
         23    2    4    4    0    0  0.19286828184E+03 -0.23449839488E+02 -0.37516598104E+03  0.43201136594E+03  0.90201096756E+02 0.  0.
         23    2    4    4    0    0 -0.27912766965E+03 -0.15425863459E+03  0.36301823780E+03  0.49202665749E+03  0.92736230238E+02 0.  0.
          3    1    3    3  502    0  0.90680337851E+02  0.14569966715E+03  0.34453543189E+03  0.38491035385E+03  0.00000000000E+00 0. -1.
         -4    1    3    3    0  502 -0.44209500452E+01  0.32008806935E+02  0.14798227538E+03  0.15146901448E+03  0.00000000000E+00 0.  1.
         13    1    5    5    0    0  0.57291200334E+02  0.94001188026E+00 -0.20617240275E+03  0.21398650639E+03  0.00000000000E+00 0.  1.
        -13    1    5    5    0    0  0.13557708151E+03 -0.24389851368E+02 -0.16899357829E+03  0.21802485955E+03  0.00000000000E+00 0. -1.
          1    1    6    6  503    0 -0.27228983255E+03 -0.16573109384E+03  0.34766498281E+03  0.47167731411E+03  0.00000000000E+00 0. -1.
         -1    1    6    6    0  503 -0.68378370971E+01  0.11472459244E+02  0.15353254991E+02  0.20349343383E+02  0.00000000000E+00 0.  1.
<mgrwt>
<rscale>  0 0.13791532E+04</rscale>
<asrwt>0</asrwt>
<pdfrwt beam="1">  1        1 0.14929133E+00 0.13791532E+04</pdfrwt>
<pdfrwt beam="2">  1       -2 0.75388264E-01 0.13791532E+04</pdfrwt>
<totfact> 0.21579354E+01</totfact>
</mgrwt>
</event>
<event>
12    5  0.5197392E-008  0.1906900E+04  0.7818608E-02  0.8651430E-01
         -2   -1    0    0    0  501 -0.00000000000E+00  0.00000000000E+00  0.44317594193E+03  0.44317594193E+03  0.00000000000E+00 0.  1.
          1   -1    0    0  501    0  0.00000000000E+00 -0.00000000000E+00 -0.20512540225E+04  0.20512540225E+04  0.00000000000E+00 0. -1.
        -24    2    1    2    0    0 -0.14040270086E+02 -0.20848325204E+03 -0.15524685594E+04  0.15679204311E+04  0.67479291416E+02 0.  0.
        254    2    1    2    0    0  0.14040270086E+02  0.20848325204E+03 -0.55609521181E+02  0.92650953334E+03  0.90092458117E+03 0.  0.
         23    2    4    4    0    0  0.24168145559E+03  0.19121456478E+03  0.33401965373E+03  0.46437158449E+03  0.95388173513E+02 0.  0.
         23    2    4    4    0    0 -0.22764118550E+03  0.17268687255E+02 -0.38962917491E+03  0.46213794885E+03  0.98193039111E+02 0.  0.
          3    1    3    3  502    0  0.18487674802E+00 -0.19840862449E+03 -0.13235001291E+04  0.13382894336E+04  0.00000000000E+00 0. -1.
         -4    1    3    3    0  502 -0.14225146834E+02 -0.10074627549E+02 -0.22896843029E+03  0.22963099746E+03  0.00000000000E+00 0.  1.
         13    1    5    5    0    0  0.11295090288E+03  0.42466850984E+02  0.87870605986E+02  0.14927351838E+03  0.00000000000E+00 0.  1.
        -13    1    5    5    0    0  0.12873055271E+03  0.14874771380E+03  0.24614904774E+03  0.31509806611E+03  0.00000000000E+00 0. -1.
          3    1    6    6  503    0 -0.21737737121E+03  0.42281750734E+02 -0.34502026492E+03  0.40997518360E+03  0.00000000000E+00 0. -1.
         -3    1    6    6    0  503 -0.10263814292E+02 -0.25013063479E+02 -0.44608909989E+02  0.52162765253E+02  0.00000000000E+00 0.  1.
<mgrwt>
<rscale>  0 0.19068995E+04</rscale>
<asrwt>0</asrwt>
<pdfrwt beam="1">  1        1 0.31557754E+00 0.19068995E+04</pdfrwt>
<pdfrwt beam="2">  1       -2 0.68180914E-01 0.19068995E+04</pdfrwt>
<totfact> 0.44469061E+00</totfact>
</mgrwt>
</event>
<event>
12    5  0.5197392E-008  0.1444099E+04  0.7818608E-02  0.8922502E-01
          1   -1    0    0  501    0  0.00000000000E+00  0.00000000000E+00  0.54209573141E+03  0.54209573141E+03  0.00000000000E+00 0. -1.
         -2   -1    0    0    0  501 -0.00000000000E+00 -0.00000000000E+00 -0.96174049113E+03  0.96174049113E+03  0.00000000000E+00 0.  1.
        -24    2    1    2    0    0 -0.24529553961E+03  0.22743971243E+02 -0.49683297583E+03  0.56041251254E+03  0.80820717408E+02 0.  0.
        254    2    1    2    0    0  0.24529553961E+03 -0.22743971243E+02  0.77188216115E+02  0.94342371000E+03  0.90741560814E+03 0.  0.
         23    2    4    4    0    0 -0.32747582886E+03  0.35780410505E+02  0.11156209790E+03  0.35947834547E+03  0.90873114342E+02 0.  0.
         23    2    4    4    0    0  0.57277136847E+03 -0.58524381748E+02 -0.34373881781E+02  0.58394536453E+03  0.91205708215E+02 0.  0.
          3    1    3    3  502    0 -0.66901301698E+01  0.12570995829E+02 -0.79370196665E+01  0.16302884990E+02  0.00000000000E+00 0. -1.
         -4    1    3    3    0  502 -0.23860540944E+03  0.10172975414E+02 -0.48889595616E+03  0.54410962755E+03  0.00000000000E+00 0.  1.
         13    1    5    5    0    0 -0.89185708628E+02  0.49219723854E+02  0.47285435351E+02  0.11230576226E+03  0.00000000000E+00 0.  1.
        -13    1    5    5    0    0 -0.23829012023E+03 -0.13439313349E+02  0.64276662545E+02  0.24717258321E+03  0.00000000000E+00 0. -1.
          1    1    6    6  503    0  0.48942580229E+03 -0.81231224646E+02 -0.21298556281E+02  0.49657804654E+03  0.00000000000E+00 0. -1.
         -1    1    6    6    0  503  0.83345566180E+02  0.22706842898E+02 -0.13075325500E+02  0.87367317992E+02  0.00000000000E+00 0.  1.
<mgrwt>
<rscale>  0 0.14440989E+04</rscale>
<asrwt>0</asrwt>
<pdfrwt beam="1">  1        1 0.83399345E-01 0.14440989E+04</pdfrwt>
<pdfrwt beam="2">  1       -2 0.14796007E+00 0.14440989E+04</pdfrwt>
<totfact> 0.10447913E+01</totfact>
</mgrwt>
</event>
<event>
12    5  0.5197392E-008  0.1979389E+04  0.7818608E-02  0.8616318E-01
         -2   -1    0    0    0  501 -0.00000000000E+00  0.00000000000E+00  0.12138003821E+04  0.12138003821E+04  0.00000000000E+00 0.  1.
          1   -1    0    0  501    0  0.00000000000E+00 -0.00000000000E+00 -0.80696541912E+03  0.80696541912E+03  0.00000000000E+00 0. -1.
        -24    2    1    2    0    0 -0.26648296372E+02 -0.31622859504E+03  0.90730860020E+03  0.96457493822E+03  0.80531108428E+02 0.  0.
        254    2    1    2    0    0  0.26648296372E+02  0.31622859504E+03 -0.50047363722E+03  0.10561908630E+04  0.87427376804E+03 0.  0.
         23    2    4    4    0    0  0.18086857088E+03 -0.43772217082E+02  0.17420405015E+03  0.27083444723E+03  0.91513932263E+02 0.  0.
         23    2    4    4    0    0 -0.15422027451E+03  0.36000081212E+03 -0.67467768738E+03  0.78535641575E+03  0.90610375377E+02 0.  0.
          3    1    3    3  502    0 -0.12004711380E+02 -0.47285232537E+01  0.17781333019E+02  0.21969247402E+02  0.00000000000E+00 0. -1.
         -4    1    3    3    0  502 -0.14643584992E+02 -0.31150007178E+03  0.88952726718E+03  0.94260569081E+03  0.00000000000E+00 0.  1.
         13    1    5    5    0    0  0.52221111597E+00 -0.23474905016E+02  0.81781692276E+01  0.24864157373E+02  0.00000000000E+00 0. -1.
        -13    1    5    5    0    0  0.18034635976E+03 -0.20297312067E+02  0.16602588093E+03  0.24597028986E+03  0.00000000000E+00 0.  1.
          2    1    6    6  503    0 -0.29554102389E+02  0.23151551405E+02 -0.10897415855E+03  0.11525973509E+03  0.00000000000E+00 0. -1.
         -2    1    6    6    0  503 -0.12466617212E+03  0.33684926071E+03 -0.56570352883E+03  0.67009668067E+03  0.00000000000E+00 0.  1.
<mgrwt>
<rscale>  0 0.19793887E+04</rscale>
<asrwt>0</asrwt>
<pdfrwt beam="1">  1        1 0.12414853E+00 0.19793887E+04</pdfrwt>
<pdfrwt beam="2">  1       -2 0.18673852E+00 0.19793887E+04</pdfrwt>
<totfact> 0.28932688E+00</totfact>
</mgrwt>
</event>
<event>
12    5  0.5197392E-008  0.1316307E+04  0.7818608E-02  0.9016733E-01
         -2   -1    0    0    0  501 -0.00000000000E+00  0.00000000000E+00  0.25218553449E+03  0.25218553449E+03  0.00000000000E+00 0.  1.
          1   -1    0    0  501    0  0.00000000000E+00 -0.00000000000E+00 -0.17176469722E+04  0.17176469722E+04  0.00000000000E+00 0. -1.
        -24    2    1    2    0    0 -0.23143080014E+03 -0.11562601665E+03 -0.78653643137E+03  0.83200792269E+03  0.81658034310E+02 0.  0.
        254    2    1    2    0    0  0.23143080014E+03  0.11562601665E+03 -0.67892500634E+03  0.11378245840E+04  0.87565748369E+03 0.  0.
         23    2    4    4    0    0  0.42742886651E+03  0.36927129520E+03 -0.35695513728E+03  0.67444088153E+03  0.91634094429E+02 0.  0.
         23    2    4    4    0    0 -0.19599806637E+03 -0.25364527855E+03 -0.32196986906E+03  0.46338370247E+03  0.91152014706E+02 0.  0.
          3    1    3    3  502    0 -0.18477478222E+03 -0.53109138415E+02 -0.52548098118E+03  0.55954674721E+03  0.00000000000E+00 0. -1.
         -4    1    3    3    0  502 -0.46656017925E+02 -0.62516878235E+02 -0.26105545019E+03  0.27246117548E+03  0.00000000000E+00 0.  1.
         13    1    5    5    0    0  0.16455339565E+03  0.92292875353E+02 -0.93932819610E+02  0.21075855727E+03  0.00000000000E+00 0.  1.
        -13    1    5    5    0    0  0.26287547086E+03  0.27697841984E+03 -0.26302231767E+03  0.46368232426E+03  0.00000000000E+00 0. -1.
          3    1    6    6  503    0 -0.12409135809E+03 -0.17153036056E+03 -0.26825436578E+03  0.34173342609E+03  0.00000000000E+00 0. -1.
         -3    1    6    6    0  503 -0.71906708278E+02 -0.82114917985E+02 -0.53715503278E+02  0.12165027638E+03  0.00000000000E+00 0.  1.
<mgrwt>
<rscale>  0 0.13163065E+04</rscale>
<asrwt>0</asrwt>
<pdfrwt beam="1">  1        1 0.26425337E+00 0.13163065E+04</pdfrwt>
<pdfrwt beam="2">  1       -2 0.38797776E-01 0.13163065E+04</pdfrwt>
<totfact> 0.25071814E+01</totfact>
</mgrwt>
</event>
<event>
12    5  0.5197392E-008  0.1462920E+04  0.7818608E-02  0.8909492E-01
         -2   -1    0    0    0  501 -0.00000000000E+00  0.00000000000E+00  0.85606855328E+03  0.85606855328E+03  0.00000000000E+00 0.  1.
          1   -1    0    0  501    0  0.00000000000E+00 -0.00000000000E+00 -0.62498898792E+03  0.62498898792E+03  0.00000000000E+00 0. -1.
        -24    2    1    2    0    0  0.15012152170E+03  0.27433305561E+03  0.41782573028E+03  0.52747280900E+03  0.76512264879E+02 0.  0.
        254    2    1    2    0    0 -0.15012152170E+03 -0.27433305561E+03 -0.18674616492E+03  0.95358473220E+03  0.88128010002E+03 0.  0.
         23    2    4    4    0    0  0.35381704691E+03 -0.18111869818E+03 -0.13658102504E+03  0.43013641404E+03  0.91501217341E+02 0.  0.
         23    2    4    4    0    0 -0.50393856860E+03 -0.93214357438E+02 -0.50165139875E+02  0.52344831816E+03  0.94013845604E+02 0.  0.
          1    1    3    3  502    0  0.27611577454E+02  0.23543485835E+02  0.19801221002E+02  0.41337432043E+02  0.00000000000E+00 0. -1.
         -2    1    3    3    0  502  0.12250994425E+03  0.25078956978E+03  0.39802450927E+03  0.48613537696E+03  0.00000000000E+00 0.  1.
         13    1    5    5    0    0  0.29731557515E+03 -0.14469125249E+03 -0.14744338711E+03  0.36203820541E+03  0.00000000000E+00 0. -1.
        -13    1    5    5    0    0  0.56501471757E+02 -0.36427445689E+02  0.10862362063E+02  0.68098208638E+02  0.00000000000E+00 0.  1.
          3    1    6    6  503    0 -0.17546341244E+03 -0.38473091229E+02 -0.62555845675E+02  0.19021256973E+03  0.00000000000E+00 0. -1.
         -3    1    6    6    0  503 -0.32847515616E+03 -0.54741266209E+02  0.12390705800E+02  0.33323574843E+03  0.00000000000E+00 0.  1.
<mgrwt>
<rscale>  0 0.14629196E+04</rscale>
<asrwt>0</asrwt>
<pdfrwt beam="1">  1        1 0.96152152E-01 0.14629196E+04</pdfrwt>
<pdfrwt beam="2">  1       -2 0.13170285E+00 0.14629196E+04</pdfrwt>
<totfact> 0.11510072E+01</totfact>
</mgrwt>
</event>
<event>
12    5  0.5197392E-008  0.2404892E+04  0.7818608E-02  0.8437674E-01
         -2   -1    0    0    0  501 -0.00000000000E+00  0.00000000000E+00  0.62008370273E+03  0.62008370273E+03  0.00000000000E+00 0.  1.
          1   -1    0    0  501    0  0.00000000000E+00 -0.00000000000E+00 -0.23317443036E+04  0.23317443036E+04  0.00000000000E+00 0. -1.
        -24    2    1    2    0    0  0.78291538505E+03 -0.66648503563E+03 -0.85200140478E+03  0.13379706847E+04  0.84263613121E+02 0.  0.
        254    2    1    2    0    0 -0.78291538505E+03  0.66648503563E+03 -0.85965919605E+03  0.16138573216E+04  0.89908993890E+03 0.  0.
         23    2    4    4    0    0 -0.70753372358E+03  0.32663990692E+03 -0.96024865731E+03  0.12403401030E+04  0.95228611980E+02 0.  0.
         23    2    4    4    0    0 -0.75381661467E+02  0.33984512871E+03  0.10058946125E+03  0.37351721856E+03  0.90662927636E+02 0.  0.
          1    1    3    3  502    0  0.33919665496E+03 -0.30943031187E+03 -0.33019470025E+03  0.56553517018E+03  0.00000000000E+00 0. -1.
         -2    1    3    3    0  502  0.44371873009E+03 -0.35705472377E+03 -0.52180670453E+03  0.77243551452E+03  0.00000000000E+00 0.  1.
         13    1    5    5    0    0 -0.21415880067E+03  0.88064097110E+02 -0.22087132454E+03  0.32000534231E+03  0.00000000000E+00 0.  1.
        -13    1    5    5    0    0 -0.49337492291E+03  0.23857580981E+03 -0.73937733277E+03  0.92033476072E+03  0.00000000000E+00 0. -1.
          4    1    6    6  503    0 -0.41462893400E+02  0.18925969394E+03  0.10240883609E+03  0.21914828995E+03  0.00000000000E+00 0. -1.
         -4    1    6    6    0  503 -0.33918768067E+02  0.15058543478E+03 -0.18193748420E+01  0.15436892861E+03  0.00000000000E+00 0.  1.
<mgrwt>
<rscale>  0 0.24048922E+04</rscale>
<asrwt>0</asrwt>
<pdfrwt beam="1">  1        1 0.35872990E+00 0.24048922E+04</pdfrwt>
<pdfrwt beam="2">  1       -2 0.95397492E-01 0.24048922E+04</pdfrwt>
<totfact> 0.12860084E+00</totfact>
</mgrwt>
</event>
<event>
12    5  0.5197392E-008  0.1120501E+04  0.7818608E-02  0.9185437E-01
         -2   -1    0    0    0  501 -0.00000000000E+00  0.00000000000E+00  0.34106765281E+03  0.34106765281E+03  0.00000000000E+00 0.  1.
          1   -1    0    0  501    0  0.00000000000E+00 -0.00000000000E+00 -0.92028851856E+03  0.92028851856E+03  0.00000000000E+00 0. -1.
        -24    2    1    2    0    0 -0.20610860156E+03 -0.13603823283E+02 -0.38148872583E+02  0.22411602811E+03  0.78146259872E+02 0.  0.
        254    2    1    2    0    0  0.20610860156E+03  0.13603823283E+02 -0.54107199317E+03  0.10372401433E+04  0.86048962420E+03 0.  0.
         23    2    4    4    0    0  0.44806294661E+03  0.20944163066E+03 -0.50183921045E+03  0.71051204616E+03  0.91425236201E+02 0.  0.
         23    2    4    4    0    0 -0.24195434505E+03 -0.19583780737E+03 -0.39232782718E+02  0.32672809710E+03  0.91201350383E+02 0.  0.
          3    1    3    3  502    0 -0.10369068860E+02 -0.22611255030E+02 -0.53285026693E+01  0.25439720591E+02  0.00000000000E+00 0. -1.
         -4    1    3    3    0  502 -0.19573953270E+03  0.90074317470E+01 -0.32820369914E+02  0.19867630752E+03  0.00000000000E+00 0.  1.
         13    1    5    5    0    0  0.69152112075E+01 -0.48789596393E+01 -0.25284812128E+02  0.26663572858E+02  0.00000000000E+00 0. -1.
        -13    1    5    5    0    0  0.44114773540E+03  0.21432059030E+03 -0.47655439832E+03  0.68384847330E+03  0.00000000000E+00 0.  1.
          2    1    6    6  503    0 -0.17474136776E+02 -0.20616640592E+02 -0.31974319253E+02  0.41865838306E+02  0.00000000000E+00 0. -1.
         -2    1    6    6    0  503 -0.22448020828E+03 -0.17522116678E+03 -0.72584634643E+01  0.28486225880E+03  0.00000000000E+00 0.  1.
<mgrwt>
<rscale>  0 0.11205010E+04</rscale>
<asrwt>0</asrwt>
<pdfrwt beam="1">  1        1 0.14158285E+00 0.11205010E+04</pdfrwt>
<pdfrwt beam="2">  1       -2 0.52471947E-01 0.11205010E+04</pdfrwt>
<totfact> 0.52359773E+01</totfact>
</mgrwt>
</event>
<event>
12    5  0.5197392E-008  0.2017570E+04  0.7818608E-02  0.8598450E-01
         -2   -1    0    0    0  501 -0.00000000000E+00  0.00000000000E+00  0.75344054653E+03  0.75344054653E+03  0.00000000000E+00 0.  1.
          1   -1    0    0  501    0  0.00000000000E+00 -0.00000000000E+00 -0.13506670936E+04  0.13506670936E+04  0.00000000000E+00 0. -1.
        -24    2    1    2    0    0 -0.41276471568E+03 -0.62906778475E+02  0.48369608592E+03  0.64379433258E+03  0.78595584118E+02 0.  0.
        254    2    1    2    0    0  0.41276471568E+03  0.62906778475E+02 -0.10809226330E+04  0.14603133075E+04  0.88870087455E+03 0.  0.
         23    2    4    4    0    0 -0.23297615278E+03  0.11314775912E+03 -0.12306727548E+03  0.30041056809E+03  0.89558092714E+02 0.  0.
         23    2    4    4    0    0  0.64574086846E+03 -0.50240980643E+02 -0.95785535748E+03  0.11599027394E+04  0.91553556882E+02 0.  0.
          3    1    3    3  502    0 -0.20373160567E+03 -0.60092536425E+01  0.18841398932E+03  0.27756532501E+03  0.00000000000E+00 0. -1.
         -4    1    3    3    0  502 -0.20903311001E+03 -0.56897524833E+02  0.29528209660E+03  0.36622900757E+03  0.00000000000E+00 0.  1.
         13    1    5    5    0    0 -0.13883802700E+03  0.11363549529E+03 -0.89206241057E+02  0.20036660644E+03  0.00000000000E+00 0.  1.
        -13    1    5    5    0    0 -0.94138125779E+02 -0.48773617210E+00 -0.33861034421E+02  0.10004396166E+03  0.00000000000E+00 0. -1.
          1    1    6    6  503    0  0.37059466784E+03  0.21080429019E+01 -0.60375320350E+03  0.70842274273E+03  0.00000000000E+00 0. -1.
         -1    1    6    6    0  503  0.27514620061E+03 -0.52349023545E+02 -0.35410215398E+03  0.45147999671E+03  0.00000000000E+00 0.  1.
<mgrwt>
<rscale>  0 0.20175702E+04</rscale>
<asrwt>0</asrwt>
<pdfrwt beam="1">  1        1 0.20779494E+00 0.20175702E+04</pdfrwt>
<pdfrwt beam="2">  1       -2 0.11591393E+00 0.20175702E+04</pdfrwt>
<totfact> 0.39131575E+00</totfact>
</mgrwt>
</event>
<event>
12    5  0.5197392E-008  0.1270768E+04  0.7818608E-02  0.9053073E-01
          1   -1    0    0  501    0  0.00000000000E+00  0.00000000000E+00  0.59288332615E+03  0.59288332615E+03  0.00000000000E+00 0. -1.
         -2   -1    0    0    0  501 -0.00000000000E+00 -0.00000000000E+00 -0.68093181602E+03  0.68093181602E+03  0.00000000000E+00 0.  1.
        -24    2    1    2    0    0  0.28336265441E+02  0.25557414092E+03  0.15061787635E+03  0.30898581606E+03  0.81641927982E+02 0.  0.
        254    2    1    2    0    0 -0.28336265441E+02 -0.25557414092E+03 -0.23866636622E+03  0.96482932611E+03  0.89878412798E+03 0.  0.
         23    2    4    4    0    0  0.17514913643E+03 -0.29738810378E+03 -0.50311261392E+03  0.61709625852E+03  0.92566655613E+02 0.  0.
         23    2    4    4    0    0 -0.20348540187E+03  0.41813962863E+02  0.26444624770E+03  0.34773306759E+03  0.88497187023E+02 0.  0.
          3    1    3    3  502    0  0.23120825025E+02  0.13085090533E+03  0.12314489181E+03  0.18116621195E+03  0.00000000000E+00 0. -1.
         -4    1    3    3    0  502  0.52154404162E+01  0.12472323559E+03  0.27472984547E+02  0.12781960411E+03  0.00000000000E+00 0.  1.
         13    1    5    5    0    0  0.93872445602E+02 -0.99296342216E+02 -0.14052971340E+03  0.19601122409E+03  0.00000000000E+00 0. -1.
        -13    1    5    5    0    0  0.81276690826E+02 -0.19809176156E+03 -0.36258290052E+03  0.42108503443E+03  0.00000000000E+00 0.  1.
          2    1    6    6  503    0 -0.12763379943E+03  0.42058378194E+02  0.10286954632E+03  0.16923781343E+03  0.00000000000E+00 0. -1.
         -2    1    6    6    0  503 -0.75851602440E+02 -0.24441533048E+00  0.16157670138E+03  0.17849525417E+03  0.00000000000E+00 0.  1.
<mgrwt>
<rscale>  0 0.12707685E+04</rscale>
<asrwt>0</asrwt>
<pdfrwt beam="1">  1        1 0.91212819E-01 0.12707685E+04</pdfrwt>
<pdfrwt beam="2">  1       -2 0.10475874E+00 0.12707685E+04</pdfrwt>
<totfact> 0.22193127E+01</totfact>
</mgrwt>
</event>
<event>
12    5  0.5197392E-008  0.1464240E+04  0.7818608E-02  0.8908587E-01
          1   -1    0    0  501    0  0.00000000000E+00  0.00000000000E+00  0.95446277965E+03  0.95446277965E+03  0.00000000000E+00 0. -1.
         -2   -1    0    0    0  501 -0.00000000000E+00 -0.00000000000E+00 -0.56157232394E+03  0.56157232394E+03  0.00000000000E+00 0.  1.
        -24    2    1    2    0    0 -0.96359211344E+02  0.29665429867E+03  0.46194631986E+03  0.56318767158E+03  0.80604469172E+02 0.  0.
        254    2    1    2    0    0  0.96359211344E+02 -0.29665429867E+03 -0.69055864155E+02  0.95284743201E+03  0.89769741327E+03 0.  0.
         23    2    4    4    0    0  0.19084257698E+03  0.13876024349E+03 -0.33960977167E+03  0.42350224012E+03  0.91345804582E+02 0.  0.
         23    2    4    4    0    0 -0.94483365632E+02 -0.43541454216E+03  0.27055390751E+03  0.52934519189E+03  0.92162820057E+02 0.  0.
          3    1    3    3  502    0 -0.62800998911E+02  0.24195328176E+03  0.41185663565E+03  0.48177924857E+03  0.00000000000E+00 0. -1.
         -4    1    3    3    0  502 -0.33558212433E+02  0.54701016911E+02  0.50089684213E+02  0.81408423012E+02  0.00000000000E+00 0.  1.
         13    1    5    5    0    0  0.87023177984E+02  0.67772124148E+02 -0.84058980639E+02  0.13867951018E+03  0.00000000000E+00 0. -1.
        -13    1    5    5    0    0  0.10381939899E+03  0.70988119341E+02 -0.25555079103E+03  0.28482272994E+03  0.00000000000E+00 0.  1.
          2    1    6    6  503    0 -0.86884181668E+02 -0.29223247445E+03  0.14020730874E+03  0.33556932156E+03  0.00000000000E+00 0. -1.
         -2    1    6    6    0  503 -0.75991839642E+01 -0.14318206771E+03  0.13034659878E+03  0.19377587033E+03  0.00000000000E+00 0.  1.
<mgrwt>
<rscale>  0 0.14642403E+04</rscale>
<asrwt>0</asrwt>
<pdfrwt beam="1">  1        1 0.14684043E+00 0.14642403E+04</pdfrwt>
<pdfrwt beam="2">  1       -2 0.86395742E-01 0.14642403E+04</pdfrwt>
<totfact> 0.16229646E+01</totfact>
</mgrwt>
</event>
<event>
12    5  0.5197392E-008  0.1469985E+04  0.7818608E-02  0.8904661E-01
         -2   -1    0    0    0  501 -0.00000000000E+00  0.00000000000E+00  0.27781504447E+03  0.27781504447E+03  0.00000000000E+00 0.  1.
          1   -1    0    0  501    0  0.00000000000E+00 -0.00000000000E+00 -0.19445103517E+04  0.19445103517E+04  0.00000000000E+00 0. -1.
        -24    2    1    2    0    0 -0.21015221804E+02 -0.23837095111E+03  0.61243254645E+02  0.25938913557E+03  0.79181042772E+02 0.  0.
        254    2    1    2    0    0  0.21015221804E+02  0.23837095111E+03 -0.17279385618E+04  0.19629362605E+04  0.90004707635E+03 0.  0.
         23    2    4    4    0    0  0.25969250270E+03  0.45200682371E+03 -0.67091278055E+03  0.85469035195E+03  0.92850815671E+02 0.  0.
         23    2    4    4    0    0 -0.23867728089E+03 -0.21363587261E+03 -0.10570257813E+04  0.11082459086E+04  0.91095341027E+02 0.  0.
          1    1    3    3  502    0  0.18043589757E+02 -0.12515335355E+03  0.36619225983E+01  0.12650036646E+03  0.00000000000E+00 0. -1.
         -2    1    3    3    0  502 -0.39058811562E+02 -0.11321759755E+03  0.57581332046E+02  0.13288876911E+03  0.00000000000E+00 0.  1.
         13    1    5    5    0    0  0.24381123679E+03  0.35282171162E+03 -0.55232233006E+03  0.69927607971E+03  0.00000000000E+00 0. -1.
        -13    1    5    5    0    0  0.15881265910E+02  0.99185112095E+02 -0.11859045049E+03  0.15541427224E+03  0.00000000000E+00 0.  1.
          2    1    6    6  503    0 -0.79343625195E+02 -0.21544676762E+02 -0.22266831317E+03  0.23736208974E+03  0.00000000000E+00 0.  1.
         -2    1    6    6    0  503 -0.15933365570E+03 -0.19209119584E+03 -0.83435746811E+03  0.87088381886E+03  0.00000000000E+00 0. -1.
<mgrwt>
<rscale>  0 0.14699853E+04</rscale>
<asrwt>0</asrwt>
<pdfrwt beam="1">  1        1 0.29915543E+00 0.14699853E+04</pdfrwt>
<pdfrwt beam="2">  1       -2 0.42740777E-01 0.14699853E+04</pdfrwt>
<totfact> 0.14365232E+01</totfact>
</mgrwt>
</event>
<event>
12    5  0.5197392E-008  0.1310602E+04  0.7818608E-02  0.9021200E-01
          1   -1    0    0  501    0  0.00000000000E+00  0.00000000000E+00  0.14667979788E+04  0.14667979788E+04  0.00000000000E+00 0. -1.
         -2   -1    0    0    0  501 -0.00000000000E+00 -0.00000000000E+00 -0.29275962010E+03  0.29275962010E+03  0.00000000000E+00 0.  1.
        -24    2    1    2    0    0  0.17773043714E+03  0.24440267198E+03  0.11279179349E+03  0.33270977736E+03  0.81566126035E+02 0.  0.
        254    2    1    2    0    0 -0.17773043714E+03 -0.24440267198E+03  0.10612465652E+04  0.14268478215E+04  0.90461575229E+03 0.  0.
         23    2    4    4    0    0  0.50565399736E+02 -0.41779319115E+03  0.13162857690E+03  0.44978706080E+03  0.88737295373E+02 0.  0.
         23    2    4    4    0    0 -0.22829583688E+03  0.17339051917E+03  0.92961798828E+03  0.97706076071E+03  0.90966283385E+02 0.  0.
          1    1    3    3  502    0  0.49219111403E+02  0.17569093152E+02  0.16887151081E+02  0.54921487900E+02  0.00000000000E+00 0. -1.
         -2    1    3    3    0  502  0.12851132574E+03  0.22683357883E+03  0.95904642407E+02  0.27778828946E+03  0.00000000000E+00 0.  1.
         13    1    5    5    0    0 -0.24400663436E+02 -0.15139119019E+03  0.47563022677E+02  0.16055194166E+03  0.00000000000E+00 0.  1.
        -13    1    5    5    0    0  0.74966063173E+02 -0.26640200096E+03  0.84065554222E+02  0.28923511915E+03  0.00000000000E+00 0. -1.
          3    1    6    6  503    0 -0.23056360985E+03  0.17431102821E+03  0.93057717890E+03  0.97443203900E+03  0.00000000000E+00 0. -1.
         -3    1    6    6    0  503  0.22677729677E+01 -0.92050903939E+00 -0.95919062881E+00  0.26287217021E+01  0.00000000000E+00 0.  1.
<mgrwt>
<rscale>  0 0.13106017E+04</rscale>
<asrwt>0</asrwt>
<pdfrwt beam="1">  1        1 0.22566122E+00 0.13106017E+04</pdfrwt>
<pdfrwt beam="2">  1       -2 0.45039942E-01 0.13106017E+04</pdfrwt>
<totfact> 0.27778830E+01</totfact>
</mgrwt>
</event>
<event>
12    5  0.5197392E-008  0.1923601E+04  0.7818608E-02  0.8643197E-01
          1   -1    0    0  501    0  0.00000000000E+00  0.00000000000E+00  0.21896433105E+04  0.21896433105E+04  0.00000000000E+00 0. -1.
         -2   -1    0    0    0  501 -0.00000000000E+00 -0.00000000000E+00 -0.42247057420E+03  0.42247057420E+03  0.00000000000E+00 0.  1.
        -24    2    1    2    0    0 -0.33292940742E+02  0.58278790427E+03  0.13129657378E+04  0.14390808356E+04  0.79526482442E+02 0.  0.
        254    2    1    2    0    0  0.33292940742E+02 -0.58278790427E+03  0.45420699847E+03  0.11730330491E+04  0.91046821776E+03 0.  0.
         23    2    4    4    0    0 -0.37571549528E+03 -0.21081565138E+03 -0.17758872634E+02  0.44036221169E+03  0.89432251825E+02 0.  0.
         23    2    4    4    0    0  0.40900843602E+03 -0.37197225290E+03  0.47196587111E+03  0.73267083741E+03  0.91670686899E+02 0.  0.
          1    1    3    3  502    0 -0.39644898853E+02  0.47930008816E+03  0.11419085067E+04  0.12390542079E+04  0.00000000000E+00 0. -1.
         -2    1    3    3    0  502  0.63519581106E+01  0.10348781612E+03  0.17105723113E+03  0.20002662767E+03  0.00000000000E+00 0.  1.
         13    1    5    5    0    0 -0.14599011008E+03 -0.10713690874E+03  0.30812803829E+02  0.18368684857E+03  0.00000000000E+00 0.  1.
        -13    1    5    5    0    0 -0.22972538520E+03 -0.10367874263E+03 -0.48571676464E+02  0.25667536312E+03  0.00000000000E+00 0. -1.
          1    1    6    6  503    0  0.26587652555E+03 -0.28860237383E+03  0.36177452515E+03  0.53372508285E+03  0.00000000000E+00 0. -1.
         -1    1    6    6    0  503  0.14313191048E+03 -0.83369879066E+02  0.11019134595E+03  0.19894575455E+03  0.00000000000E+00 0.  1.
<mgrwt>
<rscale>  0 0.19236007E+04</rscale>
<asrwt>0</asrwt>
<pdfrwt beam="1">  1        1 0.33686820E+00 0.19236007E+04</pdfrwt>
<pdfrwt beam="2">  1       -2 0.64995474E-01 0.19236007E+04</pdfrwt>
<totfact> 0.39656048E+00</totfact>
</mgrwt>
</event>
<event>
12    5  0.5197392E-008  0.2453315E+04  0.7818608E-02  0.8419809E-01
         -2   -1    0    0    0  501 -0.00000000000E+00  0.00000000000E+00  0.52477012561E+03  0.52477012561E+03  0.00000000000E+00 0.  1.
          1   -1    0    0  501    0  0.00000000000E+00 -0.00000000000E+00 -0.28673287362E+04  0.28673287362E+04  0.00000000000E+00 0. -1.
        -24    2    1    2    0    0 -0.24029395656E+03 -0.75196949766E+03 -0.50441655389E+02  0.79553459426E+03  0.84448914087E+02 0.  0.
        254    2    1    2    0    0  0.24029395656E+03  0.75196949766E+03 -0.22921169552E+04  0.25965642675E+04  0.93013254333E+03 0.  0.
         23    2    4    4    0    0  0.21137452568E+03  0.76527864365E+03 -0.90915508808E+03  0.12104148510E+04  0.90612056679E+02 0.  0.
         23    2    4    4    0    0  0.28919430887E+02 -0.13309145986E+02 -0.13829618671E+04  0.13861494165E+04  0.88392376408E+02 0.  0.
          1    1    3    3  502    0 -0.90104653585E+01 -0.13027199974E+03 -0.59220161301E+01  0.13071745361E+03  0.00000000000E+00 0. -1.
         -2    1    3    3    0  502 -0.23128349121E+03 -0.62169749792E+03 -0.44519639259E+02  0.66481714065E+03  0.00000000000E+00 0.  1.
         13    1    5    5    0    0  0.78576381845E+01  0.14957788857E+01 -0.48581021827E+01  0.93584715169E+01  0.00000000000E+00 0. -1.
        -13    1    5    5    0    0  0.20351688749E+03  0.76378286476E+03 -0.90429698590E+03  0.12010563795E+04  0.00000000000E+00 0.  1.
          3    1    6    6  503    0  0.22568937105E+01 -0.18689595902E+01 -0.47433447818E-01  0.29306704186E+01  0.00000000000E+00 0. -1.
         -3    1    6    6    0  503  0.26662537177E+02 -0.11440186395E+02 -0.13829144337E+04  0.13832187461E+04  0.00000000000E+00 0.  1.
<mgrwt>
<rscale>  0 0.24533149E+04</rscale>
<asrwt>0</asrwt>
<pdfrwt beam="1">  1        1 0.44112751E+00 0.24533149E+04</pdfrwt>
<pdfrwt beam="2">  1       -2 0.80733863E-01 0.24533149E+04</pdfrwt>
<totfact> 0.79202879E-01</totfact>
</mgrwt>
</event>
<event>
12    5  0.5197392E-008  0.1490305E+04  0.7818608E-02  0.8890926E-01
          1   -1    0    0  501    0  0.00000000000E+00  0.00000000000E+00  0.11013975215E+04  0.11013975215E+04  0.00000000000E+00 0. -1.
         -2   -1    0    0    0  501 -0.00000000000E+00 -0.00000000000E+00 -0.50413433034E+03  0.50413433034E+03  0.00000000000E+00 0.  1.
        -24    2    1    2    0    0 -0.16688106917E+03  0.97656768763E+02  0.65447741241E+03  0.68699729713E+03  0.78983967856E+02 0.  0.
        254    2    1    2    0    0  0.16688106917E+03 -0.97656768763E+02 -0.57214221285E+02  0.91853455468E+03  0.89612840893E+03 0.  0.
         23    2    4    4    0    0  0.41924857781E+03  0.15015711398E+03  0.17241750578E+03  0.48608069204E+03  0.90719975746E+02 0.  0.
         23    2    4    4    0    0 -0.25236750864E+03 -0.24781388274E+03 -0.22963172707E+03  0.43245386264E+03  0.95835971030E+02 0.  0.
          3    1    3    3  502    0 -0.13293247534E+03  0.62279857114E+02  0.57641180785E+03  0.59481122705E+03  0.00000000000E+00 0. -1.
         -4    1    3    3    0  502 -0.33948593826E+02  0.35376911649E+02  0.78065604562E+02  0.92186070077E+02  0.00000000000E+00 0.  1.
         13    1    5    5    0    0  0.22674426719E+03  0.10597630555E+03  0.13730061073E+03  0.28547398787E+03  0.00000000000E+00 0. -1.
        -13    1    5    5    0    0  0.19250431062E+03  0.44180808424E+02  0.35116895048E+02  0.20060670417E+03  0.00000000000E+00 0.  1.
          3    1    6    6  503    0 -0.32055105200E+02 -0.51104683519E+02 -0.83273933960E+02  0.10282882147E+03  0.00000000000E+00 0. -1.
         -3    1    6    6    0  503 -0.22031240344E+03 -0.19670919922E+03 -0.14635779311E+03  0.32962504118E+03  0.00000000000E+00 0.  1.
<mgrwt>
<rscale>  0 0.14903051E+04</rscale>
<asrwt>0</asrwt>
<pdfrwt beam="1">  1        1 0.16944577E+00 0.14903051E+04</pdfrwt>
<pdfrwt beam="2">  1       -2 0.77559128E-01 0.14903051E+04</pdfrwt>
<totfact> 0.15910841E+01</totfact>
</mgrwt>
</event>
<event>
12    5  0.5197392E-008  0.2820947E+04  0.7818608E-02  0.8296795E-01
         -2   -1    0    0    0  501 -0.00000000000E+00  0.00000000000E+00  0.16387102820E+04  0.16387102820E+04  0.00000000000E+00 0.  1.
          1   -1    0    0  501    0  0.00000000000E+00 -0.00000000000E+00 -0.12140247256E+04  0.12140247256E+04  0.00000000000E+00 0. -1.
        -24    2    1    2    0    0  0.48747874308E+03 -0.66207999688E+03 -0.77573605498E+03  0.11333706993E+04  0.82324162719E+02 0.  0.
        254    2    1    2    0    0 -0.48747874308E+03  0.66207999688E+03  0.12004216114E+04  0.17193643082E+04  0.91608740417E+03 0.  0.
         23    2    4    4    0    0 -0.20087073825E+03  0.52048646994E+03  0.10578372056E+03  0.57526229143E+03  0.92093916940E+02 0.  0.
         23    2    4    4    0    0 -0.28660800483E+03  0.14159352695E+03  0.10946378908E+04  0.11441020168E+04  0.92436126541E+02 0.  0.
          3    1    3    3  502    0  0.31772647866E+03 -0.48368406483E+03 -0.51419266576E+03  0.77414112882E+03  0.00000000000E+00 0. -1.
         -4    1    3    3    0  502  0.16975226442E+03 -0.17839593206E+03 -0.26154338922E+03  0.35922957046E+03  0.00000000000E+00 0.  1.
         13    1    5    5    0    0 -0.17798965748E+03  0.51013803450E+03  0.10253660466E+03  0.54994080383E+03  0.00000000000E+00 0. -1.
        -13    1    5    5    0    0 -0.22881080765E+02  0.10348435432E+02  0.32471159003E+01  0.25321487605E+02  0.00000000000E+00 0.  1.
          3    1    6    6  503    0 -0.12971333388E+03  0.24383870267E+02  0.54027860608E+03  0.55616642680E+03  0.00000000000E+00 0. -1.
         -3    1    6    6    0  503 -0.15689467095E+03  0.11720965668E+03  0.55435928475E+03  0.58793558999E+03  0.00000000000E+00 0.  1.
<mgrwt>
<rscale>  0 0.28209465E+04</rscale>
<asrwt>0</asrwt>
<pdfrwt beam="1">  1        1 0.18677303E+00 0.28209465E+04</pdfrwt>
<pdfrwt beam="2">  1       -2 0.25210927E+00 0.28209465E+04</pdfrwt>
<totfact> 0.49369480E-01</totfact>
</mgrwt>
</event>
<event>
12    5  0.5197392E-008  0.1903281E+04  0.7818608E-02  0.8653225E-01
         -2   -1    0    0    0  501 -0.00000000000E+00  0.00000000000E+00  0.39140302822E+03  0.39140302822E+03  0.00000000000E+00 0.  1.
          1   -1    0    0  501    0  0.00000000000E+00 -0.00000000000E+00 -0.23137777316E+04  0.23137777316E+04  0.00000000000E+00 0. -1.
        -24    2    1    2    0    0 -0.28531151153E+03  0.37956659466E+03  0.53143208019E+02  0.48435673753E+03  0.79396412020E+02 0.  0.
        254    2    1    2    0    0  0.28531151153E+03 -0.37956659466E+03 -0.19755179114E+04  0.22208240222E+04  0.89661299415E+03 0.  0.
         23    2    4    4    0    0 -0.25178953265E+03 -0.38648398110E+03 -0.89918842335E+03  0.10146004676E+04  0.90035836117E+02 0.  0.
         23    2    4    4    0    0  0.53710104418E+03  0.69173864362E+01 -0.10763294880E+04  0.12062235546E+04  0.89245252561E+02 0.  0.
          1    1    3    3  502    0 -0.10750805371E+02  0.24124426831E+01 -0.83357503229E+01  0.13816093126E+02  0.00000000000E+00 0. -1.
         -2    1    3    3    0  502 -0.27456070616E+03  0.37715415198E+03  0.61478958342E+02  0.47054064441E+03  0.00000000000E+00 0.  1.
         13    1    5    5    0    0 -0.76386808738E+02 -0.56498051254E+02 -0.21353064288E+03  0.23371416259E+03  0.00000000000E+00 0.  1.
        -13    1    5    5    0    0 -0.17540272392E+03 -0.32998592984E+03 -0.68565778047E+03  0.78088630502E+03  0.00000000000E+00 0. -1.
          2    1    6    6  503    0  0.46419379088E+03  0.15107178103E+02 -0.98557188187E+03  0.10895210125E+04  0.00000000000E+00 0. -1.
         -2    1    6    6    0  503  0.72907253300E+02 -0.81897916669E+01 -0.90757606135E+02  0.11670254214E+03  0.00000000000E+00 0.  1.
<mgrwt>
<rscale>  0 0.19032810E+04</rscale>
<asrwt>0</asrwt>
<pdfrwt beam="1">  1        1 0.35596580E+00 0.19032810E+04</pdfrwt>
<pdfrwt beam="2">  1       -2 0.60215851E-01 0.19032810E+04</pdfrwt>
<totfact> 0.38469049E+00</totfact>
</mgrwt>
</event>
<event>
12    5  0.5197392E-008  0.1534097E+04  0.7818608E-02  0.8862090E-01
         -2   -1    0    0    0  501 -0.00000000000E+00  0.00000000000E+00  0.79586751815E+03  0.79586751815E+03  0.00000000000E+00 0.  1.
          1   -1    0    0  501    0  0.00000000000E+00 -0.00000000000E+00 -0.73927266225E+03  0.73927266225E+03  0.00000000000E+00 0. -1.
        -24    2    1    2    0    0 -0.31453280493E+03 -0.45081218502E+02 -0.36302748963E+03  0.48905733554E+03  0.80155583580E+02 0.  0.
        254    2    1    2    0    0  0.31453280493E+03  0.45081218502E+02  0.41962234553E+03  0.10460828449E+04  0.90401504622E+03 0.  0.
         23    2    4    4    0    0  0.77517797121E+02  0.43265805805E+03  0.36798986702E+03  0.58048253996E+03  0.91331445294E+02 0.  0.
         23    2    4    4    0    0  0.23701500781E+03 -0.38757683955E+03  0.51632478510E+02  0.46560030489E+03  0.87896590351E+02 0.  0.
          3    1    3    3  502    0 -0.13843951413E+03 -0.86489652215E+01 -0.21636443386E+03  0.25700947826E+03  0.00000000000E+00 0. -1.
         -4    1    3    3    0  502 -0.17609329080E+03 -0.36432253280E+02 -0.14666305577E+03  0.23204785728E+03  0.00000000000E+00 0.  1.
         13    1    5    5    0    0 -0.14994617727E+02  0.49148893806E+02  0.66066769391E+02  0.83697493039E+02  0.00000000000E+00 0.  1.
        -13    1    5    5    0    0  0.92512414848E+02  0.38350916425E+03  0.30192309763E+03  0.49678504692E+03  0.00000000000E+00 0. -1.
          4    1    6    6  503    0  0.21437807747E+03 -0.32768806219E+03  0.15073131589E+02  0.39187322631E+03  0.00000000000E+00 0. -1.
         -4    1    6    6    0  503  0.22636930333E+02 -0.59888777362E+02  0.36559346921E+02  0.73727078581E+02  0.00000000000E+00 0.  1.
<mgrwt>
<rscale>  0 0.15340966E+04</rscale>
<asrwt>0</asrwt>
<pdfrwt beam="1">  1        1 0.11373426E+00 0.15340966E+04</pdfrwt>
<pdfrwt beam="2">  1       -2 0.12244116E+00 0.15340966E+04</pdfrwt>
<totfact> 0.10684518E+01</totfact>
</mgrwt>
</event>
<event>
12    5  0.5197392E-008  0.3832643E+04  0.7818608E-02  0.8039186E-01
          1   -1    0    0  501    0  0.00000000000E+00  0.00000000000E+00  0.16318034497E+04  0.16318034497E+04  0.00000000000E+00 0. -1.
         -2   -1    0    0    0  501 -0.00000000000E+00 -0.00000000000E+00 -0.22504478275E+04  0.22504478275E+04  0.00000000000E+00 0.  1.
        -24    2    1    2    0    0 -0.11873282135E+03  0.54770467922E+03  0.14506474476E+04  0.15571668507E+04  0.79452408141E+02 0.  0.
        254    2    1    2    0    0  0.11873282135E+03 -0.54770467922E+03 -0.20692918255E+04  0.23250844264E+04  0.89998390683E+03 0.  0.
         23    2    4    4    0    0  0.18791205233E+03  0.16081942334E+03 -0.10215926614E+04  0.10550894355E+04  0.91587798020E+02 0.  0.
         23    2    4    4    0    0 -0.69179230975E+02 -0.70852410257E+03 -0.10476991640E+04  0.12699949909E+04  0.91769105160E+02 0.  0.
          3    1    3    3  502    0 -0.67272727832E+02  0.45540663558E+03  0.11766599935E+04  0.12635068515E+04  0.00000000000E+00 0. -1.
         -4    1    3    3    0  502 -0.51460093520E+02  0.92298043644E+02  0.27398745416E+03  0.29365999919E+03  0.00000000000E+00 0.  1.
         13    1    5    5    0    0  0.28354112860E+02  0.20839474838E+02 -0.32438258243E+03  0.32628560987E+03  0.00000000000E+00 0.  1.
        -13    1    5    5    0    0  0.15955793947E+03  0.13997994851E+03 -0.69721007899E+03  0.72880382565E+03  0.00000000000E+00 0. -1.
          4    1    6    6  503    0 -0.53798893546E+02 -0.33695521613E+03 -0.57389685063E+03  0.66767562019E+03  0.00000000000E+00 0. -1.
         -4    1    6    6    0  503 -0.15380337429E+02 -0.37156888643E+03 -0.47380231342E+03  0.60231937072E+03  0.00000000000E+00 0.  1.
<mgrwt>
<rscale>  0 0.38326432E+04</rscale>
<asrwt>0</asrwt>
<pdfrwt beam="1">  1        1 0.25104669E+00 0.38326432E+04</pdfrwt>
<pdfrwt beam="2">  1       -2 0.34622274E+00 0.38326432E+04</pdfrwt>
<totfact> 0.60765279E-02</totfact>
</mgrwt>
</event>
<event>
12    5  0.5197392E-008  0.1419838E+04  0.7818608E-02  0.8939583E-01
          1   -1    0    0  501    0  0.00000000000E+00  0.00000000000E+00  0.10428021079E+04  0.10428021079E+04  0.00000000000E+00 0. -1.
         -2   -1    0    0    0  501 -0.00000000000E+00 -0.00000000000E+00 -0.48329863328E+03  0.48329863328E+03  0.00000000000E+00 0.  1.
        -24    2    1    2    0    0  0.22771844548E+03  0.22768499092E+03 -0.12462102366E+03  0.35457041204E+03  0.80583075463E+02 0.  0.
        254    2    1    2    0    0 -0.22771844548E+03 -0.22768499092E+03  0.68412449825E+03  0.11715303291E+04  0.89485241095E+03 0.  0.
         23    2    4    4    0    0 -0.48382664002E+03 -0.64848870306E+02  0.69502914319E+03  0.85392486856E+03  0.88479250064E+02 0.  0.
         23    2    4    4    0    0  0.25610819454E+03 -0.16283612062E+03 -0.10904644939E+02  0.31760546054E+03  0.92990901687E+02 0.  0.
          3    1    3    3  502    0  0.10302614448E+03  0.53646134519E+02 -0.26924692277E+02  0.11923604006E+03  0.00000000000E+00 0. -1.
         -4    1    3    3    0  502  0.12469230100E+03  0.17403885641E+03 -0.97696331388E+02  0.23533437198E+03  0.00000000000E+00 0.  1.
         13    1    5    5    0    0 -0.43646312659E+03 -0.50622934626E+02  0.57165220771E+03  0.72100554017E+03  0.00000000000E+00 0.  1.
        -13    1    5    5    0    0 -0.47363513428E+02 -0.14225935680E+02  0.12337693548E+03  0.13291932838E+03  0.00000000000E+00 0. -1.
          1    1    6    6  503    0  0.16472964540E+02  0.12083428926E+02  0.27092410840E+01  0.20608440082E+02  0.00000000000E+00 0. -1.
         -1    1    6    6    0  503  0.23963522999E+03 -0.17491954954E+03 -0.13613886023E+02  0.29699702046E+03  0.00000000000E+00 0.  1.
<mgrwt>
<rscale>  0 0.14198378E+04</rscale>
<asrwt>0</asrwt>
<pdfrwt beam="1">  1        1 0.16043109E+00 0.14198378E+04</pdfrwt>
<pdfrwt beam="2">  1       -2 0.74353636E-01 0.14198378E+04</pdfrwt>
<totfact> 0.19475741E+01</totfact>
</mgrwt>
</event>
<event>
12    5  0.5197392E-008  0.2231657E+04  0.7818608E-02  0.8505366E-01
          1   -1    0    0  501    0  0.00000000000E+00  0.00000000000E+00  0.15765614474E+04  0.15765614474E+04  0.00000000000E+00 0. -1.
         -2   -1    0    0    0  501 -0.00000000000E+00 -0.00000000000E+00 -0.78973990072E+03  0.78973990072E+03  0.00000000000E+00 0.  1.
        -24    2    1    2    0    0 -0.52666513920E+03 -0.13473850116E+02 -0.48630001179E+03  0.72152669717E+03  0.80965176294E+02 0.  0.
        254    2    1    2    0    0  0.52666513920E+03  0.13473850116E+02  0.12731215585E+04  0.16447746510E+04  0.89826913356E+03 0.  0.
         23    2    4    4    0    0  0.25379246210E+03 -0.42562934447E+03  0.49704126763E+03  0.70774772597E+03  0.91026749927E+02 0.  0.
         23    2    4    4    0    0  0.27287267709E+03  0.43910319458E+03  0.77608029086E+03  0.93702692500E+03  0.91911516774E+02 0.  0.
          3    1    3    3  502    0 -0.93578077117E+02 -0.31096692090E+02 -0.73779891146E+02  0.12315572708E+03  0.00000000000E+00 0. -1.
         -4    1    3    3    0  502 -0.43308706208E+03  0.17622841975E+02 -0.41252012064E+03  0.59837097008E+03  0.00000000000E+00 0.  1.
         13    1    5    5    0    0  0.79092357518E+02 -0.14177379082E+03  0.22534147297E+03  0.27773042365E+03  0.00000000000E+00 0. -1.
        -13    1    5    5    0    0  0.17470010459E+03 -0.28385555364E+03  0.27169979465E+03  0.43001730232E+03  0.00000000000E+00 0.  1.
          1    1    6    6  503    0  0.15593808343E+03  0.17673323299E+03  0.39222259537E+03  0.45759139614E+03  0.00000000000E+00 0.  1.
         -1    1    6    6    0  503  0.11693459367E+03  0.26236996159E+03  0.38385769549E+03  0.47943552886E+03  0.00000000000E+00 0. -1.
<mgrwt>
<rscale>  0 0.22316572E+04</rscale>
<asrwt>0</asrwt>
<pdfrwt beam="1">  1        1 0.24254792E+00 0.22316572E+04</pdfrwt>
<pdfrwt beam="2">  1       -2 0.12149845E+00 0.22316572E+04</pdfrwt>
<totfact> 0.23802538E+00</totfact>
</mgrwt>
</event>
<event>
12    5  0.5197392E-008  0.1529692E+04  0.7818608E-02  0.8864945E-01
          1   -1    0    0  501    0  0.00000000000E+00  0.00000000000E+00  0.76427327744E+03  0.76427327744E+03  0.00000000000E+00 0. -1.
         -2   -1    0    0    0  501 -0.00000000000E+00 -0.00000000000E+00 -0.76541926415E+03  0.76541926415E+03  0.00000000000E+00 0.  1.
        -24    2    1    2    0    0 -0.10187851807E+02  0.46583211989E+03  0.17947990208E+03  0.50580135365E+03  0.80737957978E+02 0.  0.
        254    2    1    2    0    0  0.10187851807E+02 -0.46583211989E+03 -0.18062588879E+03  0.10238911879E+04  0.89365770673E+03 0.  0.
         23    2    4    4    0    0 -0.83207512674E+02 -0.72722310102E+02 -0.48793040717E+03  0.50839918999E+03  0.90452360899E+02 0.  0.
         23    2    4    4    0    0  0.93395364481E+02 -0.39310980979E+03  0.30730451838E+03  0.51549199795E+03  0.89654426992E+02 0.  0.
          1    1    3    3  502    0 -0.23645760759E+01  0.43029143028E+03  0.14093212208E+03  0.45278932102E+03  0.00000000000E+00 0. -1.
         -2    1    3    3    0  502 -0.78232757307E+01  0.35540689614E+02  0.38547780002E+02  0.53012032638E+02  0.00000000000E+00 0.  1.
         13    1    5    5    0    0 -0.37299661596E+02 -0.67509333344E+02 -0.16448238805E+03  0.18166791357E+03  0.00000000000E+00 0. -1.
        -13    1    5    5    0    0 -0.45907851078E+02 -0.52129767583E+01 -0.32344801912E+03  0.32673127642E+03  0.00000000000E+00 0.  1.
          4    1    6    6  503    0  0.18354087990E+01 -0.75420553531E+02  0.21455720266E+02  0.78434536732E+02  0.00000000000E+00 0. -1.
         -4    1    6    6    0  503  0.91559955682E+02 -0.31768925626E+03  0.28584879811E+03  0.43705746122E+03  0.00000000000E+00 0.  1.
<mgrwt>
<rscale>  0 0.15296921E+04</rscale>
<asrwt>0</asrwt>
<pdfrwt beam="1">  1        1 0.11758050E+00 0.15296921E+04</pdfrwt>
<pdfrwt beam="2">  1       -2 0.11775681E+00 0.15296921E+04</pdfrwt>
<totfact> 0.11181194E+01</totfact>
</mgrwt>
</event>
<event>
12    5  0.5197392E-008  0.1520521E+04  0.7818608E-02  0.8870920E-01
          1   -1    0    0  501    0  0.00000000000E+00  0.00000000000E+00  0.62152770599E+03  0.62152770599E+03  0.00000000000E+00 0. -1.
         -2   -1    0    0    0  501 -0.00000000000E+00 -0.00000000000E+00 -0.92996001451E+03  0.92996001451E+03  0.00000000000E+00 0.  1.
        -24    2    1    2    0    0 -0.32449538339E+03  0.34055558209E+03  0.54190200987E+02  0.48009871854E+03  0.79264388767E+02 0.  0.
        254    2    1    2    0    0  0.32449538339E+03 -0.34055558209E+03 -0.36262250951E+03  0.10713890020E+04  0.89168601581E+03 0.  0.
         23    2    4    4    0    0  0.43434608696E+03  0.49430187016E+02  0.91426667738E+02  0.45570086823E+03  0.90579131586E+02 0.  0.
         23    2    4    4    0    0 -0.10985070358E+03 -0.38998576911E+03 -0.45404917725E+03  0.61568813373E+03  0.93568934361E+02 0.  0.
          1    1    3    3  502    0 -0.25038100773E+03  0.27123171030E+03  0.74576643177E+02  0.37658858906E+03  0.00000000000E+00 0. -1.
         -2    1    3    3    0  502 -0.74114375660E+02  0.69323871794E+02 -0.20386442190E+02  0.10351012948E+03  0.00000000000E+00 0.  1.
         13    1    5    5    0    0  0.87677434916E+01 -0.52459012529E+01 -0.10535633489E+02  0.14676252209E+02  0.00000000000E+00 0. -1.
        -13    1    5    5    0    0  0.42557834347E+03  0.54676088269E+02  0.10196230123E+03  0.44102461602E+03  0.00000000000E+00 0.  1.
          3    1    6    6  503    0 -0.29938269680E+02 -0.22347844715E+03 -0.19861152124E+03  0.30047537786E+03  0.00000000000E+00 0. -1.
         -3    1    6    6    0  503 -0.79912433897E+02 -0.16650732196E+03 -0.25543765601E+03  0.31521275587E+03  0.00000000000E+00 0.  1.
<mgrwt>
<rscale>  0 0.15205209E+04</rscale>
<asrwt>0</asrwt>
<pdfrwt beam="1">  1        1 0.95619647E-01 0.15205209E+04</pdfrwt>
<pdfrwt beam="2">  1       -2 0.14307077E+00 0.15205209E+04</pdfrwt>
<totfact> 0.93279981E+00</totfact>
</mgrwt>
</event>
<event>
12    5  0.5197392E-008  0.1252699E+04  0.7818608E-02  0.9067940E-01
          1   -1    0    0  501    0  0.00000000000E+00  0.00000000000E+00  0.36617747666E+03  0.36617747666E+03  0.00000000000E+00 0. -1.
         -2   -1    0    0    0  501 -0.00000000000E+00 -0.00000000000E+00 -0.10713756108E+04  0.10713756108E+04  0.00000000000E+00 0.  1.
        -24    2    1    2    0    0  0.39182243288E+02  0.61135938261E+01  0.16753048110E+03  0.18971106579E+03  0.79694429979E+02 0.  0.
        254    2    1    2    0    0 -0.39182243288E+02 -0.61135938261E+01 -0.87272861522E+03  0.12478420216E+04  0.89100047753E+03 0.  0.
         23    2    4    4    0    0  0.70979280161E+02  0.40360951021E+03 -0.24912943565E+03  0.48814330662E+03  0.90992951057E+02 0.  0.
         23    2    4    4    0    0 -0.11016152345E+03 -0.40972310404E+03 -0.62359917957E+03  0.75969871503E+03  0.90871434592E+02 0.  0.
          3    1    3    3  502    0  0.31614214027E+02 -0.34442662887E+02  0.10308193670E+03  0.11318852075E+03  0.00000000000E+00 0. -1.
         -4    1    3    3    0  502  0.75680292611E+01  0.40556256713E+02  0.64448544394E+02  0.76522545044E+02  0.00000000000E+00 0.  1.
         13    1    5    5    0    0  0.85551222860E+02  0.24507084138E+03 -0.13790557605E+03  0.29393311643E+03  0.00000000000E+00 0. -1.
        -13    1    5    5    0    0 -0.14571942698E+02  0.15853866884E+03 -0.11122385960E+03  0.19421019019E+03  0.00000000000E+00 0.  1.
          3    1    6    6  503    0 -0.94104281689E+02 -0.29740413549E+03 -0.51815705783E+03  0.60480705371E+03  0.00000000000E+00 0. -1.
         -3    1    6    6    0  503 -0.16057241761E+02 -0.11231896855E+03 -0.10544212174E+03  0.15489166132E+03  0.00000000000E+00 0.  1.
<mgrwt>
<rscale>  0 0.12526989E+04</rscale>
<asrwt>0</asrwt>
<pdfrwt beam="1">  1        1 0.56334998E-01 0.12526989E+04</pdfrwt>
<pdfrwt beam="2">  1       -2 0.16482701E+00 0.12526989E+04</pdfrwt>
<totfact> 0.13475383E+01</totfact>
</mgrwt>
</event>
<event>
12    5  0.5197392E-008  0.1380461E+04  0.7818608E-02  0.8968084E-01
          1   -1    0    0  501    0  0.00000000000E+00  0.00000000000E+00  0.13047885732E+04  0.13047885732E+04  0.00000000000E+00 0. -1.
         -2   -1    0    0    0  501 -0.00000000000E+00 -0.00000000000E+00 -0.36513066833E+03  0.36513066833E+03  0.00000000000E+00 0.  1.
        -24    2    1    2    0    0 -0.23340918192E+03  0.28059946446E+03  0.12003899283E+03  0.39261319629E+03  0.80745628009E+02 0.  0.
        254    2    1    2    0    0  0.23340918192E+03 -0.28059946446E+03  0.81961891205E+03  0.12773060452E+04  0.90913127026E+03 0.  0.
         23    2    4    4    0    0  0.30537731092E+03 -0.49923854306E+03  0.84120351944E+03  0.10286078221E+04  0.88973398726E+02 0.  0.
         23    2    4    4    0    0 -0.71968128998E+02  0.21863907860E+03 -0.21584607390E+02  0.24869822314E+03  0.91664893129E+02 0.  0.
          3    1    3    3  502    0 -0.34311595106E+02  0.57630606947E+02  0.54900141879E+02  0.86675244413E+02  0.00000000000E+00 0. -1.
         -4    1    3    3    0  502 -0.19909758681E+03  0.22296885751E+03  0.65138850949E+02  0.30593795188E+03  0.00000000000E+00 0.  1.
         13    1    5    5    0    0  0.18357821485E+03 -0.22863893714E+03  0.37597293400E+03  0.47679384606E+03  0.00000000000E+00 0. -1.
        -13    1    5    5    0    0  0.12179909607E+03 -0.27059960592E+03  0.46523058544E+03  0.55181397605E+03  0.00000000000E+00 0.  1.
          3    1    6    6  503    0 -0.84096370287E+02  0.14655263492E+03  0.95670173122E+01  0.16923770891E+03  0.00000000000E+00 0. -1.
         -3    1    6    6    0  503  0.12128241289E+02  0.72086443682E+02 -0.31151624702E+02  0.79460514226E+02  0.00000000000E+00 0.  1.
<mgrwt>
<rscale>  0 0.13804613E+04</rscale>
<asrwt>0</asrwt>
<pdfrwt beam="1">  1        1 0.20073670E+00 0.13804613E+04</pdfrwt>
<pdfrwt beam="2">  1       -2 0.56173950E-01 0.13804613E+04</pdfrwt>
<totfact> 0.22870020E+01</totfact>
</mgrwt>
</event>
<event>
12    5  0.5197392E-008  0.1184354E+04  0.7818608E-02  0.9126663E-01
          1   -1    0    0  501    0  0.00000000000E+00  0.00000000000E+00  0.41851980944E+03  0.41851980944E+03  0.00000000000E+00 0. -1.
         -2   -1    0    0    0  501 -0.00000000000E+00 -0.00000000000E+00 -0.83788945221E+03  0.83788945221E+03  0.00000000000E+00 0.  1.
        -24    2    1    2    0    0  0.22775975676E+01  0.14515891641E+03  0.98223025343E+02  0.19175767796E+03  0.77762110845E+02 0.  0.
        254    2    1    2    0    0 -0.22775975676E+01 -0.14515891641E+03 -0.51759266812E+03  0.10646515837E+04  0.91896927376E+03 0.  0.
         23    2    4    4    0    0 -0.44721189141E+03 -0.10298764867E+03 -0.20694055138E+03  0.51170622948E+03  0.91727541622E+02 0.  0.
         23    2    4    4    0    0  0.44493429384E+03 -0.42171267743E+02 -0.31065211674E+03  0.55294535421E+03  0.97462225790E+02 0.  0.
          1    1    3    3  502    0 -0.99008170619E+01  0.11307239674E+03  0.10736708212E+03  0.15624046661E+03  0.00000000000E+00 0. -1.
         -2    1    3    3    0  502  0.12178414629E+02  0.32086519675E+02 -0.91440567772E+01  0.35517211350E+02  0.00000000000E+00 0.  1.
         13    1    5    5    0    0 -0.39515203238E+03 -0.11444377547E+03 -0.16255982508E+03  0.44234398738E+03  0.00000000000E+00 0.  1.
        -13    1    5    5    0    0 -0.52059859027E+02  0.11456126802E+02 -0.44380726297E+02  0.69362242106E+02  0.00000000000E+00 0. -1.
          4    1    6    6  503    0  0.11419493118E+03 -0.54251236944E+02 -0.82401023889E+02  0.15090926994E+03  0.00000000000E+00 0. -1.
         -4    1    6    6    0  503  0.33073936266E+03  0.12079969201E+02 -0.22825109285E+03  0.40203608427E+03  0.00000000000E+00 0.  1.
<mgrwt>
<rscale>  0 0.11843536E+04</rscale>
<asrwt>0</asrwt>
<pdfrwt beam="1">  1        1 0.64387663E-01 0.11843536E+04</pdfrwt>
<pdfrwt beam="2">  1       -2 0.12890607E+00 0.11843536E+04</pdfrwt>
<totfact> 0.21679868E+01</totfact>
</mgrwt>
</event>
<event>
12    5  0.5197392E-008  0.2373937E+04  0.7818608E-02  0.8449326E-01
          1   -1    0    0  501    0  0.00000000000E+00  0.00000000000E+00  0.20068511959E+04  0.20068511959E+04  0.00000000000E+00 0. -1.
         -2   -1    0    0    0  501 -0.00000000000E+00 -0.00000000000E+00 -0.70204205495E+03  0.70204205495E+03  0.00000000000E+00 0.  1.
        -24    2    1    2    0    0  0.83302227806E+03  0.93264987573E+02 -0.94260597411E+02  0.84683056353E+03  0.74916416355E+02 0.  0.
        254    2    1    2    0    0 -0.83302227806E+03 -0.93264987573E+02  0.13990697384E+04  0.18620626873E+04  0.89847473256E+03 0.  0.
         23    2    4    4    0    0 -0.12333501202E+03 -0.28772598690E+03  0.92816053363E+03  0.98376907391E+03  0.91224151828E+02 0.  0.
         23    2    4    4    0    0 -0.70968726605E+03  0.19446099933E+03  0.47090920473E+03  0.87829361341E+03  0.90405179056E+02 0.  0.
          1    1    3    3  502    0  0.65107078909E+02 -0.41567466236E+01 -0.24249647570E+02  0.69600687308E+02  0.00000000000E+00 0. -1.
         -2    1    3    3    0  502  0.76791519916E+03  0.97421734197E+02 -0.70010949841E+02  0.77722987622E+03  0.00000000000E+00 0.  1.
         13    1    5    5    0    0  0.12096713499E+02 -0.36524827147E+02  0.77723429890E+02  0.86725573100E+02  0.00000000000E+00 0.  1.
        -13    1    5    5    0    0 -0.13543172551E+03 -0.25120115975E+03  0.85043710374E+03  0.89704350081E+03  0.00000000000E+00 0. -1.
          4    1    6    6  503    0 -0.57468758816E+03  0.19228350739E+03  0.39553538026E+03  0.72366221971E+03  0.00000000000E+00 0. -1.
         -4    1    6    6    0  503 -0.13499967788E+03  0.21774919364E+01  0.75373824475E+02  0.15463139369E+03  0.00000000000E+00 0.  1.
<mgrwt>
<rscale>  0 0.23739368E+04</rscale>
<asrwt>0</asrwt>
<pdfrwt beam="1">  1        1 0.30874634E+00 0.23739368E+04</pdfrwt>
<pdfrwt beam="2">  1       -2 0.10800647E+00 0.23739368E+04</pdfrwt>
<totfact> 0.15976676E+00</totfact>
</mgrwt>
</event>
<event>
12    5  0.5197392E-008  0.1646151E+04  0.7818608E-02  0.8792687E-01
          1   -1    0    0  501    0  0.00000000000E+00  0.00000000000E+00  0.40697863130E+03  0.40697863130E+03  0.00000000000E+00 0. -1.
         -2   -1    0    0    0  501 -0.00000000000E+00 -0.00000000000E+00 -0.16645918017E+04  0.16645918017E+04  0.00000000000E+00 0.  1.
        -24    2    1    2    0    0  0.11203661343E+03  0.63020131489E+02 -0.11539637246E+04  0.11637109829E+04  0.77892453650E+02 0.  0.
        254    2    1    2    0    0 -0.11203661343E+03 -0.63020131489E+02 -0.10364944582E+03  0.90785945010E+03  0.89271598720E+03 0.  0.
         23    2    4    4    0    0 -0.10874144508E+03 -0.27014893208E+03 -0.41994372206E+03  0.51860202314E+03  0.88262003885E+02 0.  0.
         23    2    4    4    0    0 -0.32951683472E+01  0.20712880060E+03  0.31629427623E+03  0.38925742696E+03  0.92553104176E+02 0.  0.
          1    1    3    3  502    0  0.38049143605E+01  0.16702053368E+01 -0.13017780782E+01  0.43544902483E+01  0.00000000000E+00 0. -1.
         -2    1    3    3    0  502  0.10823169907E+03  0.61349926152E+02 -0.11526619465E+04  0.11593564926E+04  0.00000000000E+00 0.  1.
         13    1    5    5    0    0 -0.95027719458E+02 -0.27361739003E+03 -0.40607312934E+03  0.49879066748E+03  0.00000000000E+00 0.  1.
        -13    1    5    5    0    0 -0.13713725626E+02  0.34684579429E+01 -0.13870592713E+02  0.19811355664E+02  0.00000000000E+00 0. -1.
          2    1    6    6  503    0  0.40721061747E+02  0.11107254010E+03  0.19796137882E+03  0.23061661158E+03  0.00000000000E+00 0. -1.
         -2    1    6    6    0  503 -0.44016230095E+02  0.96056260495E+02  0.11833289741E+03  0.15864081537E+03  0.00000000000E+00 0.  1.
<mgrwt>
<rscale>  0 0.16461510E+04</rscale>
<asrwt>0</asrwt>
<pdfrwt beam="1">  1        1 0.62612097E-01 0.16461510E+04</pdfrwt>
<pdfrwt beam="2">  1       -2 0.25609105E+00 0.16461510E+04</pdfrwt>
<totfact> 0.28900152E+00</totfact>
</mgrwt>
</event>
<event>
12    5  0.5197392E-008  0.2896110E+04  0.7818608E-02  0.8274036E-01
         -2   -1    0    0    0  501 -0.00000000000E+00  0.00000000000E+00  0.92591830503E+03  0.92591830503E+03  0.00000000000E+00 0.  1.
          1   -1    0    0  501    0  0.00000000000E+00 -0.00000000000E+00 -0.22646314968E+04  0.22646314968E+04  0.00000000000E+00 0. -1.
        -24    2    1    2    0    0  0.20115976590E+03  0.58275227684E+03  0.66177492524E+03  0.90785549848E+03  0.78677105131E+02 0.  0.
        254    2    1    2    0    0 -0.20115976590E+03 -0.58275227684E+03 -0.20004881170E+04  0.22826943033E+04  0.91031593893E+03 0.  0.
         23    2    4    4    0    0  0.92320115316E+02 -0.38994943185E+03 -0.22108818515E+03  0.46660430678E+03  0.90862700794E+02 0.  0.
         23    2    4    4    0    0 -0.29347988121E+03 -0.19280284499E+03 -0.17793999318E+04  0.18160899966E+04  0.92819073765E+02 0.  0.
          1    1    3    3  502    0 -0.17966266475E+01  0.58020571530E+02  0.76323063209E+02  0.95889647855E+02  0.00000000000E+00 0. -1.
         -2    1    3    3    0  502  0.20295639255E+03  0.52473170531E+03  0.58545186203E+03  0.81196585063E+03  0.00000000000E+00 0.  1.
         13    1    5    5    0    0  0.17091410047E+02 -0.26120949560E+03 -0.13840361159E+03  0.29610484054E+03  0.00000000000E+00 0. -1.
        -13    1    5    5    0    0  0.75228705269E+02 -0.12873993625E+03 -0.82684573567E+02  0.17049946624E+03  0.00000000000E+00 0.  1.
          3    1    6    6  503    0 -0.17536628334E+03 -0.10092244489E+03 -0.12364701832E+04  0.12529154749E+04  0.00000000000E+00 0. -1.
         -3    1    6    6    0  503 -0.11811359787E+03 -0.91880400101E+02 -0.54292974861E+03  0.56317452166E+03  0.00000000000E+00 0.  1.
<mgrwt>
<rscale>  0 0.28961103E+04</rscale>
<asrwt>0</asrwt>
<pdfrwt beam="1">  1        1 0.34840484E+00 0.28961103E+04</pdfrwt>
<pdfrwt beam="2">  1       -2 0.14244897E+00 0.28961103E+04</pdfrwt>
<totfact> 0.51003009E-01</totfact>
</mgrwt>
</event>
<event>
12    5  0.5197392E-008  0.1456650E+04  0.7818608E-02  0.8913803E-01
          1   -1    0    0  501    0  0.00000000000E+00  0.00000000000E+00  0.24719616564E+04  0.24719616564E+04  0.00000000000E+00 0. -1.
         -2   -1    0    0    0  501 -0.00000000000E+00 -0.00000000000E+00 -0.21458976067E+03  0.21458976067E+03  0.00000000000E+00 0.  1.
        -24    2    1    2    0    0 -0.12862396289E+03  0.79320233083E+02  0.14810815824E+04  0.14909720999E+04  0.80989663658E+02 0.  0.
        254    2    1    2    0    0  0.12862396289E+03 -0.79320233083E+02  0.77629031335E+03  0.11955793172E+04  0.89663115605E+03 0.  0.
         23    2    4    4    0    0  0.72561085208E+02  0.26733854985E+02  0.95395002551E+03  0.96139787151E+03  0.91024205967E+02 0.  0.
         23    2    4    4    0    0  0.56062877678E+02 -0.10605408807E+03 -0.17765971216E+03  0.23418144574E+03  0.94273327897E+02 0.  0.
          3    1    3    3  502    0 -0.12635684377E+03  0.46473064680E+02  0.12970273154E+04  0.13039960332E+04  0.00000000000E+00 0. -1.
         -4    1    3    3    0  502 -0.22671191190E+01  0.32847168403E+02  0.18405426699E+03  0.18697606665E+03  0.00000000000E+00 0.  1.
         13    1    5    5    0    0  0.57435568637E+02 -0.12822338736E+02  0.78566558634E+03  0.78786653088E+03  0.00000000000E+00 0.  1.
        -13    1    5    5    0    0  0.15125516571E+02  0.39556193721E+02  0.16828443917E+03  0.17353134063E+03  0.00000000000E+00 0. -1.
          1    1    6    6  503    0 -0.12323064710E+02 -0.77475428324E+02 -0.92256092953E+02  0.12110114205E+03  0.00000000000E+00 0. -1.
         -1    1    6    6    0  503  0.68385942388E+02 -0.28578659744E+02 -0.85403619206E+02  0.11308030369E+03  0.00000000000E+00 0.  1.
<mgrwt>
<rscale>  0 0.14566505E+04</rscale>
<asrwt>0</asrwt>
<pdfrwt beam="1">  1        1 0.38030177E+00 0.14566505E+04</pdfrwt>
<pdfrwt beam="2">  1       -2 0.33013811E-01 0.14566505E+04</pdfrwt>
<totfact> 0.10370279E+01</totfact>
</mgrwt>
</event>
<event>
12    5  0.5197392E-008  0.1283618E+04  0.7818608E-02  0.9042658E-01
          1   -1    0    0  501    0  0.00000000000E+00  0.00000000000E+00  0.26279833402E+03  0.26279833402E+03  0.00000000000E+00 0. -1.
         -2   -1    0    0    0  501 -0.00000000000E+00 -0.00000000000E+00 -0.15674320075E+04  0.15674320075E+04  0.00000000000E+00 0.  1.
        -24    2    1    2    0    0 -0.17012602652E+03  0.89579025210E+02 -0.68298843258E+03  0.71416123619E+03  0.81152976395E+02 0.  0.
        254    2    1    2    0    0  0.17012602652E+03 -0.89579025210E+02 -0.62164524085E+03  0.11160691053E+04  0.90675254378E+03 0.  0.
         23    2    4    4    0    0 -0.12805409475E+03  0.20776900827E+02 -0.74486783343E+03  0.76176447975E+03  0.92884350365E+02 0.  0.
         23    2    4    4    0    0  0.29818012126E+03 -0.11035592604E+03  0.12322259257E+03  0.35430462554E+03  0.96219256028E+02 0.  0.
          3    1    3    3  502    0 -0.54625223249E+02 -0.59619602822E+01 -0.24978718633E+03  0.25575984524E+03  0.00000000000E+00 0. -1.
         -4    1    3    3    0  502 -0.11550080327E+03  0.95540985492E+02 -0.43320124625E+03  0.45840139095E+03  0.00000000000E+00 0.  1.
         13    1    5    5    0    0  0.10843106288E+02  0.15244521275E+02 -0.13272553185E+03  0.13403743950E+03  0.00000000000E+00 0. -1.
        -13    1    5    5    0    0 -0.13889720103E+03  0.55323795521E+01 -0.61214230158E+03  0.62772704025E+03  0.00000000000E+00 0.  1.
          2    1    6    6  503    0  0.75758348928E+02 -0.75493180736E+02  0.43720292570E+02  0.11554225094E+03  0.00000000000E+00 0. -1.
         -2    1    6    6    0  503  0.22242177234E+03 -0.34862745301E+02  0.79502300005E+02  0.23876237460E+03  0.00000000000E+00 0.  1.
<mgrwt>
<rscale>  0 0.12836176E+04</rscale>
<asrwt>0</asrwt>
<pdfrwt beam="1">  1        1 0.40430513E-01 0.12836176E+04</pdfrwt>
<pdfrwt beam="2">  1       -2 0.24114339E+00 0.12836176E+04</pdfrwt>
<totfact> 0.65264444E+00</totfact>
</mgrwt>
</event>
<event>
12    5  0.5197392E-008  0.2073778E+04  0.7818608E-02  0.8572883E-01
          1   -1    0    0  501    0  0.00000000000E+00  0.00000000000E+00  0.56956766513E+03  0.56956766513E+03  0.00000000000E+00 0. -1.
         -2   -1    0    0    0  501 -0.00000000000E+00 -0.00000000000E+00 -0.18876405120E+04  0.18876405120E+04  0.00000000000E+00 0.  1.
        -24    2    1    2    0    0 -0.72615339732E+02  0.49368157537E+03 -0.13430558197E+04  0.14349522406E+04  0.79337963112E+02 0.  0.
        254    2    1    2    0    0  0.72615339732E+02 -0.49368157537E+03  0.24982972879E+02  0.10222559365E+04  0.89184559507E+03 0.  0.
         23    2    4    4    0    0 -0.32009933015E+03 -0.46566425238E+03 -0.13404513722E+03  0.58799589021E+03  0.92001581376E+02 0.  0.
         23    2    4    4    0    0  0.39271466989E+03 -0.28017322985E+02  0.15902811010E+03  0.43426004634E+03  0.91005855391E+02 0.  0.
          1    1    3    3  502    0  0.74761173474E+01  0.21733642006E+02 -0.33316648702E+02  0.40475209773E+02  0.00000000000E+00 0. -1.
         -2    1    3    3    0  502 -0.80091457079E+02  0.47194793336E+03 -0.13097391710E+04  0.13944770308E+04  0.00000000000E+00 0.  1.
         13    1    5    5    0    0 -0.91933223088E+02 -0.75228026467E+02 -0.45417094444E+02  0.12717580722E+03  0.00000000000E+00 0.  1.
        -13    1    5    5    0    0 -0.22816610707E+03 -0.39043622592E+03 -0.88628042776E+02  0.46082008299E+03  0.00000000000E+00 0. -1.
          3    1    6    6  503    0  0.34772163646E+03 -0.37836482260E+02  0.10923219370E+03  0.36643363382E+03  0.00000000000E+00 0. -1.
         -3    1    6    6    0  503  0.44993033426E+02  0.98191592749E+01  0.49795916400E+02  0.67826412524E+02  0.00000000000E+00 0.  1.
<mgrwt>
<rscale>  0 0.20737782E+04</rscale>
<asrwt>0</asrwt>
<pdfrwt beam="1">  1        1 0.87625795E-01 0.20737782E+04</pdfrwt>
<pdfrwt beam="2">  1       -2 0.29040623E+00 0.20737782E+04</pdfrwt>
<totfact> 0.10845999E+00</totfact>
</mgrwt>
</event>
<event>
12    5  0.5197392E-008  0.1360030E+04  0.7818608E-02  0.8983270E-01
          1   -1    0    0  501    0  0.00000000000E+00  0.00000000000E+00  0.19251417876E+04  0.19251417876E+04  0.00000000000E+00 0. -1.
         -2   -1    0    0    0  501 -0.00000000000E+00 -0.00000000000E+00 -0.24020083087E+03  0.24020083087E+03  0.00000000000E+00 0.  1.
        -24    2    1    2    0    0 -0.72811729312E+02  0.27624871309E+03  0.85013411406E+02  0.30823146692E+03  0.78514060345E+02 0.  0.
        254    2    1    2    0    0  0.72811729312E+02 -0.27624871309E+03  0.15999275453E+04  0.18571111516E+04  0.89859823030E+03 0.  0.
         23    2    4    4    0    0  0.13489693996E+03  0.27766044928E+03  0.90960920311E+03  0.96515574340E+03  0.94043591629E+02 0.  0.
         23    2    4    4    0    0 -0.62085210651E+02 -0.55390916236E+03  0.69031834222E+03  0.89195540815E+03  0.91515588802E+02 0.  0.
          3    1    3    3  502    0 -0.24754861108E+02  0.12048900367E+02  0.45841617557E+01  0.27910458390E+02  0.00000000000E+00 0. -1.
         -4    1    3    3    0  502 -0.48056868204E+02  0.26419981272E+03  0.80429249651E+02  0.28032100853E+03  0.00000000000E+00 0.  1.
         13    1    5    5    0    0  0.11218087085E+03  0.15456157347E+03  0.64032366336E+03  0.66819774142E+03  0.00000000000E+00 0. -1.
        -13    1    5    5    0    0  0.22716069111E+02  0.12309887581E+03  0.26928553976E+03  0.29695800198E+03  0.00000000000E+00 0.  1.
          3    1    6    6  503    0 -0.63534426349E+02 -0.22531805019E+03  0.24938133043E+03  0.34204662700E+03  0.00000000000E+00 0. -1.
         -3    1    6    6    0  503  0.14492156975E+01 -0.32859111218E+03  0.44093701178E+03  0.54990878115E+03  0.00000000000E+00 0.  1.
<mgrwt>
<rscale>  0 0.13600304E+04</rscale>
<asrwt>0</asrwt>
<pdfrwt beam="1">  1        1 0.29617565E+00 0.13600304E+04</pdfrwt>
<pdfrwt beam="2">  1       -2 0.36953975E-01 0.13600304E+04</pdfrwt>
<totfact> 0.19861618E+01</totfact>
</mgrwt>
</event>
<event>
12    5  0.5197392E-008  0.2119684E+04  0.7818608E-02  0.8552622E-01
          1   -1    0    0  501    0  0.00000000000E+00  0.00000000000E+00  0.28845662450E+04  0.28845662450E+04  0.00000000000E+00 0. -1.
         -2   -1    0    0    0  501 -0.00000000000E+00 -0.00000000000E+00 -0.38940524541E+03  0.38940524541E+03  0.00000000000E+00 0.  1.
        -24    2    1    2    0    0  0.33779383175E+03 -0.31175718620E+03  0.21800729742E+04  0.22294125716E+04  0.79151915478E+02 0.  0.
        254    2    1    2    0    0 -0.33779383175E+03  0.31175718620E+03  0.31508802542E+03  0.10445589188E+04  0.88347363017E+03 0.  0.
         23    2    4    4    0    0  0.15760312847E+02 -0.36921596326E+02  0.49917908058E+03  0.50701849174E+03  0.79223763766E+02 0.  0.
         23    2    4    4    0    0 -0.35355414460E+03  0.34867878252E+03 -0.18409105516E+03  0.53754042708E+03  0.92101941367E+02 0.  0.
          1    1    3    3  502    0  0.18843337227E+03 -0.20421079882E+03  0.14587841498E+04  0.14850119130E+04  0.00000000000E+00 0. -1.
         -2    1    3    3    0  502  0.14936045948E+03 -0.10754638737E+03  0.72128882438E+03  0.74440065856E+03  0.00000000000E+00 0.  1.
         13    1    5    5    0    0 -0.13193518817E+01 -0.39007437924E+02  0.47862176857E+03  0.48021049370E+03  0.00000000000E+00 0. -1.
        -13    1    5    5    0    0  0.17079664729E+02  0.20858415975E+01  0.20557312004E+02  0.26807998047E+02  0.00000000000E+00 0.  1.
          4    1    6    6  503    0 -0.31662570910E+03  0.29304353418E+03 -0.18809608256E+03  0.47064475867E+03  0.00000000000E+00 0. -1.
         -4    1    6    6    0  503 -0.36928435501E+02  0.55635248349E+02  0.40050274021E+01  0.66895668409E+02  0.00000000000E+00 0.  1.
<mgrwt>
<rscale>  0 0.21196842E+04</rscale>
<asrwt>0</asrwt>
<pdfrwt beam="1">  1        1 0.44377941E+00 0.21196842E+04</pdfrwt>
<pdfrwt beam="2">  1       -2 0.59908501E-01 0.21196842E+04</pdfrwt>
<totfact> 0.15208224E+00</totfact>
</mgrwt>
</event>
<event>
12    5  0.5197392E-008  0.1903893E+04  0.7818608E-02  0.8652921E-01
         -2   -1    0    0    0  501 -0.00000000000E+00  0.00000000000E+00  0.15892123486E+04  0.15892123486E+04  0.00000000000E+00 0.  1.
          1   -1    0    0  501    0  0.00000000000E+00 -0.00000000000E+00 -0.57022067633E+03  0.57022067633E+03  0.00000000000E+00 0. -1.
        -24    2    1    2    0    0 -0.51313953287E+03 -0.27691619371E+03  0.91785950987E+03  0.10903663262E+04  0.80236443793E+02 0.  0.
        254    2    1    2    0    0  0.51313953287E+03  0.27691619371E+03  0.10113216237E+03  0.10690666987E+04  0.89032641961E+03 0.  0.
         23    2    4    4    0    0  0.11558539143E+03 -0.22020271592E+03  0.29612970315E+03  0.39719972818E+03  0.90695116574E+02 0.  0.
         23    2    4    4    0    0  0.39755414144E+03  0.49711890963E+03 -0.19499754078E+03  0.67186697051E+03  0.90579685739E+02 0.  0.
          1    1    3    3  502    0 -0.13753884755E+03 -0.10969759399E+03  0.24016087790E+03  0.29770412155E+03  0.00000000000E+00 0. -1.
         -2    1    3    3    0  502 -0.37560068532E+03 -0.16721859972E+03  0.67769863197E+03  0.79266220465E+03  0.00000000000E+00 0.  1.
         13    1    5    5    0    0 -0.19232478996E+01  0.53193386635E+01 -0.13746502444E+01  0.58209887128E+01  0.00000000000E+00 0. -1.
        -13    1    5    5    0    0  0.11750863933E+03 -0.22552205458E+03  0.29750435340E+03  0.39137873947E+03  0.00000000000E+00 0.  1.
          1    1    6    6  503    0  0.60615772653E+02  0.78991136901E+02  0.27962714727E+01  0.99607684128E+02  0.00000000000E+00 0. -1.
         -1    1    6    6    0  503  0.33693836879E+03  0.41812777273E+03 -0.19779381226E+03  0.57225928638E+03  0.00000000000E+00 0.  1.
<mgrwt>
<rscale>  0 0.19038926E+04</rscale>
<asrwt>0</asrwt>
<pdfrwt beam="1">  1        1 0.87726259E-01 0.19038926E+04</pdfrwt>
<pdfrwt beam="2">  1       -2 0.24449421E+00 0.19038926E+04</pdfrwt>
<totfact> 0.20960694E+00</totfact>
</mgrwt>
</event>
<event>
12    5  0.5197392E-008  0.1570455E+04  0.7818608E-02  0.8838907E-01
         -2   -1    0    0    0  501 -0.00000000000E+00  0.00000000000E+00  0.71841508027E+03  0.71841508027E+03  0.00000000000E+00 0.  1.
          1   -1    0    0  501    0  0.00000000000E+00 -0.00000000000E+00 -0.85825307468E+03  0.85825307468E+03  0.00000000000E+00 0. -1.
        -24    2    1    2    0    0  0.51369040446E+03  0.62062079820E+02 -0.14179229616E+03  0.54235821785E+03  0.79484890581E+02 0.  0.
        254    2    1    2    0    0 -0.51369040446E+03 -0.62062079820E+02  0.19543017430E+01  0.10343099371E+04  0.89558008760E+03 0.  0.
         23    2    4    4    0    0 -0.26966582567E+03 -0.14877522092E+03 -0.42188534323E+03  0.52955011101E+03  0.87076709567E+02 0.  0.
         23    2    4    4    0    0 -0.24402457880E+03  0.86713141102E+02  0.42383964497E+03  0.50475982609E+03  0.89862525494E+02 0.  0.
          3    1    3    3  502    0  0.54327917479E+01 -0.87670363064E+01 -0.22793922405E+01  0.10562754412E+02  0.00000000000E+00 0. -1.
         -4    1    3    3    0  502  0.50825761272E+03  0.70829116126E+02 -0.13951290392E+03  0.53179546344E+03  0.00000000000E+00 0.  1.
         13    1    5    5    0    0 -0.10711243341E+03 -0.83106715107E+02 -0.12306751336E+03  0.18309946022E+03  0.00000000000E+00 0. -1.
        -13    1    5    5    0    0 -0.16255339226E+03 -0.65668505815E+02 -0.29881782987E+03  0.34645065080E+03  0.00000000000E+00 0.  1.
          2    1    6    6  503    0 -0.13634100585E+03  0.63584173813E+02  0.31903160273E+03  0.35272224281E+03  0.00000000000E+00 0. -1.
         -2    1    6    6    0  503 -0.10768357294E+03  0.23128967289E+02  0.10480804225E+03  0.15203758328E+03  0.00000000000E+00 0.  1.
<mgrwt>
<rscale>  0 0.15704546E+04</rscale>
<asrwt>0</asrwt>
<pdfrwt beam="1">  1        1 0.13203893E+00 0.15704546E+04</pdfrwt>
<pdfrwt beam="2">  1       -2 0.11052540E+00 0.15704546E+04</pdfrwt>
<totfact> 0.10787854E+01</totfact>
</mgrwt>
</event>
<event>
12    5  0.5197392E-008  0.2020450E+04  0.7818608E-02  0.8597119E-01
          1   -1    0    0  501    0  0.00000000000E+00  0.00000000000E+00  0.20721121952E+04  0.20721121952E+04  0.00000000000E+00 0. -1.
         -2   -1    0    0    0  501 -0.00000000000E+00 -0.00000000000E+00 -0.49251909515E+03  0.49251909515E+03  0.00000000000E+00 0.  1.
        -24    2    1    2    0    0 -0.32484131071E+03  0.52889154079E+03  0.64572575590E+02  0.62941508630E+03  0.82131566914E+02 0.  0.
        254    2    1    2    0    0  0.32484131071E+03 -0.52889154079E+03  0.15150205244E+04  0.19352162040E+04  0.10317589000E+04 0.  0.
         23    2    4    4    0    0  0.58337654057E+03 -0.49301732144E+03  0.14636309327E+04  0.16535346883E+04  0.92559121055E+02 0.  0.
         23    2    4    4    0    0 -0.25853522986E+03 -0.35874219344E+02  0.51389591744E+02  0.28168151575E+03  0.92607567112E+02 0.  0.
          1    1    3    3  502    0 -0.14108936213E+03  0.25824260745E+03  0.69001664727E+02  0.30225267930E+03  0.00000000000E+00 0. -1.
         -2    1    3    3    0  502 -0.18375194858E+03  0.27064893334E+03 -0.44290891376E+01  0.32716240700E+03  0.00000000000E+00 0.  1.
         13    1    5    5    0    0  0.57270721312E+03 -0.48646750932E+03  0.14023080497E+04  0.15909469055E+04  0.00000000000E+00 0. -1.
        -13    1    5    5    0    0  0.10669327450E+02 -0.65498121254E+01  0.61322882934E+02  0.62587782821E+02  0.00000000000E+00 0.  1.
          1    1    6    6  503    0 -0.21645383358E+03 -0.60453526901E+02  0.24626819484E+02  0.22608266458E+03  0.00000000000E+00 0. -1.
         -1    1    6    6    0  503 -0.42081396279E+02  0.24579307556E+02  0.26762772260E+02  0.55598851173E+02  0.00000000000E+00 0.  1.
<mgrwt>
<rscale>  0 0.20204503E+04</rscale>
<asrwt>0</asrwt>
<pdfrwt beam="1">  1        1 0.31878649E+00 0.20204503E+04</pdfrwt>
<pdfrwt beam="2">  1       -2 0.75772170E-01 0.20204503E+04</pdfrwt>
<totfact> 0.33795977E+00</totfact>
</mgrwt>
</event>
<event>
12    5  0.5197392E-008  0.2394356E+04  0.7818608E-02  0.8441619E-01
         -2   -1    0    0    0  501 -0.00000000000E+00  0.00000000000E+00  0.13406423417E+04  0.13406423417E+04  0.00000000000E+00 0.  1.
          1   -1    0    0  501    0  0.00000000000E+00 -0.00000000000E+00 -0.10690663338E+04  0.10690663338E+04  0.00000000000E+00 0. -1.
        -24    2    1    2    0    0  0.20387518983E+03 -0.40093046459E+03 -0.81047007370E+03  0.93033898785E+03  0.79740588771E+02 0.  0.
        254    2    1    2    0    0 -0.20387518983E+03  0.40093046459E+03  0.10820460816E+04  0.14793696877E+04  0.90299535978E+03 0.  0.
         23    2    4    4    0    0  0.24255178328E+03  0.25494960666E+03  0.89474168016E+03  0.96575119747E+03  0.91005668453E+02 0.  0.
         23    2    4    4    0    0 -0.44642697311E+03  0.14598085793E+03  0.18730440140E+03  0.51361849022E+03  0.90075310212E+02 0.  0.
          1    1    3    3  502    0  0.12430826611E+03 -0.27915561920E+03 -0.61442918533E+03  0.68622418242E+03  0.00000000000E+00 0. -1.
         -2    1    3    3    0  502  0.79566923717E+02 -0.12177484539E+03 -0.19604088837E+03  0.24411480543E+03  0.00000000000E+00 0.  1.
         13    1    5    5    0    0  0.24483124949E+03  0.26045521748E+03  0.88202646249E+03  0.95170895844E+03  0.00000000000E+00 0. -1.
        -13    1    5    5    0    0 -0.22794662044E+01 -0.55056108190E+01  0.12715217669E+02  0.14042239033E+02  0.00000000000E+00 0.  1.
          2    1    6    6  503    0 -0.30482030439E+03  0.13840188923E+03  0.15092151566E+03  0.36721629158E+03  0.00000000000E+00 0. -1.
         -2    1    6    6    0  503 -0.14160666872E+03  0.75789687052E+01  0.36382885731E+02  0.14640219864E+03  0.00000000000E+00 0.  1.
<mgrwt>
<rscale>  0 0.23943564E+04</rscale>
<asrwt>0</asrwt>
<pdfrwt beam="1">  1        1 0.16447174E+00 0.23943564E+04</pdfrwt>
<pdfrwt beam="2">  1       -2 0.20625267E+00 0.23943564E+04</pdfrwt>
<totfact> 0.12739497E+00</totfact>
</mgrwt>
</event>
<event>
12    5  0.5197392E-008  0.1531148E+04  0.7818608E-02  0.8864000E-01
         -2   -1    0    0    0  501 -0.00000000000E+00  0.00000000000E+00  0.13785141325E+04  0.13785141325E+04  0.00000000000E+00 0.  1.
          1   -1    0    0  501    0  0.00000000000E+00 -0.00000000000E+00 -0.42517055970E+03  0.42517055970E+03  0.00000000000E+00 0. -1.
        -24    2    1    2    0    0  0.35781577026E+03  0.82145277981E+02 -0.77674446231E+02  0.38344683391E+03  0.78855454445E+02 0.  0.
        254    2    1    2    0    0 -0.35781577026E+03 -0.82145277981E+02  0.10310180190E+04  0.14202378583E+04  0.90515051036E+03 0.  0.
         23    2    4    4    0    0  0.50736208992E+02  0.29663127780E+03  0.10112513192E+03  0.33230874174E+03  0.98176013672E+02 0.  0.
         23    2    4    4    0    0 -0.40855197925E+03 -0.37877655578E+03  0.92989288708E+03  0.10879291165E+04  0.92209447328E+02 0.  0.
          1    1    3    3  502    0  0.57799589082E+02 -0.70154178058E+01 -0.34015449531E+02  0.67431887055E+02  0.00000000000E+00 0. -1.
         -2    1    3    3    0  502  0.30001618117E+03  0.89160695787E+02 -0.43658996700E+02  0.31601494685E+03  0.00000000000E+00 0.  1.
         13    1    5    5    0    0  0.20698273090E+02  0.15733915428E+03  0.19635338120E+01  0.15870691051E+03  0.00000000000E+00 0.  1.
        -13    1    5    5    0    0  0.30037935902E+02  0.13929212352E+03  0.99161598108E+02  0.17360183123E+03  0.00000000000E+00 0. -1.
          1    1    6    6  503    0 -0.20261406246E+03 -0.13889243821E+03  0.35259430440E+03  0.42972818292E+03  0.00000000000E+00 0. -1.
         -1    1    6    6    0  503 -0.20593791679E+03 -0.23988411757E+03  0.57729858268E+03  0.65820093360E+03  0.00000000000E+00 0.  1.
<mgrwt>
<rscale>  0 0.15311481E+04</rscale>
<asrwt>0</asrwt>
<pdfrwt beam="1">  1        1 0.65410856E-01 0.15311481E+04</pdfrwt>
<pdfrwt beam="2">  1       -2 0.21207910E+00 0.15311481E+04</pdfrwt>
<totfact> 0.51744185E+00</totfact>
</mgrwt>
</event>
<event>
12    5  0.5197392E-008  0.1923232E+04  0.7818608E-02  0.8643378E-01
          1   -1    0    0  501    0  0.00000000000E+00  0.00000000000E+00  0.79371386207E+03  0.79371386207E+03  0.00000000000E+00 0. -1.
         -2   -1    0    0    0  501 -0.00000000000E+00 -0.00000000000E+00 -0.11650365420E+04  0.11650365420E+04  0.00000000000E+00 0.  1.
        -24    2    1    2    0    0 -0.14009602448E+03  0.12130249580E+03 -0.88191324063E+03  0.90459500347E+03  0.78612751812E+02 0.  0.
        254    2    1    2    0    0  0.14009602448E+03 -0.12130249580E+03  0.51059056071E+03  0.10541554006E+04  0.90343771028E+03 0.  0.
         23    2    4    4    0    0 -0.14486733481E+03  0.30790374814E+03  0.37585979072E+03  0.51396967318E+03  0.84279178046E+02 0.  0.
         23    2    4    4    0    0  0.28496335929E+03 -0.42920624394E+03  0.13473076999E+03  0.54018572742E+03  0.90697980962E+02 0.  0.
          3    1    3    3  502    0 -0.11509832883E+03  0.49677154552E+02 -0.53736347869E+03  0.55179249108E+03  0.00000000000E+00 0. -1.
         -4    1    3    3    0  502 -0.24997695647E+02  0.71625341249E+02 -0.34454976194E+03  0.35280251239E+03  0.00000000000E+00 0.  1.
         13    1    5    5    0    0 -0.58966448579E+02  0.18293685399E+03  0.15953992743E+03  0.24979175937E+03  0.00000000000E+00 0. -1.
        -13    1    5    5    0    0 -0.85900886229E+02  0.12496689415E+03  0.21631986329E+03  0.26417791381E+03  0.00000000000E+00 0.  1.
          4    1    6    6  503    0  0.23369948518E+03 -0.39269487787E+03  0.13742815347E+03  0.47719096161E+03  0.00000000000E+00 0. -1.
         -4    1    6    6    0  503  0.51263874113E+02 -0.36511366063E+02 -0.26973834808E+01  0.62994765802E+02  0.00000000000E+00 0.  1.
<mgrwt>
<rscale>  0 0.19232323E+04</rscale>
<asrwt>0</asrwt>
<pdfrwt beam="1">  1        1 0.12210983E+00 0.19232323E+04</pdfrwt>
<pdfrwt beam="2">  1       -2 0.17923639E+00 0.19232323E+04</pdfrwt>
<totfact> 0.33605571E+00</totfact>
</mgrwt>
</event>
<event>
12    5  0.5197392E-008  0.1534125E+04  0.7818608E-02  0.8862072E-01
          1   -1    0    0  501    0  0.00000000000E+00  0.00000000000E+00  0.14663343608E+04  0.14663343608E+04  0.00000000000E+00 0. -1.
         -2   -1    0    0    0  501 -0.00000000000E+00 -0.00000000000E+00 -0.40126231554E+03  0.40126231554E+03  0.00000000000E+00 0.  1.
        -24    2    1    2    0    0  0.22219916176E+03  0.42110406339E+03  0.47728672680E+03  0.67913805501E+03  0.82004746719E+02 0.  0.
        254    2    1    2    0    0 -0.22219916176E+03 -0.42110406339E+03  0.58778531849E+03  0.11884586214E+04  0.91664672277E+03 0.  0.
         23    2    4    4    0    0  0.49971146550E+02 -0.60800243624E+03  0.57837011545E+03  0.84557063655E+03  0.91179125837E+02 0.  0.
         23    2    4    4    0    0 -0.27217030832E+03  0.18689837285E+03  0.94152030352E+01  0.34288798481E+03  0.92064355617E+02 0.  0.
          3    1    3    3  502    0  0.14966458187E+03  0.32996934341E+03  0.39808139156E+03  0.53828249922E+03  0.00000000000E+00 0. -1.
         -4    1    3    3    0  502  0.72534579891E+02  0.91134719983E+02  0.79205335243E+02  0.14085555579E+03  0.00000000000E+00 0.  1.
         13    1    5    5    0    0  0.41632355909E+02 -0.53184779449E+03  0.54292335652E+03  0.76115773702E+03  0.00000000000E+00 0.  1.
        -13    1    5    5    0    0  0.83387906414E+01 -0.76154641748E+02  0.35446758932E+02  0.84412899535E+02  0.00000000000E+00 0. -1.
          3    1    6    6  503    0 -0.64568511933E+02  0.83632324412E+01 -0.18422350834E+02  0.67664018505E+02  0.00000000000E+00 0. -1.
         -3    1    6    6    0  503 -0.20760179638E+03  0.17853514041E+03  0.27837553869E+02  0.27522396630E+03  0.00000000000E+00 0.  1.
<mgrwt>
<rscale>  0 0.15341248E+04</rscale>
<asrwt>0</asrwt>
<pdfrwt beam="1">  1        1 0.22558990E+00 0.15341248E+04</pdfrwt>
<pdfrwt beam="2">  1       -2 0.61732665E-01 0.15341248E+04</pdfrwt>
<totfact> 0.14246942E+01</totfact>
</mgrwt>
</event>
<event>
12    5  0.5197392E-008  0.1424914E+04  0.7818608E-02  0.8935979E-01
         -2   -1    0    0    0  501 -0.00000000000E+00  0.00000000000E+00  0.15171107904E+04  0.15171107904E+04  0.00000000000E+00 0.  1.
          1   -1    0    0  501    0  0.00000000000E+00 -0.00000000000E+00 -0.33458001787E+03  0.33458001787E+03  0.00000000000E+00 0. -1.
        -24    2    1    2    0    0  0.42165107301E+03 -0.89797140266E+01  0.38954745467E+03  0.57982231581E+03  0.81095226934E+02 0.  0.
        254    2    1    2    0    0 -0.42165107301E+03  0.89797140266E+01  0.79298331787E+03  0.12718684925E+04  0.90053131932E+03 0.  0.
         23    2    4    4    0    0 -0.35630597715E+03  0.42615912032E+03  0.46708888635E+03  0.73055438570E+03  0.83499326521E+02 0.  0.
         23    2    4    4    0    0 -0.65345095864E+02 -0.41717940629E+03  0.32589443151E+03  0.54131410676E+03  0.92223332732E+02 0.  0.
          3    1    3    3  502    0  0.32451904307E+03 -0.37475592530E+02  0.27555814454E+03  0.42737491781E+03  0.00000000000E+00 0. -1.
         -4    1    3    3    0  502  0.97132029947E+02  0.28495878503E+02  0.11398931013E+03  0.15244739800E+03  0.00000000000E+00 0.  1.
         13    1    5    5    0    0 -0.16064537804E+03  0.22099082130E+03  0.27796265008E+03  0.38975263363E+03  0.00000000000E+00 0. -1.
        -13    1    5    5    0    0 -0.19566059911E+03  0.20516829902E+03  0.18912623628E+03  0.34080175207E+03  0.00000000000E+00 0.  1.
          4    1    6    6  503    0 -0.75239328876E+02 -0.19781379596E+03  0.14163785260E+03  0.25466161033E+03  0.00000000000E+00 0. -1.
         -4    1    6    6    0  503  0.98942330120E+01 -0.21936561033E+03  0.18425657891E+03  0.28665249644E+03  0.00000000000E+00 0.  1.
<mgrwt>
<rscale>  0 0.14249140E+04</rscale>
<asrwt>0</asrwt>
<pdfrwt beam="1">  1        1 0.51473850E-01 0.14249140E+04</pdfrwt>
<pdfrwt beam="2">  1       -2 0.23340166E+00 0.14249140E+04</pdfrwt>
<totfact> 0.52596751E+00</totfact>
</mgrwt>
</event>
<event>
12    5  0.5197392E-008  0.1703356E+04  0.7818608E-02  0.8759453E-01
          3   -1    0    0  501    0  0.00000000000E+00  0.00000000000E+00  0.76218421144E+03  0.76218421144E+03  0.00000000000E+00 0. -1.
         -2   -1    0    0    0  501 -0.00000000000E+00 -0.00000000000E+00 -0.95167961749E+03  0.95167961749E+03  0.00000000000E+00 0.  1.
        -24    2    1    2    0    0 -0.12414651084E+03  0.34440191513E+03  0.42187646087E+03  0.56423186237E+03  0.79704522968E+02 0.  0.
        254    2    1    2    0    0  0.12414651084E+03 -0.34440191513E+03 -0.61137186692E+03  0.11496319666E+04  0.90213805128E+03 0.  0.
         23    2    4    4    0    0  0.27620116481E+03 -0.34614445465E+03 -0.78166091069E+03  0.90301857639E+03  0.91354819679E+02 0.  0.
         23    2    4    4    0    0 -0.15205465397E+03  0.17425395232E+01  0.17028904377E+03  0.24661339016E+03  0.93253158354E+02 0.  0.
          1    1    3    3  502    0 -0.61133545470E+02  0.25772689976E+03  0.26882767417E+03  0.37739738160E+03  0.00000000000E+00 0. -1.
         -2    1    3    3    0  502 -0.63012965366E+02  0.86675015373E+02  0.15304878671E+03  0.18683448078E+03  0.00000000000E+00 0.  1.
         13    1    5    5    0    0  0.20105891519E+03 -0.25713613341E+03 -0.48802744518E+03  0.58712389300E+03  0.00000000000E+00 0.  1.
        -13    1    5    5    0    0  0.75142249621E+02 -0.89008321246E+02 -0.29363346551E+03  0.31589468339E+03  0.00000000000E+00 0. -1.
          2    1    6    6  503    0 -0.14252034212E+03  0.19112401345E+02  0.10410031494E+03  0.17752241372E+03  0.00000000000E+00 0.  1.
         -2    1    6    6    0  503 -0.95343118547E+01 -0.17369861822E+02  0.66188728829E+02  0.69090976446E+02  0.00000000000E+00 0. -1.
<mgrwt>
<rscale>  0 0.17033557E+04</rscale>
<asrwt>0</asrwt>
<pdfrwt beam="1">  1        3 0.11725911E+00 0.17033557E+04</pdfrwt>
<pdfrwt beam="2">  1       -2 0.14641225E+00 0.17033557E+04</pdfrwt>
<totfact> 0.75596120E-01</totfact>
</mgrwt>
</event>
<event>
12    5  0.5197392E-008  0.1737104E+04  0.7818608E-02  0.8740481E-01
         -2   -1    0    0    0  501 -0.00000000000E+00  0.00000000000E+00  0.14111478821E+04  0.14111478821E+04  0.00000000000E+00 0.  1.
          1   -1    0    0  501    0  0.00000000000E+00 -0.00000000000E+00 -0.53458769938E+03  0.53458769938E+03  0.00000000000E+00 0. -1.
        -24    2    1    2    0    0 -0.10759712492E+03 -0.59915419380E+03  0.48969195224E+03  0.78519469536E+03  0.78546879559E+02 0.  0.
        254    2    1    2    0    0  0.10759712492E+03  0.59915419380E+03  0.38686823047E+03  0.11605408861E+04  0.90918932645E+03 0.  0.
         23    2    4    4    0    0 -0.29190451694E+03 -0.31720515182E+02 -0.14034310008E+02  0.30819984708E+03  0.92605322668E+02 0.  0.
         23    2    4    4    0    0  0.39950164186E+03  0.63087470898E+03  0.40090254047E+03  0.85234103903E+03  0.90321312894E+02 0.  0.
          3    1    3    3  502    0 -0.87209553479E+02 -0.44660750944E+03  0.32115117187E+03  0.55695767245E+03  0.00000000000E+00 0. -1.
         -4    1    3    3    0  502 -0.20387571439E+02 -0.15254668436E+03  0.16854078037E+03  0.22823702291E+03  0.00000000000E+00 0.  1.
         13    1    5    5    0    0 -0.22711369458E+03 -0.56583454697E+02 -0.32716246612E+02  0.23633169572E+03  0.00000000000E+00 0.  1.
        -13    1    5    5    0    0 -0.64790822363E+02  0.24862939515E+02  0.18681936605E+02  0.71868151355E+02  0.00000000000E+00 0. -1.
          2    1    6    6  503    0  0.25663014148E+03  0.32143181378E+03  0.21564583981E+03  0.46441422099E+03  0.00000000000E+00 0. -1.
         -2    1    6    6    0  503  0.14287150038E+03  0.30944289520E+03  0.18525670066E+03  0.38792681804E+03  0.00000000000E+00 0.  1.
<mgrwt>
<rscale>  0 0.17371037E+04</rscale>
<asrwt>0</asrwt>
<pdfrwt beam="1">  1        1 0.82244262E-01 0.17371037E+04</pdfrwt>
<pdfrwt beam="2">  1       -2 0.21709967E+00 0.17371037E+04</pdfrwt>
<totfact> 0.34540739E+00</totfact>
</mgrwt>
</event>
<event>
12    5  0.5197392E-008  0.3458670E+04  0.7818608E-02  0.8123655E-01
          1   -1    0    0  501    0  0.00000000000E+00  0.00000000000E+00  0.31476859072E+04  0.31476859072E+04  0.00000000000E+00 0. -1.
         -4   -1    0    0    0  501 -0.00000000000E+00 -0.00000000000E+00 -0.95009438792E+03  0.95009438792E+03  0.00000000000E+00 0.  1.
        -24    2    1    2    0    0  0.18814418048E+03 -0.13945702665E+03 -0.86284321551E+03  0.89750589011E+03  0.78561525645E+02 0.  0.
        254    2    1    2    0    0 -0.18814418048E+03  0.13945702665E+03  0.30604347348E+04  0.32002744050E+04  0.90589679681E+03 0.  0.
         23    2    4    4    0    0 -0.48760411070E+03 -0.18813037849E+00  0.10576578417E+04  0.11682028874E+04  0.91104729433E+02 0.  0.
         23    2    4    4    0    0  0.29945993021E+03  0.13964515703E+03  0.20027768931E+04  0.20320715176E+04  0.94986050053E+02 0.  0.
          3    1    3    3  502    0  0.82988326393E+01  0.98431629167E+01 -0.34827914090E+02  0.37131416338E+02  0.00000000000E+00 0. -1.
         -4    1    3    3    0  502  0.17984534784E+03 -0.14930018957E+03 -0.82801530142E+03  0.86037447378E+03  0.00000000000E+00 0.  1.
         13    1    5    5    0    0 -0.12347025776E+03 -0.31992092972E+02  0.33268861153E+03  0.35630059052E+03  0.00000000000E+00 0. -1.
        -13    1    5    5    0    0 -0.36413385294E+03  0.31803962594E+02  0.72496923020E+03  0.81190229685E+03  0.00000000000E+00 0.  1.
          1    1    6    6  503    0  0.24444159119E+03  0.75851703112E+02  0.13688224808E+04  0.13925444899E+04  0.00000000000E+00 0. -1.
         -1    1    6    6    0  503  0.55018339019E+02  0.63793453917E+02  0.63395441222E+03  0.63952702771E+03  0.00000000000E+00 0.  1.
<mgrwt>
<rscale>  0 0.34586695E+04</rscale>
<asrwt>0</asrwt>
<pdfrwt beam="1">  1        1 0.48425937E+00 0.34586695E+04</pdfrwt>
<pdfrwt beam="2">  1       -4 0.14616837E+00 0.34586695E+04</pdfrwt>
<totfact> 0.59856985E-02</totfact>
</mgrwt>
</event>
<event>
12    5  0.5197392E-008  0.2646298E+04  0.7818608E-02  0.8352643E-01
         -2   -1    0    0    0  501 -0.00000000000E+00  0.00000000000E+00  0.73588717130E+03  0.73588717130E+03  0.00000000000E+00 0.  1.
          1   -1    0    0  501    0  0.00000000000E+00 -0.00000000000E+00 -0.23790648288E+04  0.23790648288E+04  0.00000000000E+00 0. -1.
        -24    2    1    2    0    0 -0.62694066370E+03 -0.95923477706E+03 -0.46202871645E+03  0.12381825346E+04  0.80246501194E+02 0.  0.
        254    2    1    2    0    0  0.62694066370E+03  0.95923477706E+03 -0.11811489410E+04  0.18767694654E+04  0.90220000674E+03 0.  0.
         23    2    4    4    0    0  0.71385443665E+02  0.43950261775E+03 -0.98644007002E+03  0.10862052461E+04  0.92300554386E+02 0.  0.
         23    2    4    4    0    0  0.55555522003E+03  0.51973215931E+03 -0.19470887101E+03  0.79056421933E+03  0.91198248410E+02 0.  0.
          1    1    3    3  502    0 -0.13662374950E+03 -0.17646324697E+03 -0.11875093981E+03  0.25279856044E+03  0.00000000000E+00 0. -1.
         -2    1    3    3    0  502 -0.49031691419E+03 -0.78277153010E+03 -0.34327777665E+03  0.98538397420E+03  0.00000000000E+00 0.  1.
         13    1    5    5    0    0  0.74106122180E+02  0.38183735698E+03 -0.77649282569E+03  0.86846565441E+03  0.00000000000E+00 0.  1.
        -13    1    5    5    0    0 -0.27206785148E+01  0.57665260772E+02 -0.20994724432E+03  0.21773959169E+03  0.00000000000E+00 0. -1.
          3    1    6    6  503    0  0.25612970698E+03  0.20421690009E+03 -0.12196408690E+03  0.34954571600E+03  0.00000000000E+00 0. -1.
         -3    1    6    6    0  503  0.29942551305E+03  0.31551525921E+03 -0.72744784108E+02  0.44101850333E+03  0.00000000000E+00 0.  1.
<mgrwt>
<rscale>  0 0.26462980E+04</rscale>
<asrwt>0</asrwt>
<pdfrwt beam="1">  1        1 0.36600997E+00 0.26462980E+04</pdfrwt>
<pdfrwt beam="2">  1       -2 0.11321341E+00 0.26462980E+04</pdfrwt>
<totfact> 0.77583272E-01</totfact>
</mgrwt>
</event>
<event>
12    5  0.5197392E-008  0.1841563E+04  0.7818608E-02  0.8684504E-01
          1   -1    0    0  501    0  0.00000000000E+00  0.00000000000E+00  0.39103061334E+03  0.39103061334E+03  0.00000000000E+00 0. -1.
         -2   -1    0    0    0  501 -0.00000000000E+00 -0.00000000000E+00 -0.21682155612E+04  0.21682155612E+04  0.00000000000E+00 0.  1.
        -24    2    1    2    0    0  0.60023365028E+03 -0.30025719827E+03 -0.92640449504E+03  0.11468424253E+04  0.81163045600E+02 0.  0.
        254    2    1    2    0    0 -0.60023365028E+03  0.30025719827E+03 -0.85078045280E+03  0.14124037492E+04  0.90588197460E+03 0.  0.
         23    2    4    4    0    0 -0.77038922727E+03  0.29565050877E+02 -0.47217406095E+03  0.90875593930E+03  0.92278706430E+02 0.  0.
         23    2    4    4    0    0  0.17015557698E+03  0.27069214739E+03 -0.37860639185E+03  0.50364780992E+03  0.89950861299E+02 0.  0.
          3    1    3    3  502    0  0.17529122222E+03 -0.11225443783E+03 -0.33989197235E+03  0.39856570884E+03  0.00000000000E+00 0. -1.
         -4    1    3    3    0  502  0.42494242807E+03 -0.18800276044E+03 -0.58651252270E+03  0.74827671645E+03  0.00000000000E+00 0.  1.
         13    1    5    5    0    0 -0.72655422531E+03  0.46003603935E+02 -0.42863138950E+03  0.84482083423E+03  0.00000000000E+00 0.  1.
        -13    1    5    5    0    0 -0.43835001958E+02 -0.16438553058E+02 -0.43542671445E+02  0.63935105067E+02  0.00000000000E+00 0. -1.
          1    1    6    6  503    0  0.10836651270E+03  0.17921606414E+03 -0.17879682048E+03  0.27537247817E+03  0.00000000000E+00 0. -1.
         -1    1    6    6    0  503  0.61789064278E+02  0.91476083249E+02 -0.19980957138E+03  0.22827533175E+03  0.00000000000E+00 0.  1.
<mgrwt>
<rscale>  0 0.18415631E+04</rscale>
<asrwt>0</asrwt>
<pdfrwt beam="1">  1        1 0.60158557E-01 0.18415631E+04</pdfrwt>
<pdfrwt beam="2">  1       -2 0.33357162E+00 0.18415631E+04</pdfrwt>
<totfact> 0.10058091E+00</totfact>
</mgrwt>
</event>
<event>
12    5  0.5197392E-008  0.3716858E+04  0.7818608E-02  0.8064236E-01
         -2   -1    0    0    0  501 -0.00000000000E+00  0.00000000000E+00  0.11035066006E+04  0.11035066006E+04  0.00000000000E+00 0.  1.
          1   -1    0    0  501    0  0.00000000000E+00 -0.00000000000E+00 -0.31298032026E+04  0.31298032026E+04  0.00000000000E+00 0. -1.
        -24    2    1    2    0    0  0.13777068263E+04  0.36777377151E+03  0.19980153977E+03  0.14420426958E+04  0.78948306846E+02 0.  0.
        254    2    1    2    0    0 -0.13777068263E+04 -0.36777377151E+03 -0.22260981418E+04  0.27912671074E+04  0.89572623137E+03 0.  0.
         23    2    4    4    0    0 -0.11188094839E+04 -0.64227925110E+03 -0.17703129838E+04  0.21923722673E+04  0.90723756306E+02 0.  0.
         23    2    4    4    0    0 -0.25889734233E+03  0.27450547959E+03 -0.45578515800E+03  0.59889484009E+03  0.92486901993E+02 0.  0.
          1    1    3    3  502    0  0.26422409833E+03  0.73491288003E+02  0.69928778314E+02  0.28302893419E+03  0.00000000000E+00 0. -1.
         -2    1    3    3    0  502  0.11134827279E+04  0.29428248351E+03  0.12987276146E+03  0.11590137617E+04  0.00000000000E+00 0.  1.
         13    1    5    5    0    0 -0.10048720760E+04 -0.56383649889E+03 -0.15340111697E+04  0.19185592916E+04  0.00000000000E+00 0. -1.
        -13    1    5    5    0    0 -0.11393740796E+03 -0.78442752214E+02 -0.23630181417E+03  0.27381297575E+03  0.00000000000E+00 0.  1.
          3    1    6    6  503    0 -0.24850020006E+03  0.28159787989E+03 -0.44516207062E+03  0.58242508918E+03  0.00000000000E+00 0. -1.
         -3    1    6    6    0  503 -0.10397142279E+02 -0.70924002995E+01 -0.10623087376E+02  0.16469750908E+02  0.00000000000E+00 0.  1.
<mgrwt>
<rscale>  0 0.37168581E+04</rscale>
<asrwt>0</asrwt>
<pdfrwt beam="1">  1        1 0.48150818E+00 0.37168581E+04</pdfrwt>
<pdfrwt beam="2">  1       -2 0.16977025E+00 0.37168581E+04</pdfrwt>
<totfact> 0.72343747E-02</totfact>
</mgrwt>
</event>
<event>
12    5  0.5197392E-008  0.1115867E+04  0.7818608E-02  0.9189863E-01
         -2   -1    0    0    0  501 -0.00000000000E+00  0.00000000000E+00  0.32991846160E+03  0.32991846160E+03  0.00000000000E+00 0.  1.
          1   -1    0    0  501    0  0.00000000000E+00 -0.00000000000E+00 -0.94353631693E+03  0.94353631693E+03  0.00000000000E+00 0. -1.
        -24    2    1    2    0    0 -0.74076832759E+02  0.69790088175E+02 -0.20911273379E+03  0.24534605143E+03  0.78156995587E+02 0.  0.
        254    2    1    2    0    0  0.74076832759E+02 -0.69790088175E+02 -0.40450512153E+03  0.10281087271E+04  0.93969416718E+03 0.  0.
         23    2    4    4    0    0  0.17689325340E+03  0.23996644636E+03 -0.57113283172E+03  0.65066697423E+03  0.91102587258E+02 0.  0.
         23    2    4    4    0    0 -0.10281642064E+03 -0.30975653454E+03  0.16662771019E+03  0.37744175287E+03  0.90427628299E+02 0.  0.
          1    1    3    3  502    0 -0.87948897689E+02  0.64920835508E+02 -0.20034691971E+03  0.22822929638E+03  0.00000000000E+00 0. -1.
         -2    1    3    3    0  502  0.13872064931E+02  0.48692526669E+01 -0.87658140807E+01  0.17116755051E+02  0.00000000000E+00 0.  1.
         13    1    5    5    0    0  0.93206002243E+02  0.71436212024E+02 -0.15951394600E+03  0.19807874750E+03  0.00000000000E+00 0. -1.
        -13    1    5    5    0    0  0.83687251161E+02  0.16853023434E+03 -0.41161888573E+03  0.45258822674E+03  0.00000000000E+00 0.  1.
          3    1    6    6  503    0 -0.54848749910E+02 -0.50225513693E+02  0.29396315132E+02  0.79969562558E+02  0.00000000000E+00 0. -1.
         -3    1    6    6    0  503 -0.47967670735E+02 -0.25953102084E+03  0.13723139506E+03  0.29747219031E+03  0.00000000000E+00 0.  1.
<mgrwt>
<rscale>  0 0.11158675E+04</rscale>
<asrwt>0</asrwt>
<pdfrwt beam="1">  1        1 0.14515943E+00 0.11158675E+04</pdfrwt>
<pdfrwt beam="2">  1       -2 0.50756687E-01 0.11158675E+04</pdfrwt>
<totfact> 0.53706415E+01</totfact>
</mgrwt>
</event>
<event>
12    5  0.5197392E-008  0.1611437E+04  0.7818608E-02  0.8813552E-01
         -2   -1    0    0    0  501 -0.00000000000E+00  0.00000000000E+00  0.10886411266E+04  0.10886411266E+04  0.00000000000E+00 0.  1.
          1   -1    0    0  501    0  0.00000000000E+00 -0.00000000000E+00 -0.59632367463E+03  0.59632367463E+03  0.00000000000E+00 0. -1.
        -24    2    1    2    0    0  0.35388567450E+03  0.29373765560E+03 -0.15028277191E+03  0.49017556250E+03  0.78551190962E+02 0.  0.
        254    2    1    2    0    0 -0.35388567450E+03 -0.29373765560E+03  0.64260022387E+03  0.11947892387E+04  0.89614139304E+03 0.  0.
         23    2    4    4    0    0 -0.52872045144E+03 -0.46045244386E+03  0.30592820974E+03  0.77039989217E+03  0.91444822185E+02 0.  0.
         23    2    4    4    0    0  0.17483477694E+03  0.16671478826E+03  0.33667201413E+03  0.42438934656E+03  0.91636523968E+02 0.  0.
          1    1    3    3  502    0  0.31893561677E+03  0.27087325230E+03 -0.11117068767E+03  0.43295631217E+03  0.00000000000E+00 0. -1.
         -2    1    3    3    0  502  0.34950057730E+02  0.22864403306E+02 -0.39112084243E+02  0.57219250324E+02  0.00000000000E+00 0.  1.
         13    1    5    5    0    0 -0.43361010243E+03 -0.32912280312E+03  0.22305029423E+03  0.58829497212E+03  0.00000000000E+00 0.  1.
        -13    1    5    5    0    0 -0.95110349011E+02 -0.13132964074E+03  0.82877915512E+02  0.18210492005E+03  0.00000000000E+00 0. -1.
          1    1    6    6  503    0  0.13478343382E+02  0.60789558108E+02  0.55938577096E+02  0.83702810722E+02  0.00000000000E+00 0. -1.
         -1    1    6    6    0  503  0.16135643356E+03  0.10592523015E+03  0.28073343703E+03  0.34068653584E+03  0.00000000000E+00 0.  1.
<mgrwt>
<rscale>  0 0.16114372E+04</rscale>
<asrwt>0</asrwt>
<pdfrwt beam="1">  1        1 0.91742104E-01 0.16114372E+04</pdfrwt>
<pdfrwt beam="2">  1       -2 0.16748325E+00 0.16114372E+04</pdfrwt>
<totfact> 0.64349431E+00</totfact>
</mgrwt>
</event>
<event>
12    5  0.5197392E-008  0.1291780E+04  0.7818608E-02  0.9036110E-01
          1   -1    0    0  501    0  0.00000000000E+00  0.00000000000E+00  0.11631710942E+04  0.11631710942E+04  0.00000000000E+00 0. -1.
         -2   -1    0    0    0  501 -0.00000000000E+00 -0.00000000000E+00 -0.35865196994E+03  0.35865196994E+03  0.00000000000E+00 0.  1.
        -24    2    1    2    0    0 -0.24557617859E+03  0.13511698115E+03  0.35297429014E+03  0.45787918879E+03  0.80611686134E+02 0.  0.
        254    2    1    2    0    0  0.24557617859E+03 -0.13511698115E+03  0.45154483408E+03  0.10639438753E+04  0.92169386161E+03 0.  0.
         23    2    4    4    0    0  0.55241723919E+03  0.28649236903E+02  0.42427206458E+03  0.70284345264E+03  0.89423426499E+02 0.  0.
         23    2    4    4    0    0 -0.30684106061E+03 -0.16376621806E+03  0.27272769501E+02  0.36110042266E+03  0.93160617439E+02 0.  0.
          3    1    3    3  502    0 -0.22289152288E+03  0.14342299710E+03  0.33772144530E+03  0.42930940088E+03  0.00000000000E+00 0. -1.
         -4    1    3    3    0  502 -0.22684655703E+02 -0.83060159464E+01  0.15252844834E+02  0.28569787902E+02  0.00000000000E+00 0.  1.
         13    1    5    5    0    0  0.47626051119E+03  0.38890104710E+02  0.39719644039E+03  0.62137068407E+03  0.00000000000E+00 0. -1.
        -13    1    5    5    0    0  0.76156728004E+02 -0.10240867807E+02  0.27075624190E+02  0.81472768574E+02  0.00000000000E+00 0.  1.
          2    1    6    6  503    0 -0.30001752327E+03 -0.16728971518E+03  0.11663083097E+02  0.34370392867E+03  0.00000000000E+00 0. -1.
         -2    1    6    6    0  503 -0.68235373327E+01  0.35234971211E+01  0.15609686404E+02  0.17396493995E+02  0.00000000000E+00 0.  1.
<mgrwt>
<rscale>  0 0.12917796E+04</rscale>
<asrwt>0</asrwt>
<pdfrwt beam="1">  1        1 0.17894940E+00 0.12917796E+04</pdfrwt>
<pdfrwt beam="2">  1       -2 0.55177227E-01 0.12917796E+04</pdfrwt>
<totfact> 0.30282500E+01</totfact>
</mgrwt>
</event>
<event>
12    5  0.5197392E-008  0.2043990E+04  0.7818608E-02  0.8586326E-01
         -4   -1    0    0    0  501 -0.00000000000E+00  0.00000000000E+00  0.12906531762E+04  0.12906531762E+04  0.00000000000E+00 0.  1.
          3   -1    0    0  501    0  0.00000000000E+00 -0.00000000000E+00 -0.80925974026E+03  0.80925974026E+03  0.00000000000E+00 0. -1.
        -24    2    1    2    0    0 -0.29464387007E+02 -0.49958816175E+03  0.86197025926E+03  0.99988979747E+03  0.79563796903E+02 0.  0.
        254    2    1    2    0    0  0.29464387007E+02  0.49958816175E+03 -0.38057682334E+03  0.11000231190E+04  0.90263816802E+03 0.  0.
         23    2    4    4    0    0  0.15007300550E+02  0.75234244080E+03 -0.32963762472E+03  0.82643516801E+03  0.89943070887E+02 0.  0.
         23    2    4    4    0    0  0.14457086457E+02 -0.25275427905E+03 -0.50939198611E+02  0.27358795096E+03  0.90342858217E+02 0.  0.
          1    1    3    3  502    0 -0.28477465025E+02 -0.69804666385E+02  0.10242470503E+03  0.12717891989E+03  0.00000000000E+00 0. -1.
         -2    1    3    3    0  502 -0.98692198286E+00 -0.42978349536E+03  0.75954555423E+03  0.87271087758E+03  0.00000000000E+00 0.  1.
         13    1    5    5    0    0 -0.19410266637E+02  0.64118746353E+03 -0.28017391628E+03  0.69999681799E+03  0.00000000000E+00 0. -1.
        -13    1    5    5    0    0  0.34417567187E+02  0.11115497727E+03 -0.49463708446E+02  0.12643835002E+03  0.00000000000E+00 0.  1.
          3    1    6    6  503    0  0.22807418474E+02 -0.23325550545E+03 -0.18853902530E+02  0.23512502802E+03  0.00000000000E+00 0. -1.
         -3    1    6    6    0  503 -0.83503320170E+01 -0.19498773595E+02 -0.32085296082E+02  0.38462922941E+02  0.00000000000E+00 0.  1.
<mgrwt>
<rscale>  0 0.20439899E+04</rscale>
<asrwt>0</asrwt>
<pdfrwt beam="1">  1        3 0.12450150E+00 0.20439899E+04</pdfrwt>
<pdfrwt beam="2">  1       -4 0.19856203E+00 0.20439899E+04</pdfrwt>
<totfact> 0.14723034E-01</totfact>
</mgrwt>
</event>
<event>
12    5  0.5197392E-008  0.1650797E+04  0.7818608E-02  0.8789935E-01
          1   -1    0    0  501    0  0.00000000000E+00  0.00000000000E+00  0.60516798154E+03  0.60516798154E+03  0.00000000000E+00 0. -1.
         -2   -1    0    0    0  501 -0.00000000000E+00 -0.00000000000E+00 -0.11257751297E+04  0.11257751297E+04  0.00000000000E+00 0.  1.
        -24    2    1    2    0    0  0.51719168696E+03  0.23821105058E+03 -0.32761265828E+02  0.57576196384E+03  0.78719710298E+02 0.  0.
        254    2    1    2    0    0 -0.51719168696E+03 -0.23821105058E+03 -0.48784588237E+03  0.11551811474E+04  0.87875942827E+03 0.  0.
         23    2    4    4    0    0 -0.67448039299E+03 -0.33788751861E+03 -0.17492901430E+03  0.77985154323E+03  0.92067875370E+02 0.  0.
         23    2    4    4    0    0  0.15728870603E+03  0.99676468028E+02 -0.31291686807E+03  0.37532960421E+03  0.90995660061E+02 0.  0.
          1    1    3    3  502    0  0.42974422282E+03  0.19568688275E+03  0.28450113533E+01  0.47220921975E+03  0.00000000000E+00 0. -1.
         -4    1    3    3    0  502  0.87447464138E+02  0.42524167830E+02 -0.35606277182E+02  0.10355274409E+03  0.00000000000E+00 0.  1.
         13    1    5    5    0    0 -0.14810286297E+03 -0.33365147577E+02 -0.38410571049E+02  0.15659841334E+03  0.00000000000E+00 0.  1.
        -13    1    5    5    0    0 -0.52637753002E+03 -0.30452237103E+03 -0.13651844325E+03  0.62325312989E+03  0.00000000000E+00 0. -1.
          1    1    6    6  503    0  0.35058719598E+02  0.61735474220E+02 -0.16564055959E+03  0.18021425465E+03  0.00000000000E+00 0. -1.
         -1    1    6    6    0  503  0.12222998643E+03  0.37940993807E+02 -0.14727630847E+03  0.19511534955E+03  0.00000000000E+00 0.  1.
<mgrwt>
<rscale>  0 0.16507975E+04</rscale>
<asrwt>0</asrwt>
<pdfrwt beam="1">  1        1 0.93102769E-01 0.16507975E+04</pdfrwt>
<pdfrwt beam="2">  1       -2 0.17319617E+00 0.16507975E+04</pdfrwt>
<totfact> 0.57182914E+00</totfact>
</mgrwt>
</event>
<event>
12    5  0.5197392E-008  0.1744853E+04  0.7818608E-02  0.8736189E-01
          1   -1    0    0  501    0  0.00000000000E+00  0.00000000000E+00  0.79359181016E+03  0.79359181016E+03  0.00000000000E+00 0. -1.
         -2   -1    0    0    0  501 -0.00000000000E+00 -0.00000000000E+00 -0.95909242847E+03  0.95909242847E+03  0.00000000000E+00 0.  1.
        -24    2    1    2    0    0  0.62701821601E+03  0.33139536029E+02 -0.14694623386E+03  0.64964913283E+03  0.78744701949E+02 0.  0.
        254    2    1    2    0    0 -0.62701821601E+03 -0.33139536029E+02 -0.18554384448E+02  0.11030351058E+04  0.90669295101E+03 0.  0.
         23    2    4    4    0    0  0.20795391440E+03  0.10411418758E+03  0.14185128805E+02  0.25125094112E+03  0.94027777638E+02 0.  0.
         23    2    4    4    0    0 -0.83497213040E+03 -0.13725372361E+03 -0.32739513252E+02  0.85178416468E+03  0.91909435227E+02 0.  0.
          3    1    3    3  502    0  0.12980136394E+01 -0.16407829621E+01 -0.72983617242E+01  0.75923047880E+01  0.00000000000E+00 0. -1.
         -4    1    3    3    0  502  0.62572020237E+03  0.34780318992E+02 -0.13964787214E+03  0.64205682804E+03  0.00000000000E+00 0.  1.
         13    1    5    5    0    0  0.10471253306E+03  0.92479672447E+02 -0.21604109415E+02  0.14136457102E+03  0.00000000000E+00 0.  1.
        -13    1    5    5    0    0  0.10324138133E+03  0.11634515137E+02  0.35789238220E+02  0.10988637010E+03  0.00000000000E+00 0. -1.
          1    1    6    6  503    0 -0.32959766814E+03 -0.88284065537E+01 -0.13578606654E+02  0.32999536688E+03  0.00000000000E+00 0. -1.
         -1    1    6    6    0  503 -0.50537446226E+03 -0.12842531706E+03 -0.19160906599E+02  0.52178879780E+03  0.00000000000E+00 0.  1.
<mgrwt>
<rscale>  0 0.17448529E+04</rscale>
<asrwt>0</asrwt>
<pdfrwt beam="1">  1        1 0.12209105E+00 0.17448529E+04</pdfrwt>
<pdfrwt beam="2">  1       -2 0.14755268E+00 0.17448529E+04</pdfrwt>
<totfact> 0.58187425E+00</totfact>
</mgrwt>
</event>
<event>
12    5  0.5197392E-008  0.2414488E+04  0.7818608E-02  0.8434099E-01
         -2   -1    0    0    0  501 -0.00000000000E+00  0.00000000000E+00  0.24795173821E+04  0.24795173821E+04  0.00000000000E+00 0.  1.
          1   -1    0    0  501    0  0.00000000000E+00 -0.00000000000E+00 -0.58779124468E+03  0.58779124468E+03  0.00000000000E+00 0. -1.
        -24    2    1    2    0    0 -0.20222873955E+03  0.32163898946E+02 -0.47554974350E+03  0.52394838069E+03  0.80270589826E+02 0.  0.
        254    2    1    2    0    0  0.20222873955E+03 -0.32163898946E+02  0.23672758809E+04  0.25433602461E+04  0.90705857890E+03 0.  0.
         23    2    4    4    0    0  0.34220562865E+03 -0.39434767755E+03  0.12998244973E+04  0.14037089094E+04  0.90775523240E+02 0.  0.
         23    2    4    4    0    0 -0.13997688910E+03  0.36218377860E+03  0.10674513836E+04  0.11396513367E+04  0.92639590732E+02 0.  0.
          1    1    3    3  502    0 -0.14670896613E+03  0.66161774853E+01 -0.40392061564E+03  0.42978966750E+03  0.00000000000E+00 0. -1.
         -2    1    3    3    0  502 -0.55519773422E+02  0.25547721460E+02 -0.71629127856E+02  0.94158713192E+02  0.00000000000E+00 0.  1.
         13    1    5    5    0    0  0.11432180145E+03 -0.13852917906E+03  0.33917139413E+03  0.38379296806E+03  0.00000000000E+00 0.  1.
        -13    1    5    5    0    0  0.22788382720E+03 -0.25581849849E+03  0.96065310313E+03  0.10199159413E+04  0.00000000000E+00 0. -1.
          1    1    6    6  503    0 -0.13778397702E+03  0.36765651656E+03  0.10417626903E+04  0.11132947684E+04  0.00000000000E+00 0. -1.
         -1    1    6    6    0  503 -0.21929120785E+01 -0.54727379594E+01  0.25688693379E+02  0.26356568283E+02  0.00000000000E+00 0.  1.
<mgrwt>
<rscale>  0 0.24144884E+04</rscale>
<asrwt>0</asrwt>
<pdfrwt beam="1">  1        1 0.90429424E-01 0.24144884E+04</pdfrwt>
<pdfrwt beam="2">  1       -2 0.38146421E+00 0.24144884E+04</pdfrwt>
<totfact> 0.27126591E-01</totfact>
</mgrwt>
</event>
<event>
12    5  0.5197392E-008  0.2094124E+04  0.7818608E-02  0.8563836E-01
          1   -1    0    0  501    0  0.00000000000E+00  0.00000000000E+00  0.25687344471E+04  0.25687344471E+04  0.00000000000E+00 0. -1.
         -2   -1    0    0    0  501 -0.00000000000E+00 -0.00000000000E+00 -0.42680106230E+03  0.42680106230E+03  0.00000000000E+00 0.  1.
        -24    2    1    2    0    0 -0.26732009543E+03  0.25547552438E+03  0.19128831324E+04  0.19499323752E+04  0.79916287287E+02 0.  0.
        254    2    1    2    0    0  0.26732009543E+03 -0.25547552438E+03  0.22905025246E+03  0.10456031342E+04  0.95083863986E+03 0.  0.
         23    2    4    4    0    0  0.19597946740E+03  0.59031771938E+01 -0.34305587393E+03  0.40608298536E+03  0.93665677882E+02 0.  0.
         23    2    4    4    0    0  0.71340628029E+02 -0.26137870158E+03  0.57210612639E+03  0.63952014881E+03  0.90952130465E+02 0.  0.
          1    1    3    3  502    0 -0.25841534329E+03  0.22691760129E+03  0.16573643560E+04  0.16926685133E+04  0.00000000000E+00 0. -1.
         -2    1    3    3    0  502 -0.89047521345E+01  0.28557923098E+02  0.25551877638E+03  0.25726386195E+03  0.00000000000E+00 0.  1.
         13    1    5    5    0    0  0.10070507434E+03 -0.27275933798E+02 -0.24082557111E+03  0.26245465182E+03  0.00000000000E+00 0. -1.
        -13    1    5    5    0    0  0.95274393056E+02  0.33179110992E+02 -0.10223030282E+03  0.14362833353E+03  0.00000000000E+00 0.  1.
          4    1    6    6  503    0  0.90068841152E+02 -0.24220258845E+03  0.52938183835E+03  0.58908371288E+03  0.00000000000E+00 0. -1.
         -4    1    6    6    0  503 -0.18728213123E+02 -0.19176113124E+02  0.42724288038E+02  0.50436435934E+02  0.00000000000E+00 0.  1.
<mgrwt>
<rscale>  0 0.20941238E+04</rscale>
<asrwt>0</asrwt>
<pdfrwt beam="1">  1        1 0.39518990E+00 0.20941238E+04</pdfrwt>
<pdfrwt beam="2">  1       -2 0.65661704E-01 0.20941238E+04</pdfrwt>
<totfact> 0.20961626E+00</totfact>
</mgrwt>
</event>
<event>
12    5  0.5197392E-008  0.2070892E+04  0.7818608E-02  0.8574175E-01
         -2   -1    0    0    0  501 -0.00000000000E+00  0.00000000000E+00  0.47235637129E+03  0.47235637129E+03  0.00000000000E+00 0.  1.
          1   -1    0    0  501    0  0.00000000000E+00 -0.00000000000E+00 -0.22697861755E+04  0.22697861755E+04  0.00000000000E+00 0. -1.
        -24    2    1    2    0    0  0.31736932764E+03  0.66752685536E+02  0.29003997196E+03  0.44228670154E+03  0.79467791417E+02 0.  0.
        254    2    1    2    0    0 -0.31736932764E+03 -0.66752685536E+02 -0.20874697761E+04  0.22998558452E+04  0.90919064630E+03 0.  0.
         23    2    4    4    0    0  0.14281142611E+02  0.37005501079E+03 -0.59180635414E+03  0.70427438029E+03  0.92860001531E+02 0.  0.
         23    2    4    4    0    0 -0.33165047025E+03 -0.43680769633E+03 -0.14956634220E+04  0.15955814649E+04  0.89878480833E+02 0.  0.
          3    1    3    3  502    0  0.17593333832E+03 -0.57452267618E+00  0.17305180306E+03  0.24677884057E+03  0.00000000000E+00 0. -1.
         -4    1    3    3    0  502  0.14143598932E+03  0.67327208213E+02  0.11698816890E+03  0.19550786097E+03  0.00000000000E+00 0.  1.
         13    1    5    5    0    0 -0.77181785190E+00  0.34396174234E+03 -0.49413306153E+03  0.60206125801E+03  0.00000000000E+00 0. -1.
        -13    1    5    5    0    0  0.15052960463E+02  0.26093268449E+02 -0.97673292604E+02  0.10221312228E+03  0.00000000000E+00 0.  1.
          4    1    6    6  503    0 -0.14901633543E+03 -0.24693593218E+03 -0.68698882141E+03  0.74507507244E+03  0.00000000000E+00 0.  1.
         -4    1    6    6    0  503 -0.18263413483E+03 -0.18987176415E+03 -0.80867460059E+03  0.85050639249E+03  0.00000000000E+00 0. -1.
<mgrwt>
<rscale>  0 0.20708916E+04</rscale>
<asrwt>0</asrwt>
<pdfrwt beam="1">  1        1 0.34919787E+00 0.20708916E+04</pdfrwt>
<pdfrwt beam="2">  1       -2 0.72670212E-01 0.20708916E+04</pdfrwt>
<totfact> 0.27072503E+00</totfact>
</mgrwt>
</event>
<event>
12    5  0.5197392E-008  0.1292965E+04  0.7818608E-02  0.9035163E-01
          1   -1    0    0  501    0  0.00000000000E+00  0.00000000000E+00  0.45875013391E+03  0.45875013391E+03  0.00000000000E+00 0. -1.
         -2   -1    0    0    0  501 -0.00000000000E+00 -0.00000000000E+00 -0.91103960207E+03  0.91103960207E+03  0.00000000000E+00 0.  1.
        -24    2    1    2    0    0 -0.12390896783E+03 -0.20667046618E+03  0.98271415192E+02  0.27213144513E+03  0.79574735205E+02 0.  0.
        254    2    1    2    0    0  0.12390896783E+03  0.20667046618E+03 -0.55056088335E+03  0.10976582909E+04  0.91851528202E+03 0.  0.
         23    2    4    4    0    0 -0.18488009794E+03  0.43668479256E+03 -0.50673886777E+03  0.69983677015E+03  0.90072004971E+02 0.  0.
         23    2    4    4    0    0  0.30878906577E+03 -0.23001432638E+03 -0.43822015578E+02  0.39782152070E+03  0.89912823374E+02 0.  0.
          3    1    3    3  502    0 -0.63926044943E+02 -0.16461836535E+03  0.47082689663E+02  0.18276357706E+03  0.00000000000E+00 0. -1.
         -4    1    3    3    0  502 -0.59982922882E+02 -0.42052100831E+02  0.51188725529E+02  0.89367868068E+02  0.00000000000E+00 0.  1.
         13    1    5    5    0    0  0.98143110506E+00  0.83645818683E+02 -0.92083038871E+02  0.12440607798E+03  0.00000000000E+00 0.  1.
        -13    1    5    5    0    0 -0.18586152905E+03  0.35303897388E+03 -0.41465582890E+03  0.57543069217E+03  0.00000000000E+00 0. -1.
          1    1    6    6  503    0  0.29339077766E+03 -0.23174306986E+03 -0.56087792228E+02  0.37805930657E+03  0.00000000000E+00 0. -1.
         -1    1    6    6    0  503  0.15398288103E+02  0.17287434830E+01  0.12265776650E+02  0.19762214131E+02  0.00000000000E+00 0.  1.
<mgrwt>
<rscale>  0 0.12929649E+04</rscale>
<asrwt>0</asrwt>
<pdfrwt beam="1">  1        1 0.70576944E-01 0.12929649E+04</pdfrwt>
<pdfrwt beam="2">  1       -2 0.14015994E+00 0.12929649E+04</pdfrwt>
<totfact> 0.15338312E+01</totfact>
</mgrwt>
</event>
<event>
12    5  0.5197392E-008  0.1369985E+04  0.7818608E-02  0.8975836E-01
          1   -1    0    0  501    0  0.00000000000E+00  0.00000000000E+00  0.11934397685E+04  0.11934397685E+04  0.00000000000E+00 0. -1.
         -2   -1    0    0    0  501 -0.00000000000E+00 -0.00000000000E+00 -0.39316182686E+03  0.39316182686E+03  0.00000000000E+00 0.  1.
        -24    2    1    2    0    0  0.25525209191E+03  0.17354072860E+03  0.50760711448E+03  0.59942307703E+03  0.79831245091E+02 0.  0.
        254    2    1    2    0    0 -0.25525209191E+03 -0.17354072860E+03  0.29267082713E+03  0.98717851830E+03  0.89083960342E+03 0.  0.
         23    2    4    4    0    0 -0.40920565895E+01 -0.50714699112E+03  0.15943237410E+03  0.53942748714E+03  0.91370216377E+02 0.  0.
         23    2    4    4    0    0 -0.25116003532E+03  0.33360626252E+03  0.13323845303E+03  0.44775103116E+03  0.91400212278E+02 0.  0.
          1    1    3    3  502    0  0.21509101528E+03  0.10792384338E+03  0.36101780317E+03  0.43387274059E+03  0.00000000000E+00 0. -1.
         -2    1    3    3    0  502  0.40161076627E+02  0.65616885222E+02  0.14658931132E+03  0.16555033644E+03  0.00000000000E+00 0.  1.
         13    1    5    5    0    0  0.41712711339E+02 -0.30873341622E+03  0.89878240657E+02  0.32424430715E+03  0.00000000000E+00 0. -1.
        -13    1    5    5    0    0 -0.45804767928E+02 -0.19841357490E+03  0.69554133439E+02  0.21518317999E+03  0.00000000000E+00 0.  1.
          3    1    6    6  503    0 -0.23760932270E+03  0.33676202464E+03  0.13507068167E+03  0.43371758151E+03  0.00000000000E+00 0. -1.
         -3    1    6    6    0  503 -0.13550712627E+02 -0.31557621168E+01 -0.18322286334E+01  0.14033449647E+02  0.00000000000E+00 0.  1.
<mgrwt>
<rscale>  0 0.13699853E+04</rscale>
<asrwt>0</asrwt>
<pdfrwt beam="1">  1        1 0.18360612E+00 0.13699853E+04</pdfrwt>
<pdfrwt beam="2">  1       -2 0.60486435E-01 0.13699853E+04</pdfrwt>
<totfact> 0.23578762E+01</totfact>
</mgrwt>
</event>
<event>
12    5  0.5197392E-008  0.2437933E+04  0.7818608E-02  0.8425437E-01
          1   -1    0    0  501    0  0.00000000000E+00  0.00000000000E+00  0.90240937675E+03  0.90240937675E+03  0.00000000000E+00 0. -1.
         -2   -1    0    0    0  501 -0.00000000000E+00 -0.00000000000E+00 -0.16465696912E+04  0.16465696912E+04  0.00000000000E+00 0.  1.
        -24    2    1    2    0    0  0.73628609521E+03  0.72104861923E+03 -0.83900499948E+02  0.10369817720E+04  0.79142759319E+02 0.  0.
        254    2    1    2    0    0 -0.73628609521E+03 -0.72104861923E+03 -0.66025981446E+03  0.15119972959E+04  0.88778627768E+03 0.  0.
         23    2    4    4    0    0 -0.20531624037E+03 -0.30928387063E+03 -0.73686358852E+03  0.83009172624E+03  0.90956334003E+02 0.  0.
         23    2    4    4    0    0 -0.53096985483E+03 -0.41176474860E+03  0.76603774066E+02  0.68190556963E+03  0.87452116940E+02 0.  0.
          1    1    3    3  502    0  0.20699612745E+03  0.23816627902E+03  0.61298186582E+00  0.31554864758E+03  0.00000000000E+00 0. -1.
         -2    1    3    3    0  502  0.52928996776E+03  0.48288234021E+03 -0.84513481814E+02  0.72143312446E+03  0.00000000000E+00 0.  1.
         13    1    5    5    0    0 -0.15819228484E+03 -0.15932809864E+03 -0.41233010636E+03  0.46949585580E+03  0.00000000000E+00 0. -1.
        -13    1    5    5    0    0 -0.47123955527E+02 -0.14995577199E+03 -0.32453348216E+03  0.36059587045E+03  0.00000000000E+00 0.  1.
          3    1    6    6  503    0 -0.19644583325E+03 -0.17691661980E+03  0.68487881725E+02  0.27309530517E+03  0.00000000000E+00 0. -1.
         -3    1    6    6    0  503 -0.33452402159E+03 -0.23484812879E+03  0.81158923402E+01  0.40881026446E+03  0.00000000000E+00 0.  1.
<mgrwt>
<rscale>  0 0.24379335E+04</rscale>
<asrwt>0</asrwt>
<pdfrwt beam="1">  1        1 0.13883221E+00 0.24379335E+04</pdfrwt>
<pdfrwt beam="2">  1       -2 0.25331841E+00 0.24379335E+04</pdfrwt>
<totfact> 0.86973745E-01</totfact>
</mgrwt>
</event>
<event>
12    5  0.5197392E-008  0.1467855E+04  0.7818608E-02  0.8906115E-01
         -2   -1    0    0    0  501 -0.00000000000E+00  0.00000000000E+00  0.25746993065E+04  0.25746993065E+04  0.00000000000E+00 0.  1.
          1   -1    0    0  501    0  0.00000000000E+00 -0.00000000000E+00 -0.20920860663E+03  0.20920860663E+03  0.00000000000E+00 0. -1.
        -24    2    1    2    0    0  0.43337370620E+03  0.83010738988E+02  0.54840967421E+03  0.70854115121E+03  0.81079221662E+02 0.  0.
        254    2    1    2    0    0 -0.43337370620E+03 -0.83010738988E+02  0.18170810257E+04  0.20753667620E+04  0.90036669787E+03 0.  0.
         23    2    4    4    0    0  0.26943931126E+02  0.34993727733E+03  0.71424813300E+03  0.80091083329E+03  0.90142630860E+02 0.  0.
         23    2    4    4    0    0 -0.46031763733E+03 -0.43294801632E+03  0.11028328927E+04  0.12744559287E+04  0.93065637075E+02 0.  0.
          3    1    3    3  502    0  0.21483284558E+03  0.18008412169E+02  0.21371547693E+03  0.30356508286E+03  0.00000000000E+00 0. -1.
         -4    1    3    3    0  502  0.21854086062E+03  0.65002326819E+02  0.33469419728E+03  0.40497606836E+03  0.00000000000E+00 0.  1.
         13    1    5    5    0    0  0.37099329093E+02  0.32686937129E+03  0.69589106988E+03  0.76973003530E+03  0.00000000000E+00 0. -1.
        -13    1    5    5    0    0 -0.10155397967E+02  0.23067906038E+02  0.18357063124E+02  0.31180797991E+02  0.00000000000E+00 0.  1.
          4    1    6    6  503    0 -0.39002465760E+03 -0.39354903053E+03  0.10058768340E+04  0.11483850740E+04  0.00000000000E+00 0. -1.
         -4    1    6    6    0  503 -0.70292979722E+02 -0.39398985783E+02  0.96956058684E+02  0.12607085466E+03  0.00000000000E+00 0.  1.
<mgrwt>
<rscale>  0 0.14678546E+04</rscale>
<asrwt>0</asrwt>
<pdfrwt beam="1">  1        1 0.32185941E-01 0.14678546E+04</pdfrwt>
<pdfrwt beam="2">  1       -2 0.39610756E+00 0.14678546E+04</pdfrwt>
<totfact> 0.94358307E-01</totfact>
</mgrwt>
</event>
<event>
12    5  0.5197392E-008  0.2454384E+04  0.7818608E-02  0.8419419E-01
          1   -1    0    0  501    0  0.00000000000E+00  0.00000000000E+00  0.17441658336E+04  0.17441658336E+04  0.00000000000E+00 0. -1.
         -2   -1    0    0    0  501 -0.00000000000E+00 -0.00000000000E+00 -0.86345001978E+03  0.86345001978E+03  0.00000000000E+00 0.  1.
        -24    2    1    2    0    0  0.72983484215E+02  0.76018337802E+03 -0.40475143357E+03  0.86763068254E+03  0.75854605100E+02 0.  0.
        254    2    1    2    0    0 -0.72983484215E+02 -0.76018337802E+03  0.12854672474E+04  0.17399851708E+04  0.88989718137E+03 0.  0.
         23    2    4    4    0    0  0.87755714481E+02 -0.30450830013E+03 -0.33386925751E+02  0.33250877015E+03  0.94979077383E+02 0.  0.
         23    2    4    4    0    0 -0.16073919870E+03 -0.45567507789E+03  0.13188541732E+04  0.14074764007E+04  0.90203225329E+02 0.  0.
          1    1    3    3  502    0  0.39052070268E+01  0.42373033360E+01 -0.11167587588E+02  0.12566638135E+02  0.00000000000E+00 0. -1.
         -2    1    3    3    0  502  0.69078277188E+02  0.75594607469E+03 -0.39358384599E+03  0.85506404441E+03  0.00000000000E+00 0.  1.
         13    1    5    5    0    0  0.50337471675E+02 -0.65636167205E+02 -0.37193885642E+02  0.90693729822E+02  0.00000000000E+00 0. -1.
        -13    1    5    5    0    0  0.37418242806E+02 -0.23887213292E+03  0.38069598911E+01  0.24181504032E+03  0.00000000000E+00 0.  1.
          3    1    6    6  503    0 -0.53122527250E+02 -0.83988575948E+02  0.19483813847E+03  0.21871896121E+03  0.00000000000E+00 0. -1.
         -3    1    6    6    0  503 -0.10761667145E+03 -0.37168650195E+03  0.11240160347E+04  0.11887574395E+04  0.00000000000E+00 0.  1.
<mgrwt>
<rscale>  0 0.24543839E+04</rscale>
<asrwt>0</asrwt>
<pdfrwt beam="1">  1        1 0.26833320E+00 0.24543839E+04</pdfrwt>
<pdfrwt beam="2">  1       -2 0.13283847E+00 0.24543839E+04</pdfrwt>
<totfact> 0.14322709E+00</totfact>
</mgrwt>
</event>
<event>
12    5  0.5197392E-008  0.2108211E+04  0.7818608E-02  0.8557635E-01
          1   -1    0    0  501    0  0.00000000000E+00  0.00000000000E+00  0.10146532495E+04  0.10146532495E+04  0.00000000000E+00 0. -1.
         -2   -1    0    0    0  501 -0.00000000000E+00 -0.00000000000E+00 -0.10950921389E+04  0.10950921389E+04  0.00000000000E+00 0.  1.
        -24    2    1    2    0    0 -0.16995013245E+03 -0.29264097051E+03  0.75752947173E+03  0.83342135328E+03  0.78857253422E+02 0.  0.
        254    2    1    2    0    0  0.16995013245E+03  0.29264097051E+03 -0.83796836104E+03  0.12763240351E+04  0.90127148153E+03 0.  0.
         23    2    4    4    0    0  0.20189986238E+03 -0.18362183344E+03 -0.72105956942E+03  0.77652895191E+03  0.92681057123E+02 0.  0.
         23    2    4    4    0    0 -0.31949729933E+02  0.47626280395E+03 -0.11690879162E+03  0.49979508323E+03  0.90996791082E+02 0.  0.
          3    1    3    3  502    0 -0.93873824826E+02 -0.15036399682E+03  0.48916509231E+03  0.52029233519E+03  0.00000000000E+00 0. -1.
         -4    1    3    3    0  502 -0.76076307625E+02 -0.14227697369E+03  0.26836437942E+03  0.31312901808E+03  0.00000000000E+00 0.  1.
         13    1    5    5    0    0  0.14452143998E+03 -0.78509983781E+02 -0.47934309722E+03  0.50677417952E+03  0.00000000000E+00 0. -1.
        -13    1    5    5    0    0  0.57378422404E+02 -0.10511184966E+03 -0.24171647220E+03  0.26975477239E+03  0.00000000000E+00 0.  1.
          1    1    6    6  503    0 -0.53992864233E+02  0.16683427887E+03 -0.32964016429E+02  0.17842514501E+03  0.00000000000E+00 0. -1.
         -1    1    6    6    0  503  0.22043134300E+02  0.30942852508E+03 -0.83944775190E+02  0.32136993821E+03  0.00000000000E+00 0.  1.
<mgrwt>
<rscale>  0 0.21082114E+04</rscale>
<asrwt>0</asrwt>
<pdfrwt beam="1">  1        1 0.15610050E+00 0.21082114E+04</pdfrwt>
<pdfrwt beam="2">  1       -2 0.16847571E+00 0.21082114E+04</pdfrwt>
<totfact> 0.25948905E+00</totfact>
</mgrwt>
</event>
<event>
12    5  0.5197392E-008  0.2261526E+04  0.7818608E-02  0.8493247E-01
         -2   -1    0    0    0  501 -0.00000000000E+00  0.00000000000E+00  0.44312665396E+03  0.44312665396E+03  0.00000000000E+00 0.  1.
          1   -1    0    0  501    0  0.00000000000E+00 -0.00000000000E+00 -0.28854624633E+04  0.28854624633E+04  0.00000000000E+00 0. -1.
        -24    2    1    2    0    0 -0.69780015134E+03 -0.55703518978E+03 -0.15102494669E+04  0.17562276098E+04  0.79175193689E+02 0.  0.
        254    2    1    2    0    0  0.69780015134E+03  0.55703518978E+03 -0.93208634248E+03  0.15723615075E+04  0.89795462387E+03 0.  0.
         23    2    4    4    0    0  0.79296921647E+03  0.14901424911E+03 -0.45418241319E+03  0.93031951102E+03  0.90594168744E+02 0.  0.
         23    2    4    4    0    0 -0.95169065137E+02  0.40802094068E+03 -0.47790392929E+03  0.64204199647E+03  0.91035820523E+02 0.  0.
          1    1    3    3  502    0 -0.59864762797E+03 -0.50336350734E+03 -0.13516330477E+04  0.15616227774E+04  0.00000000000E+00 0. -1.
         -2    1    3    3    0  502 -0.99152523365E+02 -0.53671682443E+02 -0.15861641915E+03  0.19460483244E+03  0.00000000000E+00 0.  1.
         13    1    5    5    0    0  0.75420251659E+03  0.15945642113E+03 -0.44077073279E+03  0.88799021681E+03  0.00000000000E+00 0. -1.
        -13    1    5    5    0    0  0.38766699887E+02 -0.10442172023E+02 -0.13411680400E+02  0.42329294204E+02  0.00000000000E+00 0.  1.
          4    1    6    6  503    0 -0.10403105890E+03  0.29067072363E+03 -0.31486881283E+03  0.44096972695E+03  0.00000000000E+00 0. -1.
         -4    1    6    6    0  503  0.88619937640E+01  0.11735021705E+03 -0.16303511645E+03  0.20107226952E+03  0.00000000000E+00 0.  1.
<mgrwt>
<rscale>  0 0.22615263E+04</rscale>
<asrwt>0</asrwt>
<pdfrwt beam="1">  1        1 0.44391730E+00 0.22615263E+04</pdfrwt>
<pdfrwt beam="2">  1       -2 0.68173332E-01 0.22615263E+04</pdfrwt>
<totfact> 0.11365209E+00</totfact>
</mgrwt>
</event>
<event>
12    5  0.5197392E-008  0.1836424E+04  0.7818608E-02  0.8687166E-01
          1   -1    0    0  501    0  0.00000000000E+00  0.00000000000E+00  0.12532839438E+04  0.12532839438E+04  0.00000000000E+00 0. -1.
         -2   -1    0    0    0  501 -0.00000000000E+00 -0.00000000000E+00 -0.67272359593E+03  0.67272359593E+03  0.00000000000E+00 0.  1.
        -24    2    1    2    0    0 -0.83857020724E+02  0.60684932420E+02  0.94204148324E+03  0.95108730642E+03  0.80064020286E+02 0.  0.
        254    2    1    2    0    0  0.83857020724E+02 -0.60684932420E+02 -0.36148113535E+03  0.97492023332E+03  0.89949218405E+03 0.  0.
         23    2    4    4    0    0  0.27626006595E+03 -0.21451829292E+02 -0.59123259130E+03  0.65946114465E+03  0.92483616222E+02 0.  0.
         23    2    4    4    0    0 -0.19240304523E+03 -0.39233103128E+02  0.22975145595E+03  0.31545908866E+03  0.90391022313E+02 0.  0.
          1    1    3    3  502    0 -0.56291365008E+02  0.79342234592E+02  0.67308485587E+03  0.68007876835E+03  0.00000000000E+00 0. -1.
         -2    1    3    3    0  502 -0.27565655716E+02 -0.18657302172E+02  0.26895662737E+03  0.27100853806E+03  0.00000000000E+00 0.  1.
         13    1    5    5    0    0  0.55422216872E+02 -0.43039756969E+02 -0.13658590410E+03  0.15355699919E+03  0.00000000000E+00 0.  1.
        -13    1    5    5    0    0  0.22083784908E+03  0.21587927677E+02 -0.45464668720E+03  0.50590414546E+03  0.00000000000E+00 0. -1.
          4    1    6    6  503    0 -0.88724489479E+02  0.20214475168E+02  0.13565559389E+03  0.16334962563E+03  0.00000000000E+00 0.  1.
         -4    1    6    6    0  503 -0.10367855575E+03 -0.59447578296E+02  0.94095862059E+02  0.15210946303E+03  0.00000000000E+00 0. -1.
<mgrwt>
<rscale>  0 0.18364244E+04</rscale>
<asrwt>0</asrwt>
<pdfrwt beam="1">  1        1 0.19281291E+00 0.18364244E+04</pdfrwt>
<pdfrwt beam="2">  1       -2 0.10349594E+00 0.18364244E+04</pdfrwt>
<totfact> 0.61373739E+00</totfact>
</mgrwt>
</event>
<event>
12    5  0.5197392E-008  0.1759226E+04  0.7818608E-02  0.8728288E-01
          1   -1    0    0  501    0  0.00000000000E+00  0.00000000000E+00  0.30733423996E+04  0.30733423996E+04  0.00000000000E+00 0. -1.
         -2   -1    0    0    0  501 -0.00000000000E+00 -0.00000000000E+00 -0.25175168721E+03  0.25175168721E+03  0.00000000000E+00 0.  1.
        -24    2    1    2    0    0  0.85796329214E+02  0.61166329592E+03  0.66135761111E+03  0.90847408633E+03  0.80238881322E+02 0.  0.
        254    2    1    2    0    0 -0.85796329214E+02 -0.61166329592E+03  0.21602331013E+04  0.24166200005E+04  0.88991694963E+03 0.  0.
         23    2    4    4    0    0  0.38416202122E+03 -0.16217694765E+03  0.86085871660E+03  0.96083200805E+03  0.90766716645E+02 0.  0.
         23    2    4    4    0    0 -0.46995835043E+03 -0.44948634827E+03  0.12993743847E+04  0.14557879925E+04  0.89699826991E+02 0.  0.
          1    1    3    3  502    0  0.73036003840E+02  0.36581012840E+03  0.44555730964E+03  0.58109605408E+03  0.00000000000E+00 0. -1.
         -2    1    3    3    0  502  0.12760325374E+02  0.24585316752E+03  0.21580030148E+03  0.32737803225E+03  0.00000000000E+00 0.  1.
         13    1    5    5    0    0  0.22933163346E+03 -0.71074499828E+02  0.57629073639E+03  0.62430408895E+03  0.00000000000E+00 0.  1.
        -13    1    5    5    0    0  0.15483038776E+03 -0.91102447818E+02  0.28456798021E+03  0.33652791910E+03  0.00000000000E+00 0. -1.
          1    1    6    6  503    0 -0.41975672405E+03 -0.36059468889E+03  0.11248127709E+04  0.12535661157E+04  0.00000000000E+00 0. -1.
         -1    1    6    6    0  503 -0.50201626380E+02 -0.88891659385E+02  0.17456161385E+03  0.20222187673E+03  0.00000000000E+00 0.  1.
<mgrwt>
<rscale>  0 0.17592261E+04</rscale>
<asrwt>0</asrwt>
<pdfrwt beam="1">  1        1 0.47282188E+00 0.17592261E+04</pdfrwt>
<pdfrwt beam="2">  1       -2 0.38731031E-01 0.17592261E+04</pdfrwt>
<totfact> 0.27772948E+00</totfact>
</mgrwt>
</event>
<event>
12    5  0.9005600E-008  0.1996981E+04  0.7818608E-02  0.8608033E-01
         -2   -1    0    0    0  501 -0.00000000000E+00  0.00000000000E+00  0.42835156884E+03  0.42835156884E+03  0.00000000000E+00 0.  1.
          1   -1    0    0  501    0  0.00000000000E+00 -0.00000000000E+00 -0.23274888719E+04  0.23274888719E+04  0.00000000000E+00 0. -1.
        -24    2    1    2    0    0  0.15369384897E+03 -0.24789744879E+03  0.25987482114E+03  0.39886890073E+03  0.80539015275E+02 0.  0.
        254    2    1    2    0    0 -0.15369384897E+03  0.24789744879E+03 -0.21590121242E+04  0.23569715400E+04  0.89939231909E+03 0.  0.
         23    2    4    4    0    0 -0.41242441896E+03  0.41171050192E+03 -0.16797693585E+04  0.17807887007E+04  0.99919268358E+02 0.  0.
         23    2    4    4    0    0  0.25873056998E+03 -0.16381305313E+03 -0.47924276569E+03  0.57618283925E+03  0.92394867661E+02 0.  0.
          1    1    3    3  502    0  0.15777982421E+02  0.26318861183E+01  0.19966528547E+02  0.25583858506E+02  0.00000000000E+00 0. -1.
         -2    1    3    3    0  502  0.13791586655E+03 -0.25052933491E+03  0.23990829259E+03  0.37328504223E+03  0.00000000000E+00 0.  1.
         13    1    5    5    0    0 -0.39816603615E+03  0.39965006014E+03 -0.16615062670E+04  0.17546678997E+04  0.00000000000E+00 0. -1.
        -13    1    5    5    0    0 -0.14258382803E+02  0.12060441774E+02 -0.18263091461E+02  0.26120801015E+02  0.00000000000E+00 0.  1.
          3    1    6    6  503    0  0.26418349121E+03 -0.15557877393E+03 -0.44389737170E+03  0.53948359430E+03  0.00000000000E+00 0. -1.
         -3    1    6    6    0  503 -0.54529212220E+01 -0.82342791956E+01 -0.35345393987E+02  0.36699244949E+02  0.00000000000E+00 0.  1.
<mgrwt>
<rscale>  0 0.19969812E+04</rscale>
<asrwt>0</asrwt>
<pdfrwt beam="1">  1        1 0.35807521E+00 0.19969812E+04</pdfrwt>
<pdfrwt beam="2">  1       -2 0.65900241E-01 0.19969812E+04</pdfrwt>
<totfact> 0.30791208E+00</totfact>
</mgrwt>
</event>
<event>
12    5  0.5197392E-008  0.1867233E+04  0.7818608E-02  0.8671341E-01
         -2   -1    0    0    0  501 -0.00000000000E+00  0.00000000000E+00  0.58800922773E+03  0.58800922773E+03  0.00000000000E+00 0.  1.
          1   -1    0    0  501    0  0.00000000000E+00 -0.00000000000E+00 -0.14823570226E+04  0.14823570226E+04  0.00000000000E+00 0. -1.
        -24    2    1    2    0    0  0.51542203705E+03 -0.35466749597E+03  0.39428324284E+02  0.63281881894E+03  0.86349035192E+02 0.  0.
        254    2    1    2    0    0 -0.51542203705E+03  0.35466749597E+03 -0.93377611913E+03  0.14375474314E+04  0.89618963828E+03 0.  0.
         23    2    4    4    0    0  0.19735890112E+03  0.13601276843E+03 -0.52121104528E+03  0.58086703269E+03  0.91079892990E+02 0.  0.
         23    2    4    4    0    0 -0.71278093817E+03  0.21865472754E+03 -0.41256507385E+03  0.85668039867E+03  0.88457953915E+02 0.  0.
          1    1    3    3  502    0  0.26289819657E+02 -0.44004856009E+02  0.12405145226E+02  0.52739639722E+02  0.00000000000E+00 0. -1.
         -2    1    3    3    0  502  0.48913221739E+03 -0.31066263996E+03  0.27023179058E+02  0.58007917922E+03  0.00000000000E+00 0.  1.
         13    1    5    5    0    0  0.36006086293E+02 -0.10725046362E+02 -0.61978650884E+02  0.72476327411E+02  0.00000000000E+00 0. -1.
        -13    1    5    5    0    0  0.16135281483E+03  0.14673781479E+03 -0.45923239440E+03  0.50839070528E+03  0.00000000000E+00 0.  1.
          4    1    6    6  503    0 -0.34346380034E+03  0.14669569497E+03 -0.18285178457E+03  0.41583865162E+03  0.00000000000E+00 0. -1.
         -4    1    6    6    0  503 -0.36931713783E+03  0.71959032566E+02 -0.22971328928E+03  0.44084174704E+03  0.00000000000E+00 0.  1.
<mgrwt>
<rscale>  0 0.18672328E+04</rscale>
<asrwt>0</asrwt>
<pdfrwt beam="1">  1        1 0.22805492E+00 0.18672328E+04</pdfrwt>
<pdfrwt beam="2">  1       -2 0.90462960E-01 0.18672328E+04</pdfrwt>
<totfact> 0.57862418E+00</totfact>
</mgrwt>
</event>
<event>
12    5  0.5197392E-008  0.2118328E+04  0.7818608E-02  0.8553213E-01
         -2   -1    0    0    0  501 -0.00000000000E+00  0.00000000000E+00  0.85992026137E+03  0.85992026137E+03  0.00000000000E+00 0.  1.
          1   -1    0    0  501    0  0.00000000000E+00 -0.00000000000E+00 -0.13045723769E+04  0.13045723769E+04  0.00000000000E+00 0. -1.
        -24    2    1    2    0    0 -0.36447510232E+03 -0.10715621066E+03  0.61486005680E+03  0.72704338754E+03  0.78833014752E+02 0.  0.
        254    2    1    2    0    0  0.36447510232E+03  0.10715621066E+03 -0.10595121724E+04  0.14374492508E+04  0.89407480191E+03 0.  0.
         23    2    4    4    0    0  0.79692403741E+02  0.24112552808E+03  0.53242079055E+02  0.27705519287E+03  0.97120859798E+02 0.  0.
         23    2    4    4    0    0  0.28478269858E+03 -0.13396931742E+03 -0.11127542514E+04  0.11603940579E+04  0.96142509345E+02 0.  0.
          3    1    3    3  502    0 -0.50618882298E+02 -0.10793760543E+02  0.41514202813E+02  0.66349118660E+02  0.00000000000E+00 0. -1.
         -4    1    3    3    0  502 -0.31385622003E+03 -0.96362450116E+02  0.57334585399E+03  0.66069426888E+03  0.00000000000E+00 0.  1.
         13    1    5    5    0    0  0.55005268808E+02  0.16621676419E+03 -0.10861646210E+02  0.17541826487E+03  0.00000000000E+00 0.  1.
        -13    1    5    5    0    0  0.24687134934E+02  0.74908763890E+02  0.64103725265E+02  0.10163692799E+03  0.00000000000E+00 0. -1.
          2    1    6    6  503    0  0.10136819213E+03 -0.12673418286E+02 -0.25020784708E+03  0.27025930631E+03  0.00000000000E+00 0. -1.
         -2    1    6    6    0  503  0.18341450645E+03 -0.12129589913E+03 -0.86254640434E+03  0.89013475157E+03  0.00000000000E+00 0.  1.
<mgrwt>
<rscale>  0 0.21183278E+04</rscale>
<asrwt>0</asrwt>
<pdfrwt beam="1">  1        1 0.20070344E+00 0.21183278E+04</pdfrwt>
<pdfrwt beam="2">  1       -2 0.13229542E+00 0.21183278E+04</pdfrwt>
<totfact> 0.30050232E+00</totfact>
</mgrwt>
</event>
<event>
12    5  0.5197392E-008  0.2963111E+04  0.7818608E-02  0.8254344E-01
          1   -1    0    0  501    0  0.00000000000E+00  0.00000000000E+00  0.13219033100E+04  0.13219033100E+04  0.00000000000E+00 0. -1.
         -2   -1    0    0    0  501 -0.00000000000E+00 -0.00000000000E+00 -0.16604896267E+04  0.16604896267E+04  0.00000000000E+00 0.  1.
        -24    2    1    2    0    0  0.10291610031E+04  0.64804361696E+03 -0.72230515601E+03  0.14168773164E+04  0.81753847709E+02 0.  0.
        254    2    1    2    0    0 -0.10291610031E+04 -0.64804361696E+03  0.38371883929E+03  0.15655156202E+04  0.90800116177E+03 0.  0.
         23    2    4    4    0    0 -0.10230341874E+04 -0.63719975985E+03  0.39311798868E+02  0.12091743938E+04  0.89077575936E+02 0.  0.
         23    2    4    4    0    0 -0.61268156860E+01 -0.10843857117E+02  0.34440704043E+03  0.35634122643E+03  0.90596539963E+02 0.  0.
          3    1    3    3  502    0  0.15804440334E+03  0.66835795065E+02 -0.10911775252E+03  0.20335127451E+03  0.00000000000E+00 0. -1.
         -4    1    3    3    0  502  0.87111659974E+03  0.58120782190E+03 -0.61318740349E+03  0.12135260419E+04  0.00000000000E+00 0.  1.
         13    1    5    5    0    0 -0.27084108207E+02 -0.31006557408E+02 -0.94019539056E+01  0.42229755587E+02  0.00000000000E+00 0. -1.
        -13    1    5    5    0    0 -0.99595007919E+03 -0.60619320244E+03  0.48713752774E+02  0.11669446382E+04  0.00000000000E+00 0.  1.
          3    1    6    6  503    0 -0.31701704213E+02  0.15726011376E+02  0.60817640200E+02  0.70363988256E+02  0.00000000000E+00 0. -1.
         -3    1    6    6    0  503  0.25574888527E+02 -0.26569868493E+02  0.28358940023E+03  0.28597723818E+03  0.00000000000E+00 0.  1.
<mgrwt>
<rscale>  0 0.29631110E+04</rscale>
<asrwt>0</asrwt>
<pdfrwt beam="1">  1        1 0.20336974E+00 0.29631110E+04</pdfrwt>
<pdfrwt beam="2">  1       -2 0.25545994E+00 0.29631110E+04</pdfrwt>
<totfact> 0.38903120E-01</totfact>
</mgrwt>
</event>
<event>
12    5  0.5197392E-008  0.1652496E+04  0.7818608E-02  0.8788931E-01
         -2   -1    0    0    0  501 -0.00000000000E+00  0.00000000000E+00  0.40993030178E+03  0.40993030178E+03  0.00000000000E+00 0.  1.
          1   -1    0    0  501    0  0.00000000000E+00 -0.00000000000E+00 -0.16653696315E+04  0.16653696315E+04  0.00000000000E+00 0. -1.
        -24    2    1    2    0    0 -0.30004677719E+03  0.48576065338E+03 -0.55939410408E+03  0.80326320346E+03  0.79489178402E+02 0.  0.
        254    2    1    2    0    0  0.30004677719E+03 -0.48576065338E+03 -0.69604522561E+03  0.12720367298E+04  0.89866957495E+03 0.  0.
         23    2    4    4    0    0  0.93499537699E+01 -0.88559344792E+02  0.20490378384E+03  0.24138817286E+03  0.91392068462E+02 0.  0.
         23    2    4    4    0    0  0.29069682342E+03 -0.39720130859E+03 -0.90094900945E+03  0.10306485569E+04  0.90850468256E+02 0.  0.
          3    1    3    3  502    0 -0.27478532211E+03  0.42309616048E+03 -0.45776209116E+03  0.68122203896E+03  0.00000000000E+00 0. -1.
         -4    1    3    3    0  502 -0.25261455072E+02  0.62664492901E+02 -0.10163201291E+03  0.12204116450E+03  0.00000000000E+00 0.  1.
         13    1    5    5    0    0  0.14808039663E+02 -0.33238415289E+01 -0.40034476211E+01  0.15695653985E+02  0.00000000000E+00 0.  1.
        -13    1    5    5    0    0 -0.54580858926E+01 -0.85235503264E+02  0.20890723146E+03  0.22569251887E+03  0.00000000000E+00 0. -1.
          3    1    6    6  503    0  0.79115149238E+02 -0.13744823244E+03 -0.21399441673E+03  0.26635471431E+03  0.00000000000E+00 0. -1.
         -3    1    6    6    0  503  0.21158167418E+03 -0.25975307614E+03 -0.68695459271E+03  0.76429384262E+03  0.00000000000E+00 0.  1.
<mgrwt>
<rscale>  0 0.16524957E+04</rscale>
<asrwt>0</asrwt>
<pdfrwt beam="1">  1        1 0.25621071E+00 0.16524957E+04</pdfrwt>
<pdfrwt beam="2">  1       -2 0.63066200E-01 0.16524957E+04</pdfrwt>
<totfact> 0.98304798E+00</totfact>
</mgrwt>
</event>
<event>
12    5  0.5197392E-008  0.1439032E+04  0.7818608E-02  0.8926040E-01
         -4   -1    0    0    0  501 -0.00000000000E+00  0.00000000000E+00  0.26274497422E+03  0.26274497422E+03  0.00000000000E+00 0.  1.
          3   -1    0    0  501    0  0.00000000000E+00 -0.00000000000E+00 -0.19703630449E+04  0.19703630449E+04  0.00000000000E+00 0. -1.
        -24    2    1    2    0    0  0.21992783277E+03 -0.32803155448E+03 -0.22836654922E+03  0.46319946478E+03  0.80184231656E+02 0.  0.
        254    2    1    2    0    0 -0.21992783277E+03  0.32803155448E+03 -0.14792515215E+04  0.17699085543E+04  0.88792920584E+03 0.  0.
         23    2    4    4    0    0 -0.25570618101E+03 -0.11364849349E+03 -0.12057055453E+04  0.12411093565E+04  0.91241118720E+02 0.  0.
         23    2    4    4    0    0  0.35778348243E+02  0.44168004797E+03 -0.27354597611E+03  0.52879919779E+03  0.91868577622E+02 0.  0.
          3    1    3    3  502    0  0.10386910156E+02 -0.54027093727E+02 -0.12958161337E+02  0.56521931180E+02  0.00000000000E+00 0. -1.
         -4    1    3    3    0  502  0.20954092261E+03 -0.27400446076E+03 -0.21540838788E+03  0.40667753360E+03  0.00000000000E+00 0.  1.
         13    1    5    5    0    0 -0.17281353775E+03 -0.12092390469E+03 -0.88450241662E+03  0.90930282886E+03  0.00000000000E+00 0. -1.
        -13    1    5    5    0    0 -0.82892643255E+02  0.72754112024E+01 -0.32120312872E+03  0.33180652768E+03  0.00000000000E+00 0.  1.
          4    1    6    6  503    0 -0.17485804297E+02  0.32004101196E+02 -0.69558655308E+01  0.37126808516E+02  0.00000000000E+00 0.  1.
         -4    1    6    6    0  503  0.53264152540E+02  0.40967594677E+03 -0.26659011058E+03  0.49167238927E+03  0.00000000000E+00 0. -1.
<mgrwt>
<rscale>  0 0.14390316E+04</rscale>
<asrwt>0</asrwt>
<pdfrwt beam="1">  1        3 0.30313279E+00 0.14390316E+04</pdfrwt>
<pdfrwt beam="2">  1       -4 0.40422301E-01 0.14390316E+04</pdfrwt>
<totfact> 0.49684277E-01</totfact>
</mgrwt>
</event>
<event>
12    5  0.5197392E-008  0.1264343E+04  0.7818608E-02  0.9058330E-01
         -2   -1    0    0    0  501 -0.00000000000E+00  0.00000000000E+00  0.92356608015E+03  0.92356608015E+03  0.00000000000E+00 0.  1.
          1   -1    0    0  501    0  0.00000000000E+00 -0.00000000000E+00 -0.43271459202E+03  0.43271459202E+03  0.00000000000E+00 0. -1.
        -24    2    1    2    0    0 -0.17911917403E+03  0.48721100263E+02 -0.13236533209E+03  0.24244624701E+03  0.82475314106E+02 0.  0.
        254    2    1    2    0    0  0.17911917403E+03 -0.48721100263E+02  0.62321682022E+03  0.11138344252E+04  0.90430663911E+03 0.  0.
         23    2    4    4    0    0 -0.29256004768E+03 -0.21814800069E+03  0.42423365204E+03  0.56699940706E+03  0.91291863691E+02 0.  0.
         23    2    4    4    0    0  0.47167922170E+03  0.16942690043E+03  0.19898316818E+03  0.54683501810E+03  0.90815599028E+02 0.  0.
          1    1    3    3  502    0 -0.69959531744E+02  0.17528541017E+02 -0.10200775167E+03  0.12492864857E+03  0.00000000000E+00 0. -1.
         -2    1    3    3    0  502 -0.10915964228E+03  0.31192559247E+02 -0.30357580420E+02  0.11751759845E+03  0.00000000000E+00 0.  1.
         13    1    5    5    0    0 -0.52404280141E+02 -0.48744140506E+01  0.83876658442E+02  0.99021524533E+02  0.00000000000E+00 0. -1.
        -13    1    5    5    0    0 -0.24015576753E+03 -0.21327358664E+03  0.34035699360E+03  0.46797788252E+03  0.00000000000E+00 0.  1.
          1    1    6    6  503    0  0.34230666931E+03  0.10646215111E+03  0.99908466385E+02  0.37214210609E+03  0.00000000000E+00 0. -1.
         -1    1    6    6    0  503  0.12937255239E+03  0.62964749324E+02  0.99074701793E+02  0.17469291201E+03  0.00000000000E+00 0.  1.
<mgrwt>
<rscale>  0 0.12643425E+04</rscale>
<asrwt>0</asrwt>
<pdfrwt beam="1">  1        1 0.66571476E-01 0.12643425E+04</pdfrwt>
<pdfrwt beam="2">  1       -2 0.14208709E+00 0.12643425E+04</pdfrwt>
<totfact> 0.16050393E+01</totfact>
</mgrwt>
</event>
<event>
12    5  0.5197392E-008  0.2131129E+04  0.7818608E-02  0.8547654E-01
          1   -1    0    0  501    0  0.00000000000E+00  0.00000000000E+00  0.12475941607E+04  0.12475941607E+04  0.00000000000E+00 0. -1.
         -2   -1    0    0    0  501 -0.00000000000E+00 -0.00000000000E+00 -0.91009343240E+03  0.91009343240E+03  0.00000000000E+00 0.  1.
        -24    2    1    2    0    0 -0.10607511798E+03  0.85355380808E+03 -0.11130318784E+02  0.86387337081E+03  0.79669836579E+02 0.  0.
        254    2    1    2    0    0  0.10607511798E+03 -0.85355380808E+03  0.34863104712E+03  0.12938142223E+04  0.90144639381E+03 0.  0.
         23    2    4    4    0    0 -0.93728301029E+02 -0.54693849130E+03  0.61407764624E+03  0.83261551425E+03  0.90722275615E+02 0.  0.
         23    2    4    4    0    0  0.19980341901E+03 -0.30661531678E+03 -0.26544659912E+03  0.46119870806E+03  0.91148190341E+02 0.  0.
          3    1    3    3  502    0 -0.58850072321E+02  0.67855003008E+03 -0.29117753840E+02  0.68171938356E+03  0.00000000000E+00 0. -1.
         -4    1    3    3    0  502 -0.47225045660E+02  0.17500377800E+03  0.17987435056E+02  0.18215398725E+03  0.00000000000E+00 0.  1.
         13    1    5    5    0    0 -0.41765989764E+02 -0.35717375328E+03  0.33735968531E+03  0.49308117507E+03  0.00000000000E+00 0. -1.
        -13    1    5    5    0    0 -0.51962311265E+02 -0.18976473801E+03  0.27671796093E+03  0.33953433919E+03  0.00000000000E+00 0.  1.
          1    1    6    6  503    0  0.20749149180E+03 -0.30557050387E+03 -0.26082479560E+03  0.45216769677E+03  0.00000000000E+00 0.  1.
         -1    1    6    6    0  503 -0.76880727893E+01 -0.10448129180E+01 -0.46218035143E+01  0.90310112929E+01  0.00000000000E+00 0. -1.
<mgrwt>
<rscale>  0 0.21311286E+04</rscale>
<asrwt>0</asrwt>
<pdfrwt beam="1">  1        1 0.19193756E+00 0.21311286E+04</pdfrwt>
<pdfrwt beam="2">  1       -2 0.14001437E+00 0.21311286E+04</pdfrwt>
<totfact> 0.28508659E+00</totfact>
</mgrwt>
</event>
<event>
12    5  0.5252459E-008  0.2271803E+04  0.7818608E-02  0.8489122E-01
          1   -1    0    0  501    0  0.00000000000E+00  0.00000000000E+00  0.18299093244E+04  0.18299093244E+04  0.00000000000E+00 0. -1.
         -4   -1    0    0    0  501 -0.00000000000E+00 -0.00000000000E+00 -0.70510200636E+03  0.70510200636E+03  0.00000000000E+00 0.  1.
        -24    2    1    2    0    0  0.68619635038E+03 -0.54005648127E+03  0.21999822363E+02  0.87718168765E+03  0.80232703606E+02 0.  0.
        254    2    1    2    0    0 -0.68619635038E+03  0.54005648127E+03  0.11028074957E+04  0.16578296431E+04  0.87731882393E+03 0.  0.
         23    2    4    4    0    0 -0.62317427305E+03  0.74209621756E+03  0.72076716550E+03  0.12111368631E+04  0.91072627818E+02 0.  0.
         23    2    4    4    0    0 -0.63022077328E+02 -0.20203973629E+03  0.38204033015E+03  0.44669278001E+03  0.93743205513E+02 0.  0.
          1    1    3    3  502    0 -0.27014156805E+00  0.20311185984E+01 -0.76801455798E+00  0.21882105906E+01  0.00000000000E+00 0. -1.
         -2    1    3    3    0  502  0.68646649195E+03 -0.54208759987E+03  0.22767836921E+02  0.87499347706E+03  0.00000000000E+00 0.  1.
         13    1    5    5    0    0 -0.29832480068E+03  0.29041946066E+03  0.28731233509E+03  0.50585524384E+03  0.00000000000E+00 0. -1.
        -13    1    5    5    0    0 -0.32484947237E+03  0.45167675690E+03  0.43345483041E+03  0.70528161924E+03  0.00000000000E+00 0.  1.
          1    1    6    6  503    0 -0.57006579727E+00 -0.14465003551E+03  0.26830732236E+03  0.30481597231E+03  0.00000000000E+00 0. -1.
         -1    1    6    6    0  503 -0.62452011531E+02 -0.57389700786E+02  0.11373300780E+03  0.14187680770E+03  0.00000000000E+00 0.  1.
<mgrwt>
<rscale>  0 0.22718035E+04</rscale>
<asrwt>0</asrwt>
<pdfrwt beam="1">  1        1 0.28152451E+00 0.22718035E+04</pdfrwt>
<pdfrwt beam="2">  1       -4 0.10847723E+00 0.22718035E+04</pdfrwt>
<totfact> 0.11726881E+00</totfact>
</mgrwt>
</event>
<event>
12    5  0.5197392E-008  0.1451861E+04  0.7818608E-02  0.8917111E-01
         -2   -1    0    0    0  501 -0.00000000000E+00  0.00000000000E+00  0.45793369217E+03  0.45793369217E+03  0.00000000000E+00 0.  1.
          1   -1    0    0  501    0  0.00000000000E+00 -0.00000000000E+00 -0.11507678059E+04  0.11507678059E+04  0.00000000000E+00 0. -1.
        -24    2    1    2    0    0  0.18148130257E+03  0.29149488777E+03  0.85719419115E+02  0.36291825423E+03  0.80356130205E+02 0.  0.
        254    2    1    2    0    0 -0.18148130257E+03 -0.29149488777E+03 -0.77855353282E+03  0.12457832438E+04  0.90990414569E+03 0.  0.
         23    2    4    4    0    0 -0.28277661419E+03 -0.36440212835E+03 -0.19109349196E+02  0.47092337082E+03  0.93016822564E+02 0.  0.
         23    2    4    4    0    0  0.10129531162E+03  0.72907240576E+02 -0.75944418363E+03  0.77485987301E+03  0.89867396001E+02 0.  0.
          1    1    3    3  502    0  0.11742265141E+03  0.12705044518E+03  0.18180186695E+02  0.17395520651E+03  0.00000000000E+00 0. -1.
         -2    1    3    3    0  502  0.64058651164E+02  0.16444444259E+03  0.67539232420E+02  0.18896304772E+03  0.00000000000E+00 0.  1.
         13    1    5    5    0    0 -0.28784361370E+03 -0.36561297426E+03 -0.18776030237E+02  0.46570305154E+03  0.00000000000E+00 0. -1.
        -13    1    5    5    0    0  0.50669995100E+01  0.12108459187E+01 -0.33331895902E+00  0.52203192816E+01  0.00000000000E+00 0.  1.
          3    1    6    6  503    0  0.10561782981E+03  0.87305386928E+02 -0.71283243320E+03  0.72588389869E+03  0.00000000000E+00 0. -1.
         -3    1    6    6    0  503 -0.43225181911E+01 -0.14398146352E+02 -0.46611750428E+02  0.48975974313E+02  0.00000000000E+00 0.  1.
<mgrwt>
<rscale>  0 0.14518614E+04</rscale>
<asrwt>0</asrwt>
<pdfrwt beam="1">  1        1 0.17704120E+00 0.14518614E+04</pdfrwt>
<pdfrwt beam="2">  1       -2 0.70451337E-01 0.14518614E+04</pdfrwt>
<totfact> 0.18134319E+01</totfact>
</mgrwt>
</event>
<event>
12    5  0.5197392E-008  0.2144272E+04  0.7818608E-02  0.8541988E-01
          1   -1    0    0  501    0  0.00000000000E+00  0.00000000000E+00  0.15503466441E+04  0.15503466441E+04  0.00000000000E+00 0. -1.
         -2   -1    0    0    0  501 -0.00000000000E+00 -0.00000000000E+00 -0.74143108962E+03  0.74143108962E+03  0.00000000000E+00 0.  1.
        -24    2    1    2    0    0  0.77947973623E+03  0.21257942954E+02  0.79277027928E+03  0.11149458104E+04  0.81110326139E+02 0.  0.
        254    2    1    2    0    0 -0.77947973623E+03 -0.21257942954E+02  0.16145275157E+02  0.11768319233E+04  0.88126735244E+03 0.  0.
         23    2    4    4    0    0  0.34724710748E+02 -0.29042293399E+03 -0.54795863783E+02  0.31116046252E+03  0.90922827865E+02 0.  0.
         23    2    4    4    0    0 -0.81420444698E+03  0.26916499103E+03  0.70941138940E+02  0.86567146079E+03  0.94740482128E+02 0.  0.
          3    1    3    3  502    0  0.53395310116E+03  0.17717862943E+02  0.59500875743E+03  0.79965946397E+03  0.00000000000E+00 0. -1.
         -4    1    3    3    0  502  0.24552663507E+03  0.35400800110E+01  0.19776152185E+03  0.31528634639E+03  0.00000000000E+00 0.  1.
         13    1    5    5    0    0  0.57273436970E+02 -0.26654271048E+03 -0.55898520968E+02  0.27829823524E+03  0.00000000000E+00 0. -1.
        -13    1    5    5    0    0 -0.22548726221E+02 -0.23880223507E+02  0.11026571842E+01  0.32862227280E+02  0.00000000000E+00 0.  1.
          2    1    6    6  503    0 -0.67800668964E+03  0.24754015563E+03  0.86265551366E+02  0.72691880234E+03  0.00000000000E+00 0. -1.
         -2    1    6    6    0  503 -0.13619775734E+03  0.21624835406E+02 -0.15324412426E+02  0.13875265845E+03  0.00000000000E+00 0.  1.
<mgrwt>
<rscale>  0 0.21442716E+04</rscale>
<asrwt>0</asrwt>
<pdfrwt beam="1">  1        1 0.23851487E+00 0.21442716E+04</pdfrwt>
<pdfrwt beam="2">  1       -2 0.11406632E+00 0.21442716E+04</pdfrwt>
<totfact> 0.29208637E+00</totfact>
</mgrwt>
</event>
<event>
12    5  0.5197392E-008  0.2237074E+04  0.7818608E-02  0.8503154E-01
         -4   -1    0    0    0  501 -0.00000000000E+00  0.00000000000E+00  0.72935448816E+03  0.72935448816E+03  0.00000000000E+00 0.  1.
          3   -1    0    0  501    0  0.00000000000E+00 -0.00000000000E+00 -0.17153860575E+04  0.17153860575E+04  0.00000000000E+00 0. -1.
        -24    2    1    2    0    0  0.28810457356E+03  0.79050105446E+03 -0.84636379363E+03  0.11961037341E+04  0.80226610635E+02 0.  0.
        254    2    1    2    0    0 -0.28810457356E+03 -0.79050105446E+03 -0.13966777572E+03  0.12486368116E+04  0.91197074367E+03 0.  0.
         23    2    4    4    0    0 -0.44817409153E+03 -0.84123519813E+02 -0.21985988296E+03  0.51438200827E+03  0.91179489988E+02 0.  0.
         23    2    4    4    0    0  0.16006951797E+03 -0.70637753465E+03  0.80192107233E+02  0.73425480333E+03  0.90043712247E+02 0.  0.
          1    1    3    3  502    0  0.29268905777E+03  0.78296683216E+03 -0.83292024737E+03  0.11800254587E+04  0.00000000000E+00 0. -1.
         -2    1    3    3    0  502 -0.45844842082E+01  0.75342222995E+01 -0.13443546263E+02  0.16078275319E+02  0.00000000000E+00 0.  1.
         13    1    5    5    0    0 -0.12723793149E+03 -0.80880589429E+01 -0.20894572597E+02  0.12919555361E+03  0.00000000000E+00 0. -1.
        -13    1    5    5    0    0 -0.32093616004E+03 -0.76035460871E+02 -0.19896531036E+03  0.38518645466E+03  0.00000000000E+00 0.  1.
          3    1    6    6  503    0  0.42999328362E+02 -0.20768763612E+03 -0.17360428441E+02  0.21280150590E+03  0.00000000000E+00 0. -1.
         -3    1    6    6    0  503  0.11707018961E+03 -0.49868989853E+03  0.97552535674E+02  0.52145329743E+03  0.00000000000E+00 0.  1.
<mgrwt>
<rscale>  0 0.22370736E+04</rscale>
<asrwt>0</asrwt>
<pdfrwt beam="1">  1        3 0.26390555E+00 0.22370736E+04</pdfrwt>
<pdfrwt beam="2">  1       -4 0.11220838E+00 0.22370736E+04</pdfrwt>
<totfact> 0.80192103E-02</totfact>
</mgrwt>
</event>
<event>
12    5  0.5197392E-008  0.2219929E+04  0.7818608E-02  0.8510179E-01
          1   -1    0    0  501    0  0.00000000000E+00  0.00000000000E+00  0.24865581567E+04  0.24865581567E+04  0.00000000000E+00 0. -1.
         -2   -1    0    0    0  501 -0.00000000000E+00 -0.00000000000E+00 -0.49547255192E+03  0.49547255192E+03  0.00000000000E+00 0.  1.
        -24    2    1    2    0    0  0.44779792352E+03 -0.80521316605E+03  0.76639583937E+03  0.12010447541E+04  0.79086633658E+02 0.  0.
        254    2    1    2    0    0 -0.44779792352E+03  0.80521316605E+03  0.12246897654E+04  0.17809859545E+04  0.90727874747E+03 0.  0.
         23    2    4    4    0    0 -0.58433011946E+03  0.32664566542E+03  0.32648004575E+03  0.75014625949E+03  0.89393014811E+02 0.  0.
         23    2    4    4    0    0  0.13653219595E+03  0.47856750063E+03  0.89820971961E+03  0.10308396950E+04  0.90453762715E+02 0.  0.
          3    1    3    3  502    0  0.31567953780E+02 -0.45347868047E+02  0.71755253258E+02  0.90563685947E+02  0.00000000000E+00 0. -1.
         -4    1    3    3    0  502  0.41622996974E+03 -0.75986529801E+03  0.69464058611E+03  0.11104810681E+04  0.00000000000E+00 0.  1.
         13    1    5    5    0    0 -0.52737042772E+03  0.32243031847E+03  0.29468726473E+03  0.68477840379E+03  0.00000000000E+00 0. -1.
        -13    1    5    5    0    0 -0.56959691741E+02  0.42153469522E+01  0.31792781023E+02  0.65367855696E+02  0.00000000000E+00 0.  1.
          3    1    6    6  503    0  0.70555595609E+02  0.34995588355E+03  0.57548326624E+03  0.67722094048E+03  0.00000000000E+00 0.  1.
         -3    1    6    6    0  503  0.65976600340E+02  0.12861161707E+03  0.32272645337E+03  0.35361875451E+03  0.00000000000E+00 0. -1.
<mgrwt>
<rscale>  0 0.22199291E+04</rscale>
<asrwt>0</asrwt>
<pdfrwt beam="1">  1        1 0.38254740E+00 0.22199291E+04</pdfrwt>
<pdfrwt beam="2">  1       -2 0.76226548E-01 0.22199291E+04</pdfrwt>
<totfact> 0.17051224E+00</totfact>
</mgrwt>
</event>
<event>
12    5  0.5197392E-008  0.3203028E+04  0.7818608E-02  0.8188018E-01
         -2   -1    0    0    0  501 -0.00000000000E+00  0.00000000000E+00  0.12046950652E+04  0.12046950652E+04  0.00000000000E+00 0.  1.
          1   -1    0    0  501    0  0.00000000000E+00 -0.00000000000E+00 -0.21290428676E+04  0.21290428676E+04  0.00000000000E+00 0. -1.
        -24    2    1    2    0    0  0.60697649094E+03  0.13530376212E+04 -0.45816933842E+03  0.15541212859E+04  0.79009896307E+02 0.  0.
        254    2    1    2    0    0 -0.60697649094E+03 -0.13530376212E+04 -0.46617846397E+03  0.17796166469E+04  0.86636123222E+03 0.  0.
         23    2    4    4    0    0 -0.27313266355E+03 -0.11198961141E+04 -0.39908155718E+01  0.11563595831E+04  0.91557634612E+02 0.  0.
         23    2    4    4    0    0 -0.33384382739E+03 -0.23314150714E+03 -0.46218764840E+03  0.62325706386E+03  0.95001483588E+02 0.  0.
          3    1    3    3  502    0  0.50612890243E+03  0.11526362028E+04 -0.36071952900E+03  0.13095248224E+04  0.00000000000E+00 0. -1.
         -4    1    3    3    0  502  0.10084758851E+03  0.20040141839E+03 -0.97449809421E+02  0.24459646350E+03  0.00000000000E+00 0.  1.
         13    1    5    5    0    0 -0.25818579972E+03 -0.91023762925E+03 -0.56107322053E+01  0.94616273928E+03  0.00000000000E+00 0.  1.
        -13    1    5    5    0    0 -0.14946863836E+02 -0.20965848484E+03  0.16199166335E+01  0.21019684378E+03  0.00000000000E+00 0. -1.
          1    1    6    6  503    0 -0.13057680125E+03 -0.65100331177E+02 -0.22724270378E+03  0.27005110732E+03  0.00000000000E+00 0. -1.
         -1    1    6    6    0  503 -0.20326702614E+03 -0.16804117596E+03 -0.23494494462E+03  0.35320595654E+03  0.00000000000E+00 0.  1.
<mgrwt>
<rscale>  0 0.32030282E+04</rscale>
<asrwt>0</asrwt>
<pdfrwt beam="1">  1        1 0.32754505E+00 0.32030282E+04</pdfrwt>
<pdfrwt beam="2">  1       -2 0.18533770E+00 0.32030282E+04</pdfrwt>
<totfact> 0.29852885E-01</totfact>
</mgrwt>
</event>
<event>
12    5  0.5197392E-008  0.1871293E+04  0.7818608E-02  0.8669279E-01
          1   -1    0    0  501    0  0.00000000000E+00  0.00000000000E+00  0.27510864364E+04  0.27510864364E+04  0.00000000000E+00 0. -1.
         -2   -1    0    0    0  501 -0.00000000000E+00 -0.00000000000E+00 -0.31821406743E+03  0.31821406743E+03  0.00000000000E+00 0.  1.
        -24    2    1    2    0    0 -0.13571662336E+03 -0.68740272893E+03  0.73295755707E+03  0.10173652506E+04  0.82847806350E+02 0.  0.
        254    2    1    2    0    0  0.13571662336E+03  0.68740272893E+03  0.16999148119E+04  0.20519352532E+04  0.91092612334E+03 0.  0.
         23    2    4    4    0    0  0.39408097316E+03  0.60321394756E+03  0.68784148068E+03  0.10002017086E+04  0.90059288503E+02 0.  0.
         23    2    4    4    0    0 -0.25836434980E+03  0.84188781363E+02  0.10120733312E+04  0.10517335446E+04  0.89504932650E+02 0.  0.
          3    1    3    3  502    0 -0.46262279029E+01 -0.17945291007E+03  0.15919606892E+03  0.23993361015E+03  0.00000000000E+00 0. -1.
         -4    1    3    3    0  502 -0.13109039545E+03 -0.50794981886E+03  0.57376148815E+03  0.77743164043E+03  0.00000000000E+00 0.  1.
         13    1    5    5    0    0  0.29578602947E+03  0.42918207367E+03  0.44237608274E+03  0.68365431774E+03  0.00000000000E+00 0.  1.
        -13    1    5    5    0    0  0.98294943688E+02  0.17403187390E+03  0.24546539795E+03  0.31654739088E+03  0.00000000000E+00 0. -1.
          4    1    6    6  503    0 -0.54085041255E+02  0.23118979894E+02  0.38347962210E+03  0.38796430182E+03  0.00000000000E+00 0. -1.
         -4    1    6    6    0  503 -0.20427930855E+03  0.61069801469E+02  0.62859370907E+03  0.66376924276E+03  0.00000000000E+00 0.  1.
<mgrwt>
<rscale>  0 0.18712930E+04</rscale>
<asrwt>0</asrwt>
<pdfrwt beam="1">  1        1 0.42324405E+00 0.18712930E+04</pdfrwt>
<pdfrwt beam="2">  1       -2 0.48956012E-01 0.18712930E+04</pdfrwt>
<totfact> 0.29435483E+00</totfact>
</mgrwt>
</event>
<event>
12    5  0.5197392E-008  0.1507678E+04  0.7818608E-02  0.8879363E-01
          1   -1    0    0  501    0  0.00000000000E+00  0.00000000000E+00  0.28129842317E+04  0.28129842317E+04  0.00000000000E+00 0. -1.
         -2   -1    0    0    0  501 -0.00000000000E+00 -0.00000000000E+00 -0.20201782154E+03  0.20201782154E+03  0.00000000000E+00 0.  1.
        -24    2    1    2    0    0 -0.38657335247E+03  0.28273539916E+03  0.10011531638E+04  0.11127485738E+04  0.80767991832E+02 0.  0.
        254    2    1    2    0    0  0.38657335247E+03 -0.28273539916E+03  0.16098132464E+04  0.19022534794E+04  0.89313568335E+03 0.  0.
         23    2    4    4    0    0  0.81727428705E+02 -0.34366792001E+03  0.15234730556E+04  0.15665772299E+04  0.91689989183E+02 0.  0.
         23    2    4    4    0    0  0.30484592377E+03  0.60932520853E+02  0.86340190805E+02  0.33567624955E+03  0.92628865003E+02 0.  0.
          1    1    3    3  502    0 -0.13895367581E+03  0.12008998148E+03  0.46917003067E+03  0.50383553403E+03  0.00000000000E+00 0. -1.
         -2    1    3    3    0  502 -0.24761967666E+03  0.16264541768E+03  0.53198313309E+03  0.60891303981E+03  0.00000000000E+00 0.  1.
         13    1    5    5    0    0  0.83711651766E+02 -0.33845935336E+03  0.13924955755E+04  0.14354812094E+04  0.00000000000E+00 0. -1.
        -13    1    5    5    0    0 -0.19842230612E+01 -0.52085666542E+01  0.13097748010E+03  0.13109602053E+03  0.00000000000E+00 0.  1.
          1    1    6    6  503    0  0.31120709473E+03  0.55775937190E+02  0.83462697919E+02  0.32699668641E+03  0.00000000000E+00 0. -1.
         -1    1    6    6    0  503 -0.63611709618E+01  0.51565836624E+01  0.28774928867E+01  0.86795631448E+01  0.00000000000E+00 0.  1.
<mgrwt>
<rscale>  0 0.15076776E+04</rscale>
<asrwt>0</asrwt>
<pdfrwt beam="1">  1        1 0.43276678E+00 0.15076776E+04</pdfrwt>
<pdfrwt beam="2">  1       -2 0.31079667E-01 0.15076776E+04</pdfrwt>
<totfact> 0.66772448E+00</totfact>
</mgrwt>
</event>
<event>
12    5  0.5197392E-008  0.2617009E+04  0.7818608E-02  0.8362446E-01
         -2   -1    0    0    0  501 -0.00000000000E+00  0.00000000000E+00  0.80111092136E+03  0.80111092136E+03  0.00000000000E+00 0.  1.
          1   -1    0    0  501    0  0.00000000000E+00 -0.00000000000E+00 -0.21372626164E+04  0.21372626164E+04  0.00000000000E+00 0. -1.
        -24    2    1    2    0    0  0.32281131149E+03  0.97371163706E+03 -0.32008311611E+01  0.10288297351E+04  0.78478554110E+02 0.  0.
        254    2    1    2    0    0 -0.32281131149E+03 -0.97371163706E+03 -0.13329508639E+04  0.19095438027E+04  0.90403431014E+03 0.  0.
         23    2    4    4    0    0  0.26821032549E+03 -0.11143225979E+03 -0.19138256285E+03  0.35921322021E+03  0.89738091101E+02 0.  0.
         23    2    4    4    0    0 -0.59102163698E+03 -0.86227937728E+03 -0.11415683010E+04  0.15503305825E+04  0.86685807392E+02 0.  0.
          3    1    3    3  502    0  0.29088469556E+03  0.83584926974E+03  0.20982522798E+02  0.88526728964E+03  0.00000000000E+00 0. -1.
         -4    1    3    3    0  502  0.31926615924E+02  0.13786236732E+03 -0.24183353960E+02  0.14356244543E+03  0.00000000000E+00 0.  1.
         13    1    5    5    0    0  0.72720839958E+02 -0.69553008488E+02 -0.39349409149E+02  0.10804775590E+03  0.00000000000E+00 0. -1.
        -13    1    5    5    0    0  0.19548948553E+03 -0.41879251300E+02 -0.15203315370E+03  0.25116546432E+03  0.00000000000E+00 0.  1.
          1    1    6    6  503    0 -0.20109146106E+03 -0.30881379090E+03 -0.46331097210E+03  0.59199728887E+03  0.00000000000E+00 0. -1.
         -1    1    6    6    0  503 -0.38993017592E+03 -0.55346558637E+03 -0.67825732895E+03  0.95833329362E+03  0.00000000000E+00 0.  1.
<mgrwt>
<rscale>  0 0.26170093E+04</rscale>
<asrwt>0</asrwt>
<pdfrwt beam="1">  1        1 0.32880963E+00 0.26170093E+04</pdfrwt>
<pdfrwt beam="2">  1       -2 0.12324784E+00 0.26170093E+04</pdfrwt>
<totfact> 0.92306069E-01</totfact>
</mgrwt>
</event>
<event>
12    5  0.5197392E-008  0.2052670E+04  0.7818608E-02  0.8582384E-01
         -2   -1    0    0    0  501 -0.00000000000E+00  0.00000000000E+00  0.13275687383E+04  0.13275687383E+04  0.00000000000E+00 0.  1.
          1   -1    0    0  501    0  0.00000000000E+00 -0.00000000000E+00 -0.79345318855E+03  0.79345318855E+03  0.00000000000E+00 0. -1.
        -24    2    1    2    0    0 -0.15103337775E+03  0.63429475427E+03  0.74852489612E+03  0.99583126344E+03  0.79053580799E+02 0.  0.
        254    2    1    2    0    0  0.15103337775E+03 -0.63429475427E+03 -0.21440934639E+03  0.11251906634E+04  0.89159505645E+03 0.  0.
         23    2    4    4    0    0  0.19211030316E+03 -0.34939043032E+03  0.31414205677E+03  0.51577670206E+03  0.91434857526E+02 0.  0.
         23    2    4    4    0    0 -0.41076925418E+02 -0.28490432395E+03 -0.52855140316E+03  0.60941396134E+03  0.95713128090E+02 0.  0.
          1    1    3    3  502    0 -0.10044552117E+03  0.28640877629E+03  0.38315644202E+03  0.48880277098E+03  0.00000000000E+00 0. -1.
         -2    1    3    3    0  502 -0.50587856577E+02  0.34788597798E+03  0.36536845410E+03  0.50702849246E+03  0.00000000000E+00 0.  1.
         13    1    5    5    0    0  0.11447097670E+03 -0.14894932426E+03  0.10196256056E+03  0.21374253077E+03  0.00000000000E+00 0. -1.
        -13    1    5    5    0    0  0.77639326462E+02 -0.20044110606E+03  0.21217949621E+03  0.30203417128E+03  0.00000000000E+00 0.  1.
          1    1    6    6  503    0 -0.48567057857E+02 -0.56182951580E+02 -0.14007425551E+03  0.15854362243E+03  0.00000000000E+00 0. -1.
         -1    1    6    6    0  503  0.74901324382E+01 -0.22872137237E+03 -0.38847714765E+03  0.45087033891E+03  0.00000000000E+00 0.  1.
<mgrwt>
<rscale>  0 0.20526701E+04</rscale>
<asrwt>0</asrwt>
<pdfrwt beam="1">  1        1 0.12206972E+00 0.20526701E+04</pdfrwt>
<pdfrwt beam="2">  1       -2 0.20424134E+00 0.20526701E+04</pdfrwt>
<totfact> 0.22607230E+00</totfact>
</mgrwt>
</event>
<event>
12    5  0.5197392E-008  0.2570491E+04  0.7818608E-02  0.8378294E-01
         -2   -1    0    0    0  501 -0.00000000000E+00  0.00000000000E+00  0.67889936375E+03  0.67889936375E+03  0.00000000000E+00 0.  1.
          1   -1    0    0  501    0  0.00000000000E+00 -0.00000000000E+00 -0.24331376191E+04  0.24331376191E+04  0.00000000000E+00 0. -1.
        -24    2    1    2    0    0 -0.62879037617E+03  0.79339901552E+03 -0.13732277982E+04  0.17079563498E+04  0.80628605195E+02 0.  0.
        254    2    1    2    0    0  0.62879037617E+03 -0.79339901552E+03 -0.38101045714E+03  0.14040806331E+04  0.89521735949E+03 0.  0.
         23    2    4    4    0    0 -0.14909855097E+03 -0.12993403089E+03 -0.30429246413E+03  0.37482006977E+03  0.93717398034E+02 0.  0.
         23    2    4    4    0    0  0.77788892715E+03 -0.66346498464E+03 -0.76717993016E+02  0.10292605633E+04  0.90524515522E+02 0.  0.
          3    1    3    3  502    0 -0.37071782128E+03  0.49530831600E+03 -0.89747285256E+03  0.10900548390E+04  0.00000000000E+00 0. -1.
         -4    1    3    3    0  502 -0.25807255489E+03  0.29809069952E+03 -0.47575494563E+03  0.61790151078E+03  0.00000000000E+00 0.  1.
         13    1    5    5    0    0 -0.10476206007E+03 -0.59642793214E+02 -0.10876624472E+03  0.16236516868E+03  0.00000000000E+00 0. -1.
        -13    1    5    5    0    0 -0.44336490906E+02 -0.70291237672E+02 -0.19552621941E+03  0.21245490109E+03  0.00000000000E+00 0.  1.
          4    1    6    6  503    0  0.58708884461E+03 -0.53458470449E+03 -0.87118175880E+02  0.79877637316E+03  0.00000000000E+00 0. -1.
         -4    1    6    6    0  503  0.19080008254E+03 -0.12888028014E+03  0.10400182863E+02  0.23048419015E+03  0.00000000000E+00 0.  1.
<mgrwt>
<rscale>  0 0.25704907E+04</rscale>
<asrwt>0</asrwt>
<pdfrwt beam="1">  1        1 0.37432887E+00 0.25704907E+04</pdfrwt>
<pdfrwt beam="2">  1       -2 0.10444605E+00 0.25704907E+04</pdfrwt>
<totfact> 0.87088258E-01</totfact>
</mgrwt>
</event>
<event>
12    5  0.5291283E-008  0.2372013E+04  0.7818608E-02  0.8450056E-01
         -2   -1    0    0    0  501 -0.00000000000E+00  0.00000000000E+00  0.85509683816E+03  0.85509683816E+03  0.00000000000E+00 0.  1.
          1   -1    0    0  501    0  0.00000000000E+00 -0.00000000000E+00 -0.16449736301E+04  0.16449736301E+04  0.00000000000E+00 0. -1.
        -24    2    1    2    0    0  0.23907942551E+03  0.61623201599E+03  0.47441969227E+03  0.81760663779E+03  0.80657922782E+02 0.  0.
        254    2    1    2    0    0 -0.23907942551E+03 -0.61623201599E+03 -0.12642964842E+04  0.16824638304E+04  0.89181728599E+03 0.  0.
         23    2    4    4    0    0  0.47834263441E+02 -0.49967449179E+03 -0.12605242871E+04  0.13598971706E+04  0.91848361671E+02 0.  0.
         23    2    4    4    0    0 -0.28691368895E+03 -0.11655752421E+03 -0.37721970471E+01  0.32256665988E+03  0.90165953884E+02 0.  0.
          3    1    3    3  502    0  0.65323198462E+01  0.34014120523E+02  0.63580122978E+01  0.35214427696E+02  0.00000000000E+00 0. -1.
         -2    1    3    3    0  502  0.23254710566E+03  0.58221789547E+03  0.46806167998E+03  0.78239221009E+03  0.00000000000E+00 0.  1.
         13    1    5    5    0    0  0.48232653008E+02 -0.26932100553E+03 -0.78942766929E+03  0.83549759897E+03  0.00000000000E+00 0.  1.
        -13    1    5    5    0    0 -0.39838956676E+00 -0.23035348626E+03 -0.47109661784E+03  0.52439957159E+03  0.00000000000E+00 0. -1.
          3    1    6    6  503    0 -0.29159894832E+03 -0.10518754415E+03 -0.11516030886E+01  0.30999305201E+03  0.00000000000E+00 0.  1.
         -3    1    6    6    0  503  0.46852593778E+01 -0.11369980060E+02 -0.26205939584E+01  0.12573607863E+02  0.00000000000E+00 0. -1.
<mgrwt>
<rscale>  0 0.23720133E+04</rscale>
<asrwt>0</asrwt>
<pdfrwt beam="1">  1        1 0.25307287E+00 0.23720133E+04</pdfrwt>
<pdfrwt beam="2">  1       -2 0.13155336E+00 0.23720133E+04</pdfrwt>
<totfact> 0.17279059E+00</totfact>
</mgrwt>
</event>
<event>
12    5  0.5197392E-008  0.1614062E+04  0.7818608E-02  0.8811955E-01
         -2   -1    0    0    0  501 -0.00000000000E+00  0.00000000000E+00  0.58820233303E+03  0.58820233303E+03  0.00000000000E+00 0.  1.
          3   -1    0    0  501    0  0.00000000000E+00 -0.00000000000E+00 -0.11072703871E+04  0.11072703871E+04  0.00000000000E+00 0. -1.
        -24    2    1    2    0    0 -0.16500269700E+03 -0.48491429508E+03  0.37177507225E+02  0.51979949594E+03  0.80259487526E+02 0.  0.
        254    2    1    2    0    0  0.16500269700E+03  0.48491429508E+03 -0.55624556127E+03  0.11756732242E+04  0.90023921378E+03 0.  0.
         23    2    4    4    0    0  0.27733500875E+03  0.88762751967E+02 -0.67272966151E+03  0.73845095594E+03  0.89168849032E+02 0.  0.
         23    2    4    4    0    0 -0.11233231175E+03  0.39615154312E+03  0.11648410023E+03  0.43722226824E+03  0.89667010999E+02 0.  0.
          3    1    3    3  502    0 -0.95172324019E+01 -0.10313590379E+02  0.14027003969E+02  0.19841993333E+02  0.00000000000E+00 0. -1.
         -4    1    3    3    0  502 -0.15548546460E+03 -0.47460070471E+03  0.23150503257E+02  0.49995750260E+03  0.00000000000E+00 0.  1.
         13    1    5    5    0    0  0.19556804516E+03  0.84865331356E+02 -0.39437009017E+03  0.44830430822E+03  0.00000000000E+00 0.  1.
        -13    1    5    5    0    0  0.81766963589E+02  0.38974206111E+01 -0.27835957134E+03  0.29014664771E+03  0.00000000000E+00 0. -1.
          4    1    6    6  503    0 -0.99240199447E+02  0.33788759285E+03  0.64435406596E+02  0.35800637454E+03  0.00000000000E+00 0. -1.
         -4    1    6    6    0  503 -0.13092112307E+02  0.58263950263E+02  0.52048693639E+02  0.79215893698E+02  0.00000000000E+00 0.  1.
<mgrwt>
<rscale>  0 0.16140620E+04</rscale>
<asrwt>0</asrwt>
<pdfrwt beam="1">  1        3 0.17034929E+00 0.16140620E+04</pdfrwt>
<pdfrwt beam="2">  1       -2 0.90492668E-01 0.16140620E+04</pdfrwt>
<totfact> 0.95200310E-01</totfact>
</mgrwt>
</event>
<event>
12    5  0.5197392E-008  0.1602382E+04  0.7818608E-02  0.8819086E-01
         -4   -1    0    0    0  501 -0.00000000000E+00  0.00000000000E+00  0.28725424042E+03  0.28725424042E+03  0.00000000000E+00 0.  1.
          3   -1    0    0  501    0  0.00000000000E+00 -0.00000000000E+00 -0.22346302912E+04  0.22346302912E+04  0.00000000000E+00 0. -1.
        -24    2    1    2    0    0  0.42818294708E+03 -0.27661620974E+03 -0.98079894033E+03  0.11081996828E+04  0.79264191271E+02 0.  0.
        254    2    1    2    0    0 -0.42818294708E+03  0.27661620974E+03 -0.96657711047E+03  0.14136848488E+04  0.89687032374E+03 0.  0.
         23    2    4    4    0    0 -0.34590207561E+03 -0.27311899896E+03 -0.30094311547E+03  0.54183096219E+03  0.93657884504E+02 0.  0.
         23    2    4    4    0    0 -0.82280871470E+02  0.54973520870E+03 -0.66563399500E+03  0.87185388662E+03  0.89897957826E+02 0.  0.
          1    1    3    3  502    0  0.40043583846E+03 -0.26291757313E+03 -0.87003621543E+03  0.99319561374E+03  0.00000000000E+00 0. -1.
         -2    1    3    3    0  502  0.27747108622E+02 -0.13698636607E+02 -0.11076272490E+03  0.11500406910E+03  0.00000000000E+00 0.  1.
         13    1    5    5    0    0 -0.18247310016E+03 -0.96633230246E+02 -0.10531462267E+03  0.23178779782E+03  0.00000000000E+00 0.  1.
        -13    1    5    5    0    0 -0.16342897545E+03 -0.17648576872E+03 -0.19562849280E+03  0.31004316437E+03  0.00000000000E+00 0. -1.
          3    1    6    6  503    0 -0.52118543158E+02  0.47773436167E+03 -0.53059794241E+03  0.71587753097E+03  0.00000000000E+00 0. -1.
         -3    1    6    6    0  503 -0.30162328312E+02  0.72000847034E+02 -0.13503605260E+03  0.15597635565E+03  0.00000000000E+00 0.  1.
<mgrwt>
<rscale>  0 0.16023820E+04</rscale>
<asrwt>0</asrwt>
<pdfrwt beam="1">  1        3 0.34378926E+00 0.16023820E+04</pdfrwt>
<pdfrwt beam="2">  1       -4 0.44192962E-01 0.16023820E+04</pdfrwt>
<totfact> 0.24558454E-01</totfact>
</mgrwt>
</event>
<event>
12    5  0.5197392E-008  0.2654428E+04  0.7818608E-02  0.8349945E-01
         -2   -1    0    0    0  501 -0.00000000000E+00  0.00000000000E+00  0.56599841559E+03  0.56599841559E+03  0.00000000000E+00 0.  1.
          1   -1    0    0  501    0  0.00000000000E+00 -0.00000000000E+00 -0.31121940065E+04  0.31121940065E+04  0.00000000000E+00 0. -1.
        -24    2    1    2    0    0  0.11199654201E+04 -0.47103503799E+02 -0.15834692707E+04  0.19417489109E+04  0.80452593114E+02 0.  0.
        254    2    1    2    0    0 -0.11199654201E+04  0.47103503799E+02 -0.96272632028E+03  0.17364435112E+04  0.91205965685E+03 0.  0.
         23    2    4    4    0    0  0.49098640649E+02 -0.20637557797E+03 -0.71740289463E+02  0.24158704471E+03  0.90642569166E+02 0.  0.
         23    2    4    4    0    0 -0.11690640607E+04  0.25347908177E+03 -0.89098603082E+03  0.14948564665E+04  0.98880358879E+02 0.  0.
          1    1    3    3  502    0  0.70485128028E+03 -0.54803137091E+02 -0.10481608672E+04  0.12643021454E+04  0.00000000000E+00 0. -1.
         -2    1    3    3    0  502  0.41511413978E+03  0.76996332917E+01 -0.53530840343E+03  0.67744676556E+03  0.00000000000E+00 0.  1.
         13    1    5    5    0    0  0.74644628641E+02 -0.14239966478E+03 -0.60522797672E+02  0.17179200841E+03  0.00000000000E+00 0. -1.
        -13    1    5    5    0    0 -0.25545987992E+02 -0.63975913186E+02 -0.11217491791E+02  0.69795036303E+02  0.00000000000E+00 0.  1.
          2    1    6    6  503    0 -0.38023771997E+03  0.35909339815E+02 -0.29244026542E+03  0.48103171747E+03  0.00000000000E+00 0.  1.
         -2    1    6    6    0  503 -0.78882634073E+03  0.21756974195E+03 -0.59854576540E+03  0.10138247490E+04  0.00000000000E+00 0. -1.
<mgrwt>
<rscale>  0 0.26544279E+04</rscale>
<asrwt>0</asrwt>
<pdfrwt beam="1">  1        1 0.47879908E+00 0.26544279E+04</pdfrwt>
<pdfrwt beam="2">  1       -2 0.87076679E-01 0.26544279E+04</pdfrwt>
<totfact> 0.43442851E-01</totfact>
</mgrwt>
</event>
<event>
12    5  0.5197392E-008  0.1845646E+04  0.7818608E-02  0.8682395E-01
          1   -1    0    0  501    0  0.00000000000E+00  0.00000000000E+00  0.18480135442E+04  0.18480135442E+04  0.00000000000E+00 0. -1.
         -2   -1    0    0    0  501 -0.00000000000E+00 -0.00000000000E+00 -0.46082024005E+03  0.46082024005E+03  0.00000000000E+00 0.  1.
        -24    2    1    2    0    0 -0.63247456837E+03 -0.14216088977E+03  0.84800410784E+03  0.10712110638E+04  0.90268366955E+02 0.  0.
        254    2    1    2    0    0  0.63247456837E+03  0.14216088977E+03  0.53918919635E+03  0.12376227205E+04  0.90595320554E+03 0.  0.
         23    2    4    4    0    0  0.14839846033E+03  0.12627009099E+03 -0.23557682962E+03  0.31945590137E+03  0.92678969349E+02 0.  0.
         23    2    4    4    0    0  0.48407610804E+03  0.15890798782E+02  0.77476602597E+03  0.91816681913E+03  0.90474951707E+02 0.  0.
          3    1    3    3  502    0 -0.18713930531E+03 -0.78909571294E+02  0.29933515742E+03  0.36173108313E+03  0.00000000000E+00 0. -1.
         -4    1    3    3    0  502 -0.44533526306E+03 -0.63251318473E+02  0.54866895042E+03  0.70947998067E+03  0.00000000000E+00 0.  1.
         13    1    5    5    0    0  0.14208148313E+03  0.77276668623E+02 -0.20590186798E+03  0.26182897204E+03  0.00000000000E+00 0. -1.
        -13    1    5    5    0    0  0.63169772018E+01  0.48993422362E+02 -0.29674961646E+02  0.57626929334E+02  0.00000000000E+00 0.  1.
          4    1    6    6  503    0  0.46999831440E+03  0.18488499652E+02  0.77134982999E+03  0.90344939005E+03  0.00000000000E+00 0. -1.
         -4    1    6    6    0  503  0.14077793638E+02 -0.25977008703E+01  0.34161959768E+01  0.14717429071E+02  0.00000000000E+00 0.  1.
<mgrwt>
<rscale>  0 0.18456457E+04</rscale>
<asrwt>0</asrwt>
<pdfrwt beam="1">  1        1 0.28430977E+00 0.18456457E+04</pdfrwt>
<pdfrwt beam="2">  1       -2 0.70895422E-01 0.18456457E+04</pdfrwt>
<totfact> 0.56382287E+00</totfact>
</mgrwt>
</event>
<event>
12    5  0.5197392E-008  0.2257768E+04  0.7818608E-02  0.8494761E-01
          1   -1    0    0  501    0  0.00000000000E+00  0.00000000000E+00  0.22605921903E+04  0.22605921903E+04  0.00000000000E+00 0. -1.
         -2   -1    0    0    0  501 -0.00000000000E+00 -0.00000000000E+00 -0.56373693723E+03  0.56373693723E+03  0.00000000000E+00 0.  1.
        -24    2    1    2    0    0  0.21486857939E+03  0.73691987501E+03  0.17992766707E+02  0.77194347974E+03  0.79709395048E+02 0.  0.
        254    2    1    2    0    0 -0.21486857939E+03 -0.73691987501E+03  0.16788624864E+04  0.20523856478E+04  0.89693265666E+03 0.  0.
         23    2    4    4    0    0 -0.19342546960E+03 -0.93672716400E+03  0.13156420376E+04  0.16290311959E+04  0.89204674516E+02 0.  0.
         23    2    4    4    0    0 -0.21443109786E+02  0.19980728899E+03  0.36322044878E+03  0.42335445195E+03  0.83169332562E+02 0.  0.
          3    1    3    3  502    0  0.22603360794E+02  0.23374164910E+02  0.44996431166E+01  0.32825451902E+02  0.00000000000E+00 0. -1.
         -4    1    3    3    0  502  0.19226521859E+03  0.71354571010E+03  0.13493123590E+02  0.73911802783E+03  0.00000000000E+00 0.  1.
         13    1    5    5    0    0 -0.14379288615E+03 -0.57193687548E+03  0.74916504010E+03  0.95343402549E+03  0.00000000000E+00 0.  1.
        -13    1    5    5    0    0 -0.49632583450E+02 -0.36479028851E+03  0.56647699751E+03  0.67559717040E+03  0.00000000000E+00 0. -1.
          4    1    6    6  503    0 -0.44775727698E+02  0.14243969180E+03  0.20637221241E+03  0.25472224411E+03  0.00000000000E+00 0. -1.
         -4    1    6    6    0  503  0.23332617912E+02  0.57367597191E+02  0.15684823637E+03  0.16863220784E+03  0.00000000000E+00 0.  1.
<mgrwt>
<rscale>  0 0.22577682E+04</rscale>
<asrwt>0</asrwt>
<pdfrwt beam="1">  1        1 0.34778341E+00 0.22577682E+04</pdfrwt>
<pdfrwt beam="2">  1       -2 0.86728761E-01 0.22577682E+04</pdfrwt>
<totfact> 0.18164805E+00</totfact>
</mgrwt>
</event>
<event>
12    5  0.5197392E-008  0.1544239E+04  0.7818608E-02  0.8855556E-01
         -2   -1    0    0    0  501 -0.00000000000E+00  0.00000000000E+00  0.10437447170E+04  0.10437447170E+04  0.00000000000E+00 0.  1.
          1   -1    0    0  501    0  0.00000000000E+00 -0.00000000000E+00 -0.57118213510E+03  0.57118213510E+03  0.00000000000E+00 0. -1.
        -24    2    1    2    0    0 -0.76235077617E+01  0.52500282366E+03  0.24334317103E+03  0.58398864179E+03  0.78362951259E+02 0.  0.
        254    2    1    2    0    0  0.76235077617E+01 -0.52500282366E+03  0.22921941090E+03  0.10309382103E+04  0.85709157764E+03 0.  0.
         23    2    4    4    0    0 -0.37434029870E+03 -0.24650933314E+03  0.29503726632E+03  0.54436645351E+03  0.91598780728E+02 0.  0.
         23    2    4    4    0    0  0.38196380646E+03 -0.27849349052E+03 -0.65817855417E+02  0.48657175683E+03  0.94684268728E+02 0.  0.
          3    1    3    3  502    0 -0.85800446964E+01  0.38852252067E+03  0.14103864258E+03  0.41341899441E+03  0.00000000000E+00 0. -1.
         -4    1    3    3    0  502  0.95653693469E+00  0.13648030299E+03  0.10230452845E+03  0.17056964738E+03  0.00000000000E+00 0.  1.
         13    1    5    5    0    0 -0.31203631409E+02 -0.52678535773E+02  0.58790092015E+02  0.84882092713E+02  0.00000000000E+00 0. -1.
        -13    1    5    5    0    0 -0.34313666729E+03 -0.19383079737E+03  0.23624717430E+03  0.45948436079E+03  0.00000000000E+00 0.  1.
          4    1    6    6  503    0  0.10522098836E+03 -0.81457505903E+02  0.23919016286E+02  0.13519948594E+03  0.00000000000E+00 0. -1.
         -4    1    6    6    0  503  0.27674281810E+03 -0.19703598461E+03 -0.89736871704E+02  0.35137227089E+03  0.00000000000E+00 0.  1.
<mgrwt>
<rscale>  0 0.15442388E+04</rscale>
<asrwt>0</asrwt>
<pdfrwt beam="1">  1        1 0.87874175E-01 0.15442388E+04</pdfrwt>
<pdfrwt beam="2">  1       -2 0.16057611E+00 0.15442388E+04</pdfrwt>
<totfact> 0.77273568E+00</totfact>
</mgrwt>
</event>
<event>
12    5  0.5197392E-008  0.1538531E+04  0.7818608E-02  0.8859227E-01
          1   -1    0    0  501    0  0.00000000000E+00  0.00000000000E+00  0.11397876638E+04  0.11397876638E+04  0.00000000000E+00 0. -1.
         -2   -1    0    0    0  501 -0.00000000000E+00 -0.00000000000E+00 -0.51919286655E+03  0.51919286655E+03  0.00000000000E+00 0.  1.
        -24    2    1    2    0    0  0.31413373746E+03 -0.71653405934E+02  0.62371615861E+03  0.70676450415E+03  0.81731280537E+02 0.  0.
        254    2    1    2    0    0 -0.31413373746E+03  0.71653405934E+02 -0.31213613144E+01  0.95221602624E+03  0.89604207610E+03 0.  0.
         23    2    4    4    0    0  0.16065327115E+03  0.13300515946E+03  0.30141663606E+03  0.37793652720E+03  0.92109630978E+02 0.  0.
         23    2    4    4    0    0 -0.47478700861E+03 -0.61351753528E+02 -0.30453799738E+03  0.57427949904E+03  0.88695039132E+02 0.  0.
          3    1    3    3  502    0  0.21938890063E+03 -0.87630289254E+02  0.43622041990E+03  0.49608347287E+03  0.00000000000E+00 0. -1.
         -4    1    3    3    0  502  0.94744836830E+02  0.15976883320E+02  0.18749573872E+03  0.21068103129E+03  0.00000000000E+00 0.  1.
         13    1    5    5    0    0  0.20766603755E+02 -0.50309613691E+01  0.44423644544E+01  0.21824229786E+02  0.00000000000E+00 0. -1.
        -13    1    5    5    0    0  0.13988666739E+03  0.13803612083E+03  0.29697427161E+03  0.35611229741E+03  0.00000000000E+00 0.  1.
          1    1    6    6  503    0 -0.88449473863E+02 -0.86785400457E+01 -0.18704472779E+02  0.90821163755E+02  0.00000000000E+00 0. -1.
         -1    1    6    6    0  503 -0.38633753475E+03 -0.52673213482E+02 -0.28583352460E+03  0.48345833529E+03  0.00000000000E+00 0.  1.
<mgrwt>
<rscale>  0 0.15385313E+04</rscale>
<asrwt>0</asrwt>
<pdfrwt beam="1">  1        1 0.17535195E+00 0.15385313E+04</pdfrwt>
<pdfrwt beam="2">  1       -2 0.79875826E-01 0.15385313E+04</pdfrwt>
<totfact> 0.13886742E+01</totfact>
</mgrwt>
</event>
<event>
12    5  0.5197392E-008  0.1833125E+04  0.7818608E-02  0.8688879E-01
          1   -1    0    0  501    0  0.00000000000E+00  0.00000000000E+00  0.95116878217E+03  0.95116878217E+03  0.00000000000E+00 0. -1.
         -2   -1    0    0    0  501 -0.00000000000E+00 -0.00000000000E+00 -0.88321564608E+03  0.88321564608E+03  0.00000000000E+00 0.  1.
        -24    2    1    2    0    0 -0.16224838679E+03 -0.54326421243E+03  0.43182858479E+03  0.71725002633E+03  0.80691573931E+02 0.  0.
        254    2    1    2    0    0  0.16224838679E+03  0.54326421243E+03 -0.36387544870E+03  0.11171344019E+04  0.89113600884E+03 0.  0.
         23    2    4    4    0    0  0.41159064628E+03  0.42191762252E+03 -0.51506477970E+03  0.78813018216E+03  0.91848333896E+02 0.  0.
         23    2    4    4    0    0 -0.24934225949E+03  0.12134658991E+03  0.15118933100E+03  0.32900421975E+03  0.92135799524E+02 0.  0.
          1    1    3    3  502    0 -0.10221717084E+03 -0.38212424172E+03  0.25519240651E+03  0.47073394870E+03  0.00000000000E+00 0. -1.
         -2    1    3    3    0  502 -0.60031215951E+02 -0.16113997071E+03  0.17663617828E+03  0.24651607763E+03  0.00000000000E+00 0.  1.
         13    1    5    5    0    0  0.16193522602E+03  0.16542537921E+03 -0.26289002484E+03  0.35028522475E+03  0.00000000000E+00 0. -1.
        -13    1    5    5    0    0  0.24965542026E+03  0.25649224331E+03 -0.25217475486E+03  0.43784495742E+03  0.00000000000E+00 0.  1.
          3    1    6    6  503    0 -0.44951998126E+02  0.16621643922E+02  0.71174587936E+02  0.85806661455E+02  0.00000000000E+00 0. -1.
         -3    1    6    6    0  503 -0.20439026137E+03  0.10472494599E+03  0.80014743069E+02  0.24319755830E+03  0.00000000000E+00 0.  1.
<mgrwt>
<rscale>  0 0.18331254E+04</rscale>
<asrwt>0</asrwt>
<pdfrwt beam="1">  1        1 0.14633366E+00 0.18331254E+04</pdfrwt>
<pdfrwt beam="2">  1       -2 0.13587933E+00 0.18331254E+04</pdfrwt>
<totfact> 0.52919999E+00</totfact>
</mgrwt>
</event>
<event>
12    5  0.5197392E-008  0.1798437E+04  0.7818608E-02  0.8707131E-01
         -2   -1    0    0    0  501 -0.00000000000E+00  0.00000000000E+00  0.10248610704E+04  0.10248610704E+04  0.00000000000E+00 0.  1.
          1   -1    0    0  501    0  0.00000000000E+00 -0.00000000000E+00 -0.78897907984E+03  0.78897907984E+03  0.00000000000E+00 0. -1.
        -24    2    1    2    0    0 -0.23593556954E+03 -0.36361373267E+03 -0.50141365672E+03  0.66763613323E+03  0.80260897571E+02 0.  0.
        254    2    1    2    0    0  0.23593556954E+03  0.36361373267E+03  0.73729564730E+03  0.11462040170E+04  0.76308468570E+03 0.  0.
         23    2    4    4    0    0  0.25444706550E+03  0.56267836722E+03  0.39816675878E+03  0.74186842067E+03  0.10238032878E+03 0.  0.
         23    2    4    4    0    0 -0.18511495962E+02 -0.19906463454E+03  0.33912888852E+03  0.40433559635E+03  0.92246773589E+02 0.  0.
          1    1    3    3  502    0 -0.22312894694E+03 -0.31910972402E+03 -0.47543462592E+03  0.61453692033E+03  0.00000000000E+00 0. -1.
         -2    1    3    3    0  502 -0.12806622601E+02 -0.44504008657E+02 -0.25979030806E+02  0.53099212900E+02  0.00000000000E+00 0.  1.
         13    1    5    5    0    0  0.19743713137E+03  0.38119843061E+03  0.22526151694E+03  0.48480554385E+03  0.00000000000E+00 0. -1.
        -13    1    5    5    0    0  0.57009934137E+02  0.18147993661E+03  0.17290524184E+03  0.25706287682E+03  0.00000000000E+00 0.  1.
          4    1    6    6  503    0  0.42543125872E+01 -0.87909716489E+02  0.23262605481E+03  0.24871891526E+03  0.00000000000E+00 0. -1.
         -4    1    6    6    0  503 -0.22765808549E+02 -0.11115491805E+03  0.10650283370E+03  0.15561668109E+03  0.00000000000E+00 0.  1.
<mgrwt>
<rscale>  0 0.17984370E+04</rscale>
<asrwt>0</asrwt>
<pdfrwt beam="1">  1        1 0.12138140E+00 0.17984370E+04</pdfrwt>
<pdfrwt beam="2">  1       -2 0.15767093E+00 0.17984370E+04</pdfrwt>
<totfact> 0.48970542E+00</totfact>
</mgrwt>
</event>
<event>
12    5  0.5197392E-008  0.1013124E+04  0.7818608E-02  0.9294267E-01
         -2   -1    0    0    0  501 -0.00000000000E+00  0.00000000000E+00  0.16409990071E+03  0.16409990071E+03  0.00000000000E+00 0.  1.
          1   -1    0    0  501    0  0.00000000000E+00 -0.00000000000E+00 -0.15637116124E+04  0.15637116124E+04  0.00000000000E+00 0. -1.
        -24    2    1    2    0    0 -0.16766084629E+01  0.95283111897E+02 -0.68542294239E+03  0.69608632999E+03  0.75165726359E+02 0.  0.
        254    2    1    2    0    0  0.16766084629E+01 -0.95283111897E+02 -0.71418876927E+03  0.10317251831E+04  0.73845079243E+03 0.  0.
         23    2    4    4    0    0 -0.30479998009E+03 -0.90071429025E+02 -0.11135794706E+03  0.34933739106E+03  0.92844656445E+02 0.  0.
         23    2    4    4    0    0  0.30647658855E+03 -0.52116828718E+01 -0.60283082221E+03  0.68238779203E+03  0.91066116292E+02 0.  0.
          1    1    3    3  502    0 -0.32824525593E+02  0.17476326746E+02 -0.23677859911E+03  0.23968098897E+03  0.00000000000E+00 0. -1.
         -2    1    3    3    0  502  0.31147917130E+02  0.77806785151E+02 -0.44864434328E+03  0.45640534102E+03  0.00000000000E+00 0.  1.
         13    1    5    5    0    0 -0.17359807302E+03 -0.54255109955E+02 -0.14672484036E+02  0.18246969529E+03  0.00000000000E+00 0. -1.
        -13    1    5    5    0    0 -0.13120190707E+03 -0.35816319070E+02 -0.96685463027E+02  0.16686769577E+03  0.00000000000E+00 0.  1.
          1    1    6    6  503    0  0.80744421279E+02 -0.33558384164E+02 -0.22441520620E+03  0.24084852395E+03  0.00000000000E+00 0. -1.
         -1    1    6    6    0  503  0.22573216727E+03  0.28346701292E+02 -0.37841561601E+03  0.44153926808E+03  0.00000000000E+00 0.  1.
<mgrwt>
<rscale>  0 0.10131237E+04</rscale>
<asrwt>0</asrwt>
<pdfrwt beam="1">  1        1 0.24057101E+00 0.10131237E+04</pdfrwt>
<pdfrwt beam="2">  1       -2 0.25246139E-01 0.10131237E+04</pdfrwt>
<totfact> 0.73266275E+01</totfact>
</mgrwt>
</event>
<event>
12    5  0.5197392E-008  0.4043291E+04  0.7818608E-02  0.7995870E-01
         -2   -1    0    0    0  501 -0.00000000000E+00  0.00000000000E+00  0.18818067758E+04  0.18818067758E+04  0.00000000000E+00 0.  1.
          1   -1    0    0  501    0  0.00000000000E+00 -0.00000000000E+00 -0.21718758981E+04  0.21718758981E+04  0.00000000000E+00 0. -1.
        -24    2    1    2    0    0 -0.18259630095E+04 -0.37704610301E+03  0.32860920764E+03  0.18949106867E+04  0.79986396969E+02 0.  0.
        254    2    1    2    0    0  0.18259630095E+04  0.37704610301E+03 -0.61867832999E+03  0.21587719872E+04  0.89511392622E+03 0.  0.
         23    2    4    4    0    0  0.11217588926E+04 -0.20071168066E+03 -0.23637087077E+03  0.11674124273E+04  0.91391437939E+02 0.  0.
         23    2    4    4    0    0  0.70420411685E+03  0.57775778367E+03 -0.38230745922E+03  0.99135955989E+03  0.83230336005E+02 0.  0.
          1    1    3    3  502    0 -0.39423644761E+03 -0.98735902445E+02  0.10050655693E+03  0.41865585275E+03  0.00000000000E+00 0. -1.
         -2    1    3    3    0  502 -0.14317265618E+04 -0.27831020057E+03  0.22810265070E+03  0.14762548340E+04  0.00000000000E+00 0.  1.
         13    1    5    5    0    0  0.41690091712E+03 -0.79000151971E+02 -0.13310851135E+03  0.44470807784E+03  0.00000000000E+00 0. -1.
        -13    1    5    5    0    0  0.70485797548E+03 -0.12171152869E+03 -0.10326235942E+03  0.72270434943E+03  0.00000000000E+00 0.  1.
          3    1    6    6  503    0  0.43010810220E+02  0.61521947817E+02 -0.20568252863E+02  0.77832723741E+02  0.00000000000E+00 0. -1.
         -3    1    6    6    0  503  0.66119330663E+03  0.51623583585E+03 -0.36173920636E+03  0.91352683615E+03  0.00000000000E+00 0.  1.
<mgrwt>
<rscale>  0 0.40432911E+04</rscale>
<asrwt>0</asrwt>
<pdfrwt beam="1">  1        1 0.33413475E+00 0.40432911E+04</pdfrwt>
<pdfrwt beam="2">  1       -2 0.28950874E+00 0.40432911E+04</pdfrwt>
<totfact> 0.57525723E-02</totfact>
</mgrwt>
</event>
<event>
12    5  0.5197392E-008  0.1471973E+04  0.7818608E-02  0.8903307E-01
          1   -1    0    0  501    0  0.00000000000E+00  0.00000000000E+00  0.54873051829E+03  0.54873051829E+03  0.00000000000E+00 0. -1.
         -2   -1    0    0    0  501 -0.00000000000E+00 -0.00000000000E+00 -0.98714411377E+03  0.98714411377E+03  0.00000000000E+00 0.  1.
        -24    2    1    2    0    0 -0.10388265531E+03  0.70197997827E+02 -0.60589745190E+03  0.62378975393E+03  0.79262664073E+02 0.  0.
        254    2    1    2    0    0  0.10388265531E+03 -0.70197997827E+02  0.16748385642E+03  0.91208487813E+03  0.88776608281E+03 0.  0.
         23    2    4    4    0    0 -0.34753767768E+03  0.86235701577E+02 -0.60248626959E+02  0.37499652561E+03  0.93666768572E+02 0.  0.
         23    2    4    4    0    0  0.45142033299E+03 -0.15643369940E+03  0.22773248338E+03  0.53708835253E+03  0.91378307558E+02 0.  0.
          3    1    3    3  502    0 -0.37980723486E+02  0.27513513688E+02 -0.85641633853E+02  0.97642297397E+02  0.00000000000E+00 0. -1.
         -4    1    3    3    0  502 -0.65901931825E+02  0.42684484139E+02 -0.52025581804E+03  0.52614745653E+03  0.00000000000E+00 0.  1.
         13    1    5    5    0    0 -0.47366734788E+02 -0.10967861807E+02  0.14518928728E+02  0.50741510112E+02  0.00000000000E+00 0. -1.
        -13    1    5    5    0    0 -0.30017094289E+03  0.97203563384E+02 -0.74767555687E+02  0.32425501549E+03  0.00000000000E+00 0.  1.
          3    1    6    6  503    0  0.24724525937E+03 -0.43099055089E+02  0.14177193847E+03  0.28824820792E+03  0.00000000000E+00 0. -1.
         -3    1    6    6    0  503  0.20417507362E+03 -0.11333464432E+03  0.85960544910E+02  0.24884014461E+03  0.00000000000E+00 0.  1.
<mgrwt>
<rscale>  0 0.14719730E+04</rscale>
<asrwt>0</asrwt>
<pdfrwt beam="1">  1        1 0.84420080E-01 0.14719730E+04</pdfrwt>
<pdfrwt beam="2">  1       -2 0.15186833E+00 0.14719730E+04</pdfrwt>
<totfact> 0.95625138E+00</totfact>
</mgrwt>
</event>
<event>
12    5  0.5197392E-008  0.1525971E+04  0.7818608E-02  0.8867364E-01
         -2   -1    0    0    0  501 -0.00000000000E+00  0.00000000000E+00  0.37831644685E+03  0.37831644685E+03  0.00000000000E+00 0.  1.
          1   -1    0    0  501    0  0.00000000000E+00 -0.00000000000E+00 -0.15387832963E+04  0.15387832963E+04  0.00000000000E+00 0. -1.
        -24    2    1    2    0    0  0.34428329991E+03  0.33033396790E+03 -0.23594256412E+03  0.53819344886E+03  0.79572444272E+02 0.  0.
        254    2    1    2    0    0 -0.34428329991E+03 -0.33033396790E+03 -0.92452428531E+03  0.13789062943E+04  0.90497839382E+03 0.  0.
         23    2    4    4    0    0 -0.60871428808E+03 -0.47910075543E+02 -0.46758455618E+03  0.77347149827E+03  0.82428038956E+02 0.  0.
         23    2    4    4    0    0  0.26443098817E+03 -0.28242389236E+03 -0.45693972913E+03  0.60543479600E+03  0.89835258462E+02 0.  0.
          1    1    3    3  502    0  0.10287953521E+03  0.14697910243E+03 -0.10594363145E+03  0.20835332578E+03  0.00000000000E+00 0. -1.
         -2    1    3    3    0  502  0.24140376470E+03  0.18335486547E+03 -0.12999893267E+03  0.32984012308E+03  0.00000000000E+00 0.  1.
         13    1    5    5    0    0 -0.12674453260E+03  0.15209967381E+02 -0.70599594421E+02  0.14587605144E+03  0.00000000000E+00 0. -1.
        -13    1    5    5    0    0 -0.48196975548E+03 -0.63120042924E+02 -0.39698496176E+03  0.62759544682E+03  0.00000000000E+00 0.  1.
          4    1    6    6  503    0  0.11204919072E+03 -0.17659802540E+03 -0.27593502062E+03  0.34623982919E+03  0.00000000000E+00 0. -1.
         -4    1    6    6    0  503  0.15238179745E+03 -0.10582586696E+03 -0.18100470852E+03  0.25919496680E+03  0.00000000000E+00 0.  1.
<mgrwt>
<rscale>  0 0.15259712E+04</rscale>
<asrwt>0</asrwt>
<pdfrwt beam="1">  1        1 0.23673589E+00 0.15259712E+04</pdfrwt>
<pdfrwt beam="2">  1       -2 0.58202530E-01 0.15259712E+04</pdfrwt>
<totfact> 0.14385314E+01</totfact>
</mgrwt>
</event>
<event>
12    5  0.5197392E-008  0.1344731E+04  0.7818608E-02  0.8994826E-01
         -2   -1    0    0    0  501 -0.00000000000E+00  0.00000000000E+00  0.11786058838E+03  0.11786058838E+03  0.00000000000E+00 0.  1.
          1   -1    0    0  501    0  0.00000000000E+00 -0.00000000000E+00 -0.38356810123E+04  0.38356810123E+04  0.00000000000E+00 0. -1.
        -24    2    1    2    0    0 -0.18740950813E+03  0.64069091072E+02 -0.18972894752E+04  0.19092003285E+04  0.78175249766E+02 0.  0.
        254    2    1    2    0    0  0.18740950813E+03 -0.64069091072E+02 -0.18205309488E+04  0.20443412722E+04  0.90871949991E+03 0.  0.
         23    2    4    4    0    0  0.62521738965E+02 -0.20877671747E+03 -0.18179977732E+04  0.18333190523E+04  0.91902985086E+02 0.  0.
         23    2    4    4    0    0  0.12488776916E+03  0.14470762640E+03 -0.25331756586E+01  0.21102221993E+03  0.89368385363E+02 0.  0.
          1    1    3    3  502    0 -0.12217748417E+03  0.35432491565E+02 -0.15148532420E+04  0.15201852334E+04  0.00000000000E+00 0. -1.
         -2    1    3    3    0  502 -0.65232023958E+02  0.28636599506E+02 -0.38243623320E+03  0.38901509514E+03  0.00000000000E+00 0.  1.
         13    1    5    5    0    0  0.71888028607E+02 -0.16415318292E+03 -0.16322039630E+04  0.16420121598E+04  0.00000000000E+00 0. -1.
        -13    1    5    5    0    0 -0.93662896422E+01 -0.44623534547E+02 -0.18579381016E+03  0.19130689249E+03  0.00000000000E+00 0.  1.
          1    1    6    6  503    0  0.54973186354E+02  0.81864735886E+02  0.41778936867E+02  0.10709512484E+03  0.00000000000E+00 0. -1.
         -1    1    6    6    0  503  0.69914582807E+02  0.62842890509E+02 -0.44312112525E+02  0.10392709509E+03  0.00000000000E+00 0.  1.
<mgrwt>
<rscale>  0 0.13447314E+04</rscale>
<asrwt>0</asrwt>
<pdfrwt beam="1">  1        1 0.59010469E+00 0.13447314E+04</pdfrwt>
<pdfrwt beam="2">  1       -2 0.18132401E-01 0.13447314E+04</pdfrwt>
<totfact> 0.29670604E+00</totfact>
</mgrwt>
</event>
<event>
12    5  0.5197392E-008  0.2011709E+04  0.7818608E-02  0.8601166E-01
         -2   -1    0    0    0  501 -0.00000000000E+00  0.00000000000E+00  0.76950525535E+03  0.76950525535E+03  0.00000000000E+00 0.  1.
          1   -1    0    0  501    0  0.00000000000E+00 -0.00000000000E+00 -0.13147973883E+04  0.13147973883E+04  0.00000000000E+00 0. -1.
        -24    2    1    2    0    0  0.53528972106E+03 -0.25519093933E+03 -0.76739057955E+03  0.97310352349E+03  0.79904097791E+02 0.  0.
        254    2    1    2    0    0 -0.53528972106E+03  0.25519093933E+03  0.22209844665E+03  0.11111991201E+04  0.91311459497E+03 0.  0.
         23    2    4    4    0    0 -0.26089877358E+03 -0.24595920457E+03  0.36092019698E+03  0.51643634455E+03  0.88763782062E+02 0.  0.
         23    2    4    4    0    0 -0.27439094747E+03  0.50115014390E+03 -0.13882175033E+03  0.59476277557E+03  0.89607042393E+02 0.  0.
          3    1    3    3  502    0  0.16222663475E+03 -0.66693543845E+02 -0.28673394383E+03  0.33612775006E+03  0.00000000000E+00 0. -1.
         -4    1    3    3    0  502  0.37306308631E+03 -0.18849739549E+03 -0.48065663572E+03  0.63697577343E+03  0.00000000000E+00 0.  1.
         13    1    5    5    0    0 -0.17302424315E+03 -0.10524846963E+03  0.17974062100E+03  0.27077909800E+03  0.00000000000E+00 0.  1.
        -13    1    5    5    0    0 -0.87874530439E+02 -0.14071073494E+03  0.18117957599E+03  0.24565724655E+03  0.00000000000E+00 0. -1.
          2    1    6    6  503    0 -0.13903157509E+03  0.16882921654E+03 -0.67755069706E+02  0.22896251374E+03  0.00000000000E+00 0. -1.
         -2    1    6    6    0  503 -0.13535937239E+03  0.33232092736E+03 -0.71066680625E+02  0.36580026182E+03  0.00000000000E+00 0.  1.
<mgrwt>
<rscale>  0 0.20117092E+04</rscale>
<asrwt>0</asrwt>
<pdfrwt beam="1">  1        1 0.20227652E+00 0.20117092E+04</pdfrwt>
<pdfrwt beam="2">  1       -2 0.11838543E+00 0.20117092E+04</pdfrwt>
<totfact> 0.39422717E+00</totfact>
</mgrwt>
</event>
<event>
12    5  0.5390096E-008  0.1677210E+04  0.7818608E-02  0.8774470E-01
          1   -1    0    0  501    0  0.00000000000E+00  0.00000000000E+00  0.21630070099E+04  0.21630070099E+04  0.00000000000E+00 0. -1.
         -2   -1    0    0    0  501 -0.00000000000E+00 -0.00000000000E+00 -0.32512994775E+03  0.32512994775E+03  0.00000000000E+00 0.  1.
        -24    2    1    2    0    0  0.59116447265E+03  0.10874058179E+01  0.60394678585E+03  0.84884909855E+03  0.79476133488E+02 0.  0.
        254    2    1    2    0    0 -0.59116447265E+03 -0.10874058179E+01  0.12339302763E+04  0.16392878591E+04  0.90288656100E+03 0.  0.
         23    2    4    4    0    0 -0.56364146447E+03 -0.32848578949E+03  0.49168829289E+03  0.82236474181E+03  0.94508078190E+02 0.  0.
         23    2    4    4    0    0 -0.27523008180E+02  0.32739838367E+03  0.74224198342E+03  0.81692311729E+03  0.92157473926E+02 0.  0.
          1    1    3    3  502    0  0.21036832466E+03  0.79692061826E+01  0.16336741720E+03  0.26647186206E+03  0.00000000000E+00 0. -1.
         -2    1    3    3    0  502  0.38079614800E+03 -0.68818003647E+01  0.44057936866E+03  0.58237723650E+03  0.00000000000E+00 0.  1.
         13    1    5    5    0    0 -0.45446357751E+02 -0.10740507225E+02  0.63563417898E+02  0.78873557186E+02  0.00000000000E+00 0. -1.
        -13    1    5    5    0    0 -0.51819510672E+03 -0.31774528226E+03  0.42812487499E+03  0.74349118463E+03  0.00000000000E+00 0.  1.
          3    1    6    6  503    0  0.32366370507E+02  0.82740237454E+02  0.17452992650E+03  0.19584234496E+03  0.00000000000E+00 0. -1.
         -3    1    6    6    0  503 -0.59889378687E+02  0.24465814622E+03  0.56771205692E+03  0.62108077233E+03  0.00000000000E+00 0.  1.
<mgrwt>
<rscale>  0 0.16772100E+04</rscale>
<asrwt>0</asrwt>
<pdfrwt beam="1">  1        1 0.33277030E+00 0.16772100E+04</pdfrwt>
<pdfrwt beam="2">  1       -2 0.50019993E-01 0.16772100E+04</pdfrwt>
<totfact> 0.73129659E+00</totfact>
</mgrwt>
</event>
<event>
12    5  0.5197392E-008  0.2121630E+04  0.7818608E-02  0.8551775E-01
         -4   -1    0    0    0  501 -0.00000000000E+00  0.00000000000E+00  0.15853778255E+04  0.15853778255E+04  0.00000000000E+00 0.  1.
          1   -1    0    0  501    0  0.00000000000E+00 -0.00000000000E+00 -0.70981701739E+03  0.70981701739E+03  0.00000000000E+00 0. -1.
        -24    2    1    2    0    0  0.57704982311E+03  0.10587143339E+02  0.10567017912E+04  0.12066812575E+04  0.79764627349E+02 0.  0.
        254    2    1    2    0    0 -0.57704982311E+03 -0.10587143339E+02 -0.18114098309E+03  0.10885135854E+04  0.90495921666E+03 0.  0.
         23    2    4    4    0    0 -0.29040619004E+03  0.39053767321E+03 -0.29182963972E+03  0.57506129294E+03  0.93142485485E+02 0.  0.
         23    2    4    4    0    0 -0.28664363306E+03 -0.40112481655E+03  0.11068865663E+03  0.51345229243E+03  0.91189840777E+02 0.  0.
          3    1    3    3  502    0  0.17088594057E+03  0.28412848543E+02  0.26322201435E+03  0.31511128746E+03  0.00000000000E+00 0. -1.
         -4    1    3    3    0  502  0.40616388254E+03 -0.17825705204E+02  0.79347977687E+03  0.89156997008E+03  0.00000000000E+00 0.  1.
         13    1    5    5    0    0 -0.16769326682E+03  0.28704576677E+03 -0.16899004967E+03  0.37292618686E+03  0.00000000000E+00 0.  1.
        -13    1    5    5    0    0 -0.12271292323E+03  0.10349190644E+03 -0.12283959006E+03  0.20213510608E+03  0.00000000000E+00 0. -1.
          3    1    6    6  503    0 -0.31927485592E+02 -0.79514922920E+01  0.78382313010E+01  0.33823489410E+02  0.00000000000E+00 0. -1.
         -3    1    6    6    0  503 -0.25471614747E+03 -0.39317332426E+03  0.10285042533E+03  0.47962880302E+03  0.00000000000E+00 0.  1.
<mgrwt>
<rscale>  0 0.21216297E+04</rscale>
<asrwt>0</asrwt>
<pdfrwt beam="1">  1        1 0.10920262E+00 0.21216297E+04</pdfrwt>
<pdfrwt beam="2">  1       -4 0.24390428E+00 0.21216297E+04</pdfrwt>
<totfact> 0.80940269E-01</totfact>
</mgrwt>
</event>
<event>
12    5  0.5197392E-008  0.1873995E+04  0.7818608E-02  0.8667910E-01
          1   -1    0    0  501    0  0.00000000000E+00  0.00000000000E+00  0.15073755522E+04  0.15073755522E+04  0.00000000000E+00 0. -1.
         -2   -1    0    0    0  501 -0.00000000000E+00 -0.00000000000E+00 -0.58244579219E+03  0.58244579219E+03  0.00000000000E+00 0.  1.
        -24    2    1    2    0    0  0.28451714739E+03 -0.76137405917E+02  0.10799567881E+04  0.11224057618E+04  0.82104313011E+02 0.  0.
        254    2    1    2    0    0 -0.28451714739E+03  0.76137405917E+02 -0.15502702805E+03  0.96741558263E+03  0.90835709848E+03 0.  0.
         23    2    4    4    0    0 -0.80167244942E+02 -0.39839602234E+03  0.14570964845E+02  0.41606924737E+03  0.88063203529E+02 0.  0.
         23    2    4    4    0    0 -0.20434990245E+03  0.47453342826E+03 -0.16959799289E+03  0.55134633526E+03  0.90985960715E+02 0.  0.
          3    1    3    3  502    0  0.19918334661E+03 -0.89128499269E+02  0.72668907910E+03  0.75874561787E+03  0.00000000000E+00 0. -1.
         -4    1    3    3    0  502  0.85333800776E+02  0.12991093352E+02  0.35326770897E+03  0.36366014390E+03  0.00000000000E+00 0.  1.
         13    1    5    5    0    0 -0.76046826685E+02 -0.40263512041E+03  0.15683454665E+02  0.41005381450E+03  0.00000000000E+00 0. -1.
        -13    1    5    5    0    0 -0.41204182571E+01  0.42390980695E+01 -0.11124898197E+01  0.60154328735E+01  0.00000000000E+00 0.  1.
          3    1    6    6  503    0 -0.19294839069E+03  0.39481220853E+03 -0.11560808336E+03  0.45439079042E+03  0.00000000000E+00 0. -1.
         -3    1    6    6    0  503 -0.11401511759E+02  0.79721219723E+02 -0.53989909534E+02  0.96955544844E+02  0.00000000000E+00 0.  1.
<mgrwt>
<rscale>  0 0.18739952E+04</rscale>
<asrwt>0</asrwt>
<pdfrwt beam="1">  1        1 0.23190393E+00 0.18739952E+04</pdfrwt>
<pdfrwt beam="2">  1       -2 0.89607046E-01 0.18739952E+04</pdfrwt>
<totfact> 0.56797316E+00</totfact>
</mgrwt>
</event>
<event>
12    5  0.5197392E-008  0.1411754E+04  0.7818608E-02  0.8945354E-01
         -2   -1    0    0    0  501 -0.00000000000E+00  0.00000000000E+00  0.15141572473E+04  0.15141572473E+04  0.00000000000E+00 0.  1.
          1   -1    0    0  501    0  0.00000000000E+00 -0.00000000000E+00 -0.32906918277E+03  0.32906918277E+03  0.00000000000E+00 0. -1.
        -24    2    1    2    0    0 -0.31940702448E+03  0.20411959488E+03  0.23392781302E+03  0.45557044859E+03  0.95585331641E+02 0.  0.
        254    2    1    2    0    0  0.31940702448E+03 -0.20411959488E+03  0.95116025152E+03  0.13876559815E+04  0.93658829940E+03 0.  0.
         23    2    4    4    0    0  0.20776190194E+03  0.75381922135E+02 -0.12216724481E+03  0.26926918728E+03  0.93453825123E+02 0.  0.
         23    2    4    4    0    0  0.11164512254E+03 -0.27950151702E+03  0.10733274963E+04  0.11183867942E+04  0.90395661706E+02 0.  0.
          1    1    3    3  502    0 -0.26007881227E+03  0.15914452125E+03  0.22830787479E+03  0.38091003259E+03  0.00000000000E+00 0. -1.
         -2    1    3    3    0  502 -0.59328212208E+02  0.44975073637E+02  0.56199382316E+01  0.74660416006E+02  0.00000000000E+00 0.  1.
         13    1    5    5    0    0  0.10748083163E+03  0.44509184308E+02 -0.11709957126E+02  0.11692014263E+03  0.00000000000E+00 0.  1.
        -13    1    5    5    0    0  0.10028107031E+03  0.30872737827E+02 -0.11045728769E+03  0.15234904465E+03  0.00000000000E+00 0. -1.
          3    1    6    6  503    0 -0.25091450008E+01 -0.78689795551E+02  0.19758192051E+03  0.21268990349E+03  0.00000000000E+00 0.  1.
         -3    1    6    6    0  503  0.11415426754E+03 -0.20081172147E+03  0.87574557583E+03  0.90569689072E+03  0.00000000000E+00 0. -1.
<mgrwt>
<rscale>  0 0.14117542E+04</rscale>
<asrwt>0</asrwt>
<pdfrwt beam="1">  1        1 0.50626029E-01 0.14117542E+04</pdfrwt>
<pdfrwt beam="2">  1       -2 0.23294726E+00 0.14117542E+04</pdfrwt>
<totfact> 0.54161926E+00</totfact>
</mgrwt>
</event>
<event>
12    5  0.5197392E-008  0.1885929E+04  0.7818608E-02  0.8661892E-01
          1   -1    0    0  501    0  0.00000000000E+00  0.00000000000E+00  0.11445558985E+04  0.11445558985E+04  0.00000000000E+00 0. -1.
         -2   -1    0    0    0  501 -0.00000000000E+00 -0.00000000000E+00 -0.77687933926E+03  0.77687933926E+03  0.00000000000E+00 0.  1.
        -24    2    1    2    0    0  0.66237449936E+03  0.54512302819E+02 -0.14891897694E+03  0.68623715163E+03  0.83862971690E+02 0.  0.
        254    2    1    2    0    0 -0.66237449936E+03 -0.54512302819E+02  0.51659553614E+03  0.12351980861E+04  0.90395342544E+03 0.  0.
         23    2    4    4    0    0 -0.60781859015E+02 -0.38577681765E+03  0.58795546909E+02  0.40526478833E+03  0.90908992417E+02 0.  0.
         23    2    4    4    0    0 -0.60159264034E+03  0.33126451483E+03  0.45779998923E+03  0.82993329776E+03  0.86940007397E+02 0.  0.
          3    1    3    3  502    0  0.23611489207E+02  0.17880075668E+02 -0.11891611662E+02  0.31915669449E+02  0.00000000000E+00 0. -1.
         -4    1    3    3    0  502  0.63876301015E+03  0.36632227151E+02 -0.13702736528E+03  0.65432148218E+03  0.00000000000E+00 0.  1.
         13    1    5    5    0    0 -0.31238322695E+02 -0.26164198379E+03  0.81163680655E+02  0.27571707155E+03  0.00000000000E+00 0. -1.
        -13    1    5    5    0    0 -0.29543536320E+02 -0.12413483386E+03 -0.22368133746E+02  0.12954771678E+03  0.00000000000E+00 0.  1.
          4    1    6    6  503    0 -0.49402866793E+03  0.29309836620E+03  0.34836161531E+03  0.67180859776E+03  0.00000000000E+00 0. -1.
         -4    1    6    6    0  503 -0.10756397242E+03  0.38166148640E+02  0.10943837392E+03  0.15812470000E+03  0.00000000000E+00 0.  1.
<mgrwt>
<rscale>  0 0.18859288E+04</rscale>
<asrwt>0</asrwt>
<pdfrwt beam="1">  1        1 0.17608552E+00 0.18859288E+04</pdfrwt>
<pdfrwt beam="2">  1       -2 0.11951990E+00 0.18859288E+04</pdfrwt>
<totfact> 0.51733618E+00</totfact>
</mgrwt>
</event>
<event>
12    5  0.5197392E-008  0.1607499E+04  0.7818608E-02  0.8815954E-01
          1   -1    0    0  501    0  0.00000000000E+00  0.00000000000E+00  0.14624734245E+04  0.14624734245E+04  0.00000000000E+00 0. -1.
         -2   -1    0    0    0  501 -0.00000000000E+00 -0.00000000000E+00 -0.44172630823E+03  0.44172630823E+03  0.00000000000E+00 0.  1.
        -24    2    1    2    0    0 -0.33194109981E+03  0.41465157851E+03  0.20619238826E+03  0.57532937592E+03  0.79798273886E+02 0.  0.
        254    2    1    2    0    0  0.33194109981E+03 -0.41465157851E+03  0.81455472799E+03  0.13288703568E+04  0.90569100412E+03 0.  0.
         23    2    4    4    0    0  0.31259222097E+03 -0.27079110060E+03  0.99361243457E+03  0.10800166819E+04  0.90159005351E+02 0.  0.
         23    2    4    4    0    0  0.19348878832E+02 -0.14386047791E+03 -0.17905770659E+03  0.24885367489E+03  0.93788448118E+02 0.  0.
          3    1    3    3  502    0 -0.24125057907E+03  0.30022364098E+03  0.18674891130E+03  0.42803181234E+03  0.00000000000E+00 0. -1.
         -4    1    3    3    0  502 -0.90690520737E+02  0.11442793753E+03  0.19443476958E+02  0.14729756357E+03  0.00000000000E+00 0.  1.
         13    1    5    5    0    0  0.77100646638E+02 -0.32601131650E+02  0.14107227246E+03  0.16403880502E+03  0.00000000000E+00 0. -1.
        -13    1    5    5    0    0  0.23549157434E+03 -0.23818996895E+03  0.85254016212E+03  0.91597787687E+03  0.00000000000E+00 0.  1.
          2    1    6    6  503    0  0.21350586243E+02  0.35159398187E+01 -0.80331218160E+01  0.23081170071E+02  0.00000000000E+00 0. -1.
         -2    1    6    6    0  503 -0.20017074112E+01 -0.14737641773E+03 -0.17102458477E+03  0.22577250482E+03  0.00000000000E+00 0.  1.
<mgrwt>
<rscale>  0 0.16074987E+04</rscale>
<asrwt>0</asrwt>
<pdfrwt beam="1">  1        1 0.22499591E+00 0.16074987E+04</pdfrwt>
<pdfrwt beam="2">  1       -2 0.67957894E-01 0.16074987E+04</pdfrwt>
<totfact> 0.11589884E+01</totfact>
</mgrwt>
</event>
<event>
12    5  0.5197392E-008  0.1447733E+04  0.7818608E-02  0.8919973E-01
          1   -1    0    0  501    0  0.00000000000E+00  0.00000000000E+00  0.64060575144E+03  0.64060575144E+03  0.00000000000E+00 0. -1.
         -2   -1    0    0    0  501 -0.00000000000E+00 -0.00000000000E+00 -0.81794921148E+03  0.81794921148E+03  0.00000000000E+00 0.  1.
        -24    2    1    2    0    0  0.34036522700E+03  0.29212874552E+03 -0.42556349594E+02  0.45782421299E+03  0.81266693041E+02 0.  0.
        254    2    1    2    0    0 -0.34036522700E+03 -0.29212874552E+03 -0.13478711044E+03  0.10007307499E+04  0.88436800993E+03 0.  0.
         23    2    4    4    0    0 -0.26775485367E+03 -0.28072312869E+03 -0.48688212276E+03  0.62932641015E+03  0.92192149289E+02 0.  0.
         23    2    4    4    0    0 -0.72610373330E+02 -0.11405616832E+02  0.35209501233E+03  0.37140433978E+03  0.92563121664E+02 0.  0.
          3    1    3    3  502    0  0.25744993904E+03  0.19022139687E+03 -0.12408814434E+01  0.32010340630E+03  0.00000000000E+00 0. -1.
         -4    1    3    3    0  502  0.82915287968E+02  0.10190734865E+03 -0.41315468151E+02  0.13772080670E+03  0.00000000000E+00 0.  1.
         13    1    5    5    0    0 -0.20795658342E+02 -0.70809915916E+02 -0.10669787278E+03  0.12973411137E+03  0.00000000000E+00 0. -1.
        -13    1    5    5    0    0 -0.24695919533E+03 -0.20991321278E+03 -0.38018424999E+03  0.49959229878E+03  0.00000000000E+00 0.  1.
          1    1    6    6  503    0  0.17764447089E+02  0.15077631977E+02  0.87508026972E+02  0.90556972956E+02  0.00000000000E+00 0.  1.
         -1    1    6    6    0  503 -0.90374820419E+02 -0.26483248809E+02  0.26458698535E+03  0.28084736682E+03  0.00000000000E+00 0. -1.
<mgrwt>
<rscale>  0 0.14477334E+04</rscale>
<asrwt>0</asrwt>
<pdfrwt beam="1">  1        1 0.98554731E-01 0.14477334E+04</pdfrwt>
<pdfrwt beam="2">  1       -2 0.12583834E+00 0.14477334E+04</pdfrwt>
<totfact> 0.12472093E+01</totfact>
</mgrwt>
</event>
<event>
12    5  0.5197392E-008  0.1223418E+04  0.7818608E-02  0.9092602E-01
         -2   -1    0    0    0  501 -0.00000000000E+00  0.00000000000E+00  0.12498461226E+03  0.12498461226E+03  0.00000000000E+00 0.  1.
          1   -1    0    0  501    0  0.00000000000E+00 -0.00000000000E+00 -0.29938733975E+04  0.29938733975E+04  0.00000000000E+00 0. -1.
        -24    2    1    2    0    0  0.13257897369E+03  0.26018274321E+03 -0.57589524581E+03  0.65071270156E+03  0.80619114963E+02 0.  0.
        254    2    1    2    0    0 -0.13257897369E+03 -0.26018274321E+03 -0.22929935395E+04  0.24681453082E+04  0.86524542552E+03 0.  0.
         23    2    4    4    0    0 -0.21554793467E+03  0.29171117280E+01 -0.21142156969E+04  0.21271070555E+04  0.90592443164E+02 0.  0.
         23    2    4    4    0    0  0.82968960979E+02 -0.26309985494E+03 -0.17877784255E+03  0.34103825275E+03  0.90775496093E+02 0.  0.
          3    1    3    3  502    0  0.11277630057E+03  0.25887687806E+03 -0.54806248506E+03  0.61652917165E+03  0.00000000000E+00 0. -1.
         -4    1    3    3    0  502  0.19802673116E+02  0.13058651547E+01 -0.27832760747E+02  0.34183529910E+02  0.00000000000E+00 0.  1.
         13    1    5    5    0    0 -0.17402090014E+03 -0.11381042500E+02 -0.12916495801E+04  0.13033692645E+04  0.00000000000E+00 0. -1.
        -13    1    5    5    0    0 -0.41527034523E+02  0.14298154228E+02 -0.82256611675E+03  0.82373779095E+03  0.00000000000E+00 0.  1.
          4    1    6    6  503    0  0.64343395557E+01 -0.93132759769E+01  0.10406211452E+02  0.15376185213E+02  0.00000000000E+00 0. -1.
         -4    1    6    6    0  503  0.76534621423E+02 -0.25378657897E+03 -0.18918405401E+03  0.32566206753E+03  0.00000000000E+00 0.  1.
<mgrwt>
<rscale>  0 0.12234183E+04</rscale>
<asrwt>0</asrwt>
<pdfrwt beam="1">  1        1 0.46059587E+00 0.12234183E+04</pdfrwt>
<pdfrwt beam="2">  1       -2 0.19228403E-01 0.12234183E+04</pdfrwt>
<totfact> 0.12147002E+01</totfact>
</mgrwt>
</event>
<event>
12    5  0.5197392E-008  0.1217847E+04  0.7818608E-02  0.9097377E-01
         -2   -1    0    0    0  501 -0.00000000000E+00  0.00000000000E+00  0.97834732282E+03  0.97834732282E+03  0.00000000000E+00 0.  1.
          1   -1    0    0  501    0  0.00000000000E+00 -0.00000000000E+00 -0.37899436564E+03  0.37899436564E+03  0.00000000000E+00 0. -1.
        -24    2    1    2    0    0  0.77920653921E+02 -0.30089403433E+02 -0.14804599954E+03  0.18678803468E+03  0.77428363117E+02 0.  0.
        254    2    1    2    0    0 -0.77920653921E+02  0.30089403433E+02  0.74739895672E+03  0.11705536538E+04  0.89700259496E+03 0.  0.
         23    2    4    4    0    0 -0.21892942604E+03  0.29421524811E+03  0.19279950762E+02  0.37853503654E+03  0.91784266534E+02 0.  0.
         23    2    4    4    0    0  0.14100877212E+03 -0.26412584468E+03  0.72811900596E+03  0.79201861724E+03  0.86546331947E+02 0.  0.
          3    1    3    3  502    0  0.88556279263E+02 -0.17806000448E+02 -0.94056636513E+02  0.13040674492E+03  0.00000000000E+00 0. -1.
         -4    1    3    3    0  502 -0.10635625342E+02 -0.12283402984E+02 -0.53989363022E+02  0.56381289759E+02  0.00000000000E+00 0.  1.
         13    1    5    5    0    0 -0.85527332090E+02  0.64677442147E+02 -0.23091595589E+02  0.10968736410E+03  0.00000000000E+00 0.  1.
        -13    1    5    5    0    0 -0.13340209395E+03  0.22953780596E+03  0.42371546351E+02  0.26884767244E+03  0.00000000000E+00 0. -1.
          4    1    6    6  503    0  0.11970177193E+01 -0.80518960713E+02  0.17207682890E+03  0.18998729150E+03  0.00000000000E+00 0. -1.
         -4    1    6    6    0  503  0.13981175440E+03 -0.18360688396E+03  0.55604217705E+03  0.60203132574E+03  0.00000000000E+00 0.  1.
<mgrwt>
<rscale>  0 0.12178475E+04</rscale>
<asrwt>0</asrwt>
<pdfrwt beam="1">  1        1 0.58306826E-01 0.12178475E+04</pdfrwt>
<pdfrwt beam="2">  1       -2 0.15051497E+00 0.12178475E+04</pdfrwt>
<totfact> 0.16508330E+01</totfact>
</mgrwt>
</event>
<event>
12    5  0.5197392E-008  0.1453560E+04  0.7818608E-02  0.8915936E-01
          1   -1    0    0  501    0  0.00000000000E+00  0.00000000000E+00  0.10884993890E+04  0.10884993890E+04  0.00000000000E+00 0. -1.
         -2   -1    0    0    0  501 -0.00000000000E+00 -0.00000000000E+00 -0.48526386012E+03  0.48526386012E+03  0.00000000000E+00 0.  1.
        -24    2    1    2    0    0  0.37519169360E+03 -0.11851034452E+03 -0.36723751636E+02  0.40309144080E+03  0.79501993733E+02 0.  0.
        254    2    1    2    0    0 -0.37519169360E+03  0.11851034452E+03  0.63995928051E+03  0.11706718083E+04  0.89783689686E+03 0.  0.
         23    2    4    4    0    0  0.26920840475E+03  0.11643531748E+03  0.32644879979E+03  0.44766065566E+03  0.88322677694E+02 0.  0.
         23    2    4    4    0    0 -0.64440009835E+03  0.20750270404E+01  0.31351048072E+03  0.72301115266E+03  0.95919303882E+02 0.  0.
          3    1    3    3  502    0  0.19337157143E+03 -0.50567543948E+02 -0.57243875719E+02  0.20790984211E+03  0.00000000000E+00 0. -1.
         -4    1    3    3    0  502  0.18182012217E+03 -0.67942800576E+02  0.20520124083E+02  0.19518159869E+03  0.00000000000E+00 0.  1.
         13    1    5    5    0    0  0.26695014258E+03  0.11400315527E+03  0.28743865384E+03  0.40850958098E+03  0.00000000000E+00 0. -1.
        -13    1    5    5    0    0  0.22582621677E+01  0.24321622175E+01  0.39010145950E+02  0.39151074674E+02  0.00000000000E+00 0.  1.
          4    1    6    6  503    0 -0.52294214519E+03 -0.31037058895E+02  0.27321750341E+03  0.59082957815E+03  0.00000000000E+00 0. -1.
         -4    1    6    6    0  503 -0.12145795315E+03  0.33112085935E+02  0.40292977313E+02  0.13218157451E+03  0.00000000000E+00 0.  1.
<mgrwt>
<rscale>  0 0.14535603E+04</rscale>
<asrwt>0</asrwt>
<pdfrwt beam="1">  1        1 0.16746144E+00 0.14535603E+04</pdfrwt>
<pdfrwt beam="2">  1       -2 0.74655979E-01 0.14535603E+04</pdfrwt>
<totfact> 0.17766091E+01</totfact>
</mgrwt>
</event>
<event>
12    5  0.5197392E-008  0.4126827E+04  0.7818608E-02  0.7979439E-01
         -2   -1    0    0    0  501 -0.00000000000E+00  0.00000000000E+00  0.23601452512E+04  0.23601452512E+04  0.00000000000E+00 0.  1.
          1   -1    0    0  501    0  0.00000000000E+00 -0.00000000000E+00 -0.18039886030E+04  0.18039886030E+04  0.00000000000E+00 0. -1.
        -24    2    1    2    0    0  0.14579783908E+04 -0.39650425041E+03 -0.10003730928E+04  0.18139874528E+04  0.82991236902E+02 0.  0.
        254    2    1    2    0    0 -0.14579783908E+04  0.39650425041E+03  0.15565297410E+04  0.23501464014E+04  0.90414969158E+03 0.  0.
         23    2    4    4    0    0 -0.56393728873E+03  0.61011940211E+03  0.79440024686E+03  0.11531047200E+04  0.91147092813E+02 0.  0.
         23    2    4    4    0    0 -0.89404110202E+03 -0.21361515170E+03  0.76212949417E+03  0.11970416814E+04  0.84418576537E+02 0.  0.
          1    1    3    3  502    0  0.10948030640E+04 -0.26591307634E+03 -0.72200178643E+03  0.13381293259E+04  0.00000000000E+00 0. -1.
         -2    1    3    3    0  502  0.36317532674E+03 -0.13059117407E+03 -0.27837130641E+03  0.47585812689E+03  0.00000000000E+00 0.  1.
         13    1    5    5    0    0 -0.25091540845E+03  0.27485483690E+03  0.29387367172E+03  0.47419980862E+03  0.00000000000E+00 0. -1.
        -13    1    5    5    0    0 -0.31302188028E+03  0.33526456522E+03  0.50052657513E+03  0.67890491134E+03  0.00000000000E+00 0.  1.
          1    1    6    6  503    0 -0.84079630794E+03 -0.18779611624E+03  0.73269864693E+03  0.11309523067E+04  0.00000000000E+00 0. -1.
         -1    1    6    6    0  503 -0.53244794081E+02 -0.25819035465E+02  0.29430847241E+02  0.66089374777E+02  0.00000000000E+00 0.  1.
<mgrwt>
<rscale>  0 0.41268269E+04</rscale>
<asrwt>0</asrwt>
<pdfrwt beam="1">  1        1 0.27753671E+00 0.41268269E+04</pdfrwt>
<pdfrwt beam="2">  1       -2 0.36309927E+00 0.41268269E+04</pdfrwt>
<totfact> 0.35391753E-02</totfact>
</mgrwt>
</event>
<event>
12    5  0.5197392E-008  0.1426599E+04  0.7818608E-02  0.8934786E-01
         -2   -1    0    0    0  501 -0.00000000000E+00  0.00000000000E+00  0.27214209573E+03  0.27214209573E+03  0.00000000000E+00 0.  1.
          1   -1    0    0  501    0  0.00000000000E+00 -0.00000000000E+00 -0.18695985317E+04  0.18695985317E+04  0.00000000000E+00 0. -1.
        -24    2    1    2    0    0  0.11386429923E+03  0.23014529855E+03 -0.64490333743E+03  0.69953871701E+03  0.86730414961E+02 0.  0.
        254    2    1    2    0    0 -0.11386429923E+03 -0.23014529855E+03 -0.95255309852E+03  0.14422019104E+04  0.10519776651E+04 0.  0.
         23    2    4    4    0    0  0.13190912853E+03 -0.51169281931E+03 -0.90928782404E+03  0.10557595855E+04  0.92705964649E+02 0.  0.
         23    2    4    4    0    0 -0.24577342776E+03  0.28154752077E+03 -0.43265274479E+02  0.38644232491E+03  0.88273451645E+02 0.  0.
          1    1    3    3  502    0  0.81989385208E+02  0.18999150161E+03 -0.58593310612E+03  0.62139893371E+03  0.00000000000E+00 0. -1.
         -2    1    3    3    0  502  0.31874914025E+02  0.40153796939E+02 -0.58970231313E+02  0.78139783298E+02  0.00000000000E+00 0.  1.
         13    1    5    5    0    0  0.72020223196E+01  0.20987340691E+01 -0.91335124291E+01  0.11819257992E+02  0.00000000000E+00 0. -1.
        -13    1    5    5    0    0  0.12470710621E+03 -0.51379155338E+03 -0.90015431161E+03  0.10439403275E+04  0.00000000000E+00 0.  1.
          1    1    6    6  503    0 -0.70196433982E+02  0.30412150629E+02  0.29167152754E+01  0.76556812092E+02  0.00000000000E+00 0. -1.
         -1    1    6    6    0  503 -0.17557699378E+03  0.25113537014E+03 -0.46181989754E+02  0.30988551282E+03  0.00000000000E+00 0.  1.
<mgrwt>
<rscale>  0 0.14265994E+04</rscale>
<asrwt>0</asrwt>
<pdfrwt beam="1">  1        1 0.28763054E+00 0.14265994E+04</pdfrwt>
<pdfrwt beam="2">  1       -2 0.41868016E-01 0.14265994E+04</pdfrwt>
<totfact> 0.16878518E+01</totfact>
</mgrwt>
</event>
<event>
12    5  0.5197392E-008  0.2925391E+04  0.7818608E-02  0.8265363E-01
         -2   -1    0    0    0  501 -0.00000000000E+00  0.00000000000E+00  0.10990961147E+04  0.10990961147E+04  0.00000000000E+00 0.  1.
          1   -1    0    0  501    0  0.00000000000E+00 -0.00000000000E+00 -0.19465802366E+04  0.19465802366E+04  0.00000000000E+00 0. -1.
        -24    2    1    2    0    0  0.40870218910E+03  0.46250647002E+03 -0.16000120116E+04  0.17167444223E+04  0.78887643376E+02 0.  0.
        254    2    1    2    0    0 -0.40870218910E+03 -0.46250647002E+03  0.75252788964E+03  0.13289319290E+04  0.90488238628E+03 0.  0.
         23    2    4    4    0    0  0.72809445056E+02 -0.52257888852E+03  0.61708906167E+03  0.81712773605E+03  0.92243790980E+02 0.  0.
         23    2    4    4    0    0 -0.48151163416E+03  0.60072418502E+02  0.13543882797E+03  0.51180419294E+03  0.90209237280E+02 0.  0.
          3    1    3    3  502    0  0.29409719182E+03  0.27997687736E+03 -0.10073137181E+04  0.10860760271E+04  0.00000000000E+00 0. -1.
         -4    1    3    3    0  502  0.11460499728E+03  0.18252959266E+03 -0.59269829352E+03  0.63066839523E+03  0.00000000000E+00 0.  1.
         13    1    5    5    0    0 -0.20424397869E+02 -0.15807968369E+03  0.18450252787E+03  0.24381863180E+03  0.00000000000E+00 0.  1.
        -13    1    5    5    0    0  0.93233842925E+02 -0.36449920483E+03  0.43258653380E+03  0.57330910425E+03  0.00000000000E+00 0. -1.
          1    1    6    6  503    0 -0.46553872511E+03  0.62798910079E+02  0.14663371788E+03  0.49210919002E+03  0.00000000000E+00 0. -1.
         -1    1    6    6    0  503 -0.15972909052E+02 -0.27264915766E+01 -0.11194889909E+02  0.19695002918E+02  0.00000000000E+00 0.  1.
<mgrwt>
<rscale>  0 0.29253914E+04</rscale>
<asrwt>0</asrwt>
<pdfrwt beam="1">  1        1 0.29947388E+00 0.29253914E+04</pdfrwt>
<pdfrwt beam="2">  1       -2 0.16909171E+00 0.29253914E+04</pdfrwt>
<totfact> 0.52764449E-01</totfact>
</mgrwt>
</event>
<event>
12    5  0.5197392E-008  0.1502659E+04  0.7818608E-02  0.8882687E-01
         -2   -1    0    0    0  501 -0.00000000000E+00  0.00000000000E+00  0.25565182158E+03  0.25565182158E+03  0.00000000000E+00 0.  1.
          1   -1    0    0  501    0  0.00000000000E+00 -0.00000000000E+00 -0.22080658984E+04  0.22080658984E+04  0.00000000000E+00 0. -1.
        -24    2    1    2    0    0 -0.19744304602E+03 -0.20043328466E+03  0.42470092106E+00  0.29316253489E+03  0.82382240004E+02 0.  0.
        254    2    1    2    0    0  0.19744304602E+03  0.20043328466E+03 -0.19528387777E+04  0.21705551851E+04  0.90475038640E+03 0.  0.
         23    2    4    4    0    0 -0.21338351801E+03 -0.11937324872E+03 -0.16996709265E+03  0.31103027807E+03  0.89824957706E+02 0.  0.
         23    2    4    4    0    0  0.41082656403E+03  0.31980653338E+03 -0.17828716851E+04  0.18595249070E+04  0.90259347599E+02 0.  0.
          3    1    3    3  502    0 -0.13609413248E+02 -0.55283341417E+02  0.13694750644E+02  0.58557750660E+02  0.00000000000E+00 0. -1.
         -4    1    3    3    0  502 -0.18383363277E+03 -0.14514994325E+03 -0.13270049723E+02  0.23460478423E+03  0.00000000000E+00 0.  1.
         13    1    5    5    0    0 -0.63495208696E+02 -0.24346694909E+02 -0.98531834163E+02  0.11972019639E+03  0.00000000000E+00 0. -1.
        -13    1    5    5    0    0 -0.14988830932E+03 -0.95026553814E+02 -0.71435258483E+02  0.19131008168E+03  0.00000000000E+00 0.  1.
          2    1    6    6  503    0  0.19415726142E+03  0.17518880982E+03 -0.74902494415E+03  0.79336405780E+03  0.00000000000E+00 0. -1.
         -2    1    6    6    0  503  0.21666930261E+03  0.14461772357E+03 -0.10338467409E+04  0.10661608492E+04  0.00000000000E+00 0.  1.
<mgrwt>
<rscale>  0 0.15026591E+04</rscale>
<asrwt>0</asrwt>
<pdfrwt beam="1">  1        1 0.33970243E+00 0.15026591E+04</pdfrwt>
<pdfrwt beam="2">  1       -2 0.39331051E-01 0.15026591E+04</pdfrwt>
<totfact> 0.11179855E+01</totfact>
</mgrwt>
</event>
<event>
12    5  0.5197392E-008  0.1479527E+04  0.7818608E-02  0.8898183E-01
          1   -1    0    0  501    0  0.00000000000E+00  0.00000000000E+00  0.46376007575E+03  0.46376007575E+03  0.00000000000E+00 0. -1.
         -4   -1    0    0    0  501 -0.00000000000E+00 -0.00000000000E+00 -0.11800283370E+04  0.11800283370E+04  0.00000000000E+00 0.  1.
        -24    2    1    2    0    0  0.13058176618E+03  0.16083249755E+03  0.22926226346E+03  0.31908690762E+03  0.79602633391E+02 0.  0.
        254    2    1    2    0    0 -0.13058176618E+03 -0.16083249755E+03 -0.94553052475E+03  0.13247015052E+04  0.90437128141E+03 0.  0.
         23    2    4    4    0    0 -0.12529854854E+03 -0.16281370122E+03 -0.11120277068E+04  0.11345303945E+04  0.91354078925E+02 0.  0.
         23    2    4    4    0    0 -0.52832176414E+01  0.19812036701E+01  0.16649718204E+03  0.19017111070E+03  0.91716422516E+02 0.  0.
          3    1    3    3  502    0  0.13838689995E+03  0.14473460966E+03  0.22395826009E+03  0.30042693550E+03  0.00000000000E+00 0. -1.
         -4    1    3    3    0  502 -0.78051337720E+01  0.16097887891E+02  0.53040033625E+01  0.18659972117E+02  0.00000000000E+00 0.  1.
         13    1    5    5    0    0 -0.79960806404E+01  0.10050315007E+02 -0.12372341810E+03  0.12438822422E+03  0.00000000000E+00 0. -1.
        -13    1    5    5    0    0 -0.11730246790E+03 -0.17286401623E+03 -0.98830428869E+03  0.10101421703E+04  0.00000000000E+00 0.  1.
          1    1    6    6  503    0  0.10245972243E+02 -0.25102532201E+02  0.15428248224E+03  0.15664674078E+03  0.00000000000E+00 0. -1.
         -1    1    6    6    0  503 -0.15529189884E+02  0.27083735871E+02  0.12214699801E+02  0.33524369918E+02  0.00000000000E+00 0.  1.
<mgrwt>
<rscale>  0 0.14795270E+04</rscale>
<asrwt>0</asrwt>
<pdfrwt beam="1">  1        1 0.71347705E-01 0.14795270E+04</pdfrwt>
<pdfrwt beam="2">  1       -4 0.18154282E+00 0.14795270E+04</pdfrwt>
<totfact> 0.39915261E+00</totfact>
</mgrwt>
</event>
<event>
12    5  0.5197392E-008  0.4254048E+04  0.7818608E-02  0.7955170E-01
          1   -1    0    0  501    0  0.00000000000E+00  0.00000000000E+00  0.27137295021E+04  0.27137295021E+04  0.00000000000E+00 0. -1.
         -2   -1    0    0    0  501 -0.00000000000E+00 -0.00000000000E+00 -0.16671634501E+04  0.16671634501E+04  0.00000000000E+00 0.  1.
        -24    2    1    2    0    0  0.10598165028E+02 -0.48756034015E+03  0.25154212250E+04  0.25633904688E+04  0.76153462768E+02 0.  0.
        254    2    1    2    0    0 -0.10598165028E+02  0.48756034015E+03 -0.14688551730E+04  0.18175024834E+04  0.95286533760E+03 0.  0.
         23    2    4    4    0    0  0.22886405985E+02  0.16811901524E+03 -0.14715137460E+04  0.14840277511E+04  0.90542093019E+02 0.  0.
         23    2    4    4    0    0 -0.33484571013E+02  0.31944132491E+03  0.26585729808E+01  0.33347473230E+03  0.89634549770E+02 0.  0.
          3    1    3    3  502    0  0.31012115456E+02 -0.44567226220E+03  0.22535506410E+04  0.22974063654E+04  0.00000000000E+00 0. -1.
         -4    1    3    3    0  502 -0.20413950427E+02 -0.41888077955E+02  0.26187058409E+03  0.26598410339E+03  0.00000000000E+00 0.  1.
         13    1    5    5    0    0  0.90571470752E+01  0.22628663204E+02 -0.57112325213E+02  0.62095941919E+02  0.00000000000E+00 0. -1.
        -13    1    5    5    0    0  0.13829258909E+02  0.14549035204E+03 -0.14144014208E+04  0.14219318092E+04  0.00000000000E+00 0.  1.
          1    1    6    6  503    0  0.79041821077E+01  0.11899745136E+03 -0.37262488199E+02  0.12494543830E+03  0.00000000000E+00 0. -1.
         -1    1    6    6    0  503 -0.41388753121E+02  0.20044387356E+03  0.39921061180E+02  0.20852929400E+03  0.00000000000E+00 0.  1.
<mgrwt>
<rscale>  0 0.42540478E+04</rscale>
<asrwt>0</asrwt>
<pdfrwt beam="1">  1        1 0.41749684E+00 0.42540478E+04</pdfrwt>
<pdfrwt beam="2">  1       -2 0.25648669E+00 0.42540478E+04</pdfrwt>
<totfact> 0.37954031E-02</totfact>
</mgrwt>
</event>
<event>
12    5  0.5197392E-008  0.1881789E+04  0.7818608E-02  0.8663975E-01
          1   -1    0    0  501    0  0.00000000000E+00  0.00000000000E+00  0.20857092280E+04  0.20857092280E+04  0.00000000000E+00 0. -1.
         -2   -1    0    0    0  501 -0.00000000000E+00 -0.00000000000E+00 -0.42445149891E+03  0.42445149891E+03  0.00000000000E+00 0.  1.
        -24    2    1    2    0    0  0.50871059922E+03  0.49801190471E+03  0.91767145987E+03  0.11642364460E+04  0.80766719341E+02 0.  0.
        254    2    1    2    0    0 -0.50871059922E+03 -0.49801190471E+03  0.74358626923E+03  0.13459242809E+04  0.86705784073E+03 0.  0.
         23    2    4    4    0    0 -0.47527407555E+03 -0.25618564917E+02  0.71300859805E+03  0.86257377213E+03  0.95448906310E+02 0.  0.
         23    2    4    4    0    0 -0.33436523674E+02 -0.47239333979E+03  0.30577671177E+02  0.48335050878E+03  0.91756480817E+02 0.  0.
          3    1    3    3  502    0  0.33464451081E+03  0.33295207463E+03  0.54482041514E+03  0.72088370586E+03  0.00000000000E+00 0. -1.
         -4    1    3    3    0  502  0.17406608841E+03  0.16505983008E+03  0.37285104473E+03  0.44335274015E+03  0.00000000000E+00 0.  1.
         13    1    5    5    0    0 -0.16361001107E+03 -0.54468695223E+02  0.25517998551E+03  0.30798035568E+03  0.00000000000E+00 0.  1.
        -13    1    5    5    0    0 -0.31166406447E+03  0.28850130306E+02  0.45782861255E+03  0.55459341645E+03  0.00000000000E+00 0. -1.
          3    1    6    6  503    0 -0.40351544666E+01 -0.29281155747E+03  0.60253747423E+02  0.29897391983E+03  0.00000000000E+00 0. -1.
         -3    1    6    6    0  503 -0.29401369207E+02 -0.17958178232E+03 -0.29676076246E+02  0.18437658895E+03  0.00000000000E+00 0.  1.
<mgrwt>
<rscale>  0 0.18817889E+04</rscale>
<asrwt>0</asrwt>
<pdfrwt beam="1">  1        1 0.32087834E+00 0.18817889E+04</pdfrwt>
<pdfrwt beam="2">  1       -2 0.65300232E-01 0.18817889E+04</pdfrwt>
<totfact> 0.46362924E+00</totfact>
</mgrwt>
</event>
<event>
12    5  0.5197392E-008  0.1246610E+04  0.7818608E-02  0.9073009E-01
         -2   -1    0    0    0  501 -0.00000000000E+00  0.00000000000E+00  0.13566964399E+04  0.13566964399E+04  0.00000000000E+00 0.  1.
          1   -1    0    0  501    0  0.00000000000E+00 -0.00000000000E+00 -0.28636407919E+03  0.28636407919E+03  0.00000000000E+00 0. -1.
        -24    2    1    2    0    0  0.12597081802E+03  0.93207533962E+01  0.57717780219E+03  0.59721114236E+03  0.87013848200E+02 0.  0.
        254    2    1    2    0    0 -0.12597081802E+03 -0.93207533962E+01  0.49315455848E+03  0.10458493767E+04  0.91358851610E+03 0.  0.
         23    2    4    4    0    0 -0.32201648662E+03 -0.37165188323E+03  0.25081028297E+03  0.55937221372E+03  0.90397651924E+02 0.  0.
         23    2    4    4    0    0  0.19604566860E+03  0.36233112983E+03  0.24234427551E+03  0.48647716298E+03  0.90617495006E+02 0.  0.
          1    1    3    3  502    0  0.11186809145E+01 -0.17856072723E+02  0.15750155832E+03  0.15851445251E+03  0.00000000000E+00 0. -1.
         -2    1    3    3    0  502  0.12485213711E+03  0.27176826119E+02  0.41967624387E+03  0.43869668985E+03  0.00000000000E+00 0.  1.
         13    1    5    5    0    0 -0.76480210983E+02 -0.12060927124E+03  0.11311961365E+03  0.18218634958E+03  0.00000000000E+00 0.  1.
        -13    1    5    5    0    0 -0.24553627564E+03 -0.25104261199E+03  0.13769066932E+03  0.37718586414E+03  0.00000000000E+00 0. -1.
          2    1    6    6  503    0  0.17235269591E+03  0.23044543499E+03  0.16180256687E+03  0.33013727590E+03  0.00000000000E+00 0. -1.
         -2    1    6    6    0  503  0.23692972693E+02  0.13188569485E+03  0.80541708647E+02  0.15633988708E+03  0.00000000000E+00 0.  1.
<mgrwt>
<rscale>  0 0.12466100E+04</rscale>
<asrwt>0</asrwt>
<pdfrwt beam="1">  1        1 0.44056013E-01 0.12466100E+04</pdfrwt>
<pdfrwt beam="2">  1       -2 0.20872253E+00 0.12466100E+04</pdfrwt>
<totfact> 0.93557261E+00</totfact>
</mgrwt>
</event>
<event>
12    5  0.5197392E-008  0.1720259E+04  0.7818608E-02  0.8749894E-01
          1   -1    0    0  501    0  0.00000000000E+00  0.00000000000E+00  0.21673184140E+04  0.21673184140E+04  0.00000000000E+00 0. -1.
         -2   -1    0    0    0  501 -0.00000000000E+00 -0.00000000000E+00 -0.34135385175E+03  0.34135385175E+03  0.00000000000E+00 0.  1.
        -24    2    1    2    0    0  0.12014667783E+03 -0.84237997187E+02  0.15743334726E+04  0.15832871014E+04  0.82102972812E+02 0.  0.
        254    2    1    2    0    0 -0.12014667783E+03  0.84237997187E+02  0.25163108965E+03  0.92538516435E+03  0.87834402870E+03 0.  0.
         23    2    4    4    0    0 -0.49103223479E+03  0.70967575093E+02  0.12188479059E+03  0.51910359730E+03  0.91997772993E+02 0.  0.
         23    2    4    4    0    0  0.37088555696E+03  0.13270422094E+02  0.12974629906E+03  0.40628156705E+03  0.10246174476E+03 0.  0.
          1    1    3    3  502    0  0.58286698975E+02 -0.78053902389E+02  0.11875997179E+04  0.11915883689E+04  0.00000000000E+00 0. -1.
         -2    1    3    3    0  502  0.61859978856E+02 -0.61840947985E+01  0.38673375469E+03  0.39169873249E+03  0.00000000000E+00 0.  1.
         13    1    5    5    0    0 -0.10062477533E+03  0.41875210065E+02 -0.29647479058E+00  0.10899067174E+03  0.00000000000E+00 0. -1.
        -13    1    5    5    0    0 -0.39040745946E+03  0.29092365028E+02  0.12218126538E+03  0.41011292556E+03  0.00000000000E+00 0.  1.
          3    1    6    6  503    0  0.10466207349E+03 -0.42573861448E+02  0.38012073477E+02  0.11921241980E+03  0.00000000000E+00 0. -1.
         -3    1    6    6    0  503  0.26622348347E+03  0.55844283542E+02  0.91734225586E+02  0.28706914724E+03  0.00000000000E+00 0.  1.
<mgrwt>
<rscale>  0 0.17202587E+04</rscale>
<asrwt>0</asrwt>
<pdfrwt beam="1">  1        1 0.33343359E+00 0.17202587E+04</pdfrwt>
<pdfrwt beam="2">  1       -2 0.52515978E-01 0.17202587E+04</pdfrwt>
<totfact> 0.65486061E+00</totfact>
</mgrwt>
</event>
<event>
12    5  0.5197392E-008  0.1548654E+04  0.7818608E-02  0.8852728E-01
          1   -1    0    0  501    0  0.00000000000E+00  0.00000000000E+00  0.33365590470E+04  0.33365590470E+04  0.00000000000E+00 0. -1.
         -2   -1    0    0    0  501 -0.00000000000E+00 -0.00000000000E+00 -0.17970073995E+03  0.17970073995E+03  0.00000000000E+00 0.  1.
        -24    2    1    2    0    0 -0.26969726452E+03  0.12352066792E+03  0.19842149070E+04  0.20079346634E+04  0.81846474192E+02 0.  0.
        254    2    1    2    0    0  0.26969726452E+03 -0.12352066792E+03  0.11726434000E+04  0.15083251235E+04  0.90108721264E+03 0.  0.
         23    2    4    4    0    0  0.14636168873E+03 -0.49825581384E+03  0.52480762369E+03  0.74379858670E+03  0.90181460097E+02 0.  0.
         23    2    4    4    0    0  0.12333557579E+03  0.37473514591E+03  0.64783577633E+03  0.76452653684E+03  0.95768150217E+02 0.  0.
          3    1    3    3  502    0 -0.23913757382E+03  0.12824185960E+03  0.18709139285E+04  0.18904897994E+04  0.00000000000E+00 0. -1.
         -4    1    3    3    0  502 -0.30559690704E+02 -0.47211916775E+01  0.11330097853E+03  0.11744486401E+03  0.00000000000E+00 0.  1.
         13    1    5    5    0    0  0.13166247758E+03 -0.49159261631E+03  0.51833930641E+03  0.72641169111E+03  0.00000000000E+00 0. -1.
        -13    1    5    5    0    0  0.14699211152E+02 -0.66631975235E+01  0.64683172773E+01  0.17386895586E+02  0.00000000000E+00 0.  1.
          4    1    6    6  503    0  0.13661001718E+02  0.14740098138E+03  0.30252625356E+03  0.33680232537E+03  0.00000000000E+00 0. -1.
         -4    1    6    6    0  503  0.10967457407E+03  0.22733416453E+03  0.34530952277E+03  0.42772421147E+03  0.00000000000E+00 0.  1.
<mgrwt>
<rscale>  0 0.15486538E+04</rscale>
<asrwt>0</asrwt>
<pdfrwt beam="1">  1        1 0.51331673E+00 0.15486538E+04</pdfrwt>
<pdfrwt beam="2">  1       -2 0.27646270E-01 0.15486538E+04</pdfrwt>
<totfact> 0.34113727E+00</totfact>
</mgrwt>
</event>
<event>
12    5  0.5197392E-008  0.2653059E+04  0.7818608E-02  0.8350398E-01
         -2   -1    0    0    0  501 -0.00000000000E+00  0.00000000000E+00  0.95832207383E+03  0.95832207383E+03  0.00000000000E+00 0.  1.
          1   -1    0    0  501    0  0.00000000000E+00 -0.00000000000E+00 -0.18362097468E+04  0.18362097468E+04  0.00000000000E+00 0. -1.
        -24    2    1    2    0    0  0.29994120471E+03 -0.11077269253E+04 -0.14026017257E+03  0.11584898435E+04  0.73499212779E+02 0.  0.
        254    2    1    2    0    0 -0.29994120471E+03  0.11077269253E+04 -0.73762750040E+03  0.16360419771E+04  0.90305888747E+03 0.  0.
         23    2    4    4    0    0 -0.52241675255E+03  0.30265314259E+03 -0.21908308162E+03  0.64865417578E+03  0.90756019324E+02 0.  0.
         23    2    4    4    0    0  0.22247554785E+03  0.80507378269E+03 -0.51854441879E+03  0.98738780133E+03  0.91690735548E+02 0.  0.
          3    1    3    3  502    0  0.79257210841E+02 -0.24460221677E+03 -0.59716777311E+02  0.26396598912E+03  0.00000000000E+00 0. -1.
         -4    1    3    3    0  502  0.22068399386E+03 -0.86312470851E+03 -0.80543395264E+02  0.89452385441E+03  0.00000000000E+00 0.  1.
         13    1    5    5    0    0 -0.15668191343E+03  0.63140621615E+02 -0.96787562931E+02  0.19468896331E+03  0.00000000000E+00 0.  1.
        -13    1    5    5    0    0 -0.36573483912E+03  0.23951252097E+03 -0.12229551869E+03  0.45396521248E+03  0.00000000000E+00 0. -1.
          1    1    6    6  503    0  0.16504375425E+03  0.68952409042E+03 -0.46375437935E+03  0.84720188648E+03  0.00000000000E+00 0. -1.
         -1    1    6    6    0  503  0.57431793602E+02  0.11554969227E+03 -0.54790039437E+02  0.14018591485E+03  0.00000000000E+00 0.  1.
<mgrwt>
<rscale>  0 0.26530589E+04</rscale>
<asrwt>0</asrwt>
<pdfrwt beam="1">  1        1 0.28249380E+00 0.26530589E+04</pdfrwt>
<pdfrwt beam="2">  1       -2 0.14743417E+00 0.26530589E+04</pdfrwt>
<totfact> 0.93007080E-01</totfact>
</mgrwt>
</event>
<event>
12    5  0.5197392E-008  0.1981447E+04  0.7818608E-02  0.8615344E-01
         -2   -1    0    0    0  501 -0.00000000000E+00  0.00000000000E+00  0.31670512304E+03  0.31670512304E+03  0.00000000000E+00 0.  1.
          1   -1    0    0  501    0  0.00000000000E+00 -0.00000000000E+00 -0.30992025588E+04  0.30992025588E+04  0.00000000000E+00 0. -1.
        -24    2    1    2    0    0  0.75347181229E+02 -0.78146604953E+03 -0.10402186930E+04  0.13056013930E+04  0.78572791896E+02 0.  0.
        254    2    1    2    0    0 -0.75347181229E+02  0.78146604953E+03 -0.17422787427E+04  0.21103062888E+04  0.89526031479E+03 0.  0.
         23    2    4    4    0    0  0.10545758536E+03 -0.10003369309E+03 -0.31368960670E+02  0.17511147031E+03  0.92476879686E+02 0.  0.
         23    2    4    4    0    0 -0.18080476659E+03  0.88149974263E+03 -0.17109097820E+04  0.19351948185E+04  0.89635615766E+02 0.  0.
          1    1    3    3  502    0  0.21686476986E+02 -0.27306787786E+03 -0.30292775163E+03  0.40841350604E+03  0.00000000000E+00 0. -1.
         -2    1    3    3    0  502  0.53660704242E+02 -0.50839817167E+03 -0.73729094141E+03  0.89718788691E+03  0.00000000000E+00 0.  1.
         13    1    5    5    0    0  0.68329235482E+02 -0.10408261036E+03 -0.49010378971E+02  0.13380617119E+03  0.00000000000E+00 0. -1.
        -13    1    5    5    0    0  0.37128349879E+02  0.40489172688E+01  0.17641418301E+02  0.41305299121E+02  0.00000000000E+00 0.  1.
          1    1    6    6  503    0 -0.15833856514E+03  0.85367375765E+03 -0.16328352815E+04  0.18493190753E+04  0.00000000000E+00 0. -1.
         -1    1    6    6    0  503 -0.22466201452E+02  0.27825984982E+02 -0.78074500520E+02  0.85875743254E+02  0.00000000000E+00 0.  1.
<mgrwt>
<rscale>  0 0.19814473E+04</rscale>
<asrwt>0</asrwt>
<pdfrwt beam="1">  1        1 0.47680042E+00 0.19814473E+04</pdfrwt>
<pdfrwt beam="2">  1       -2 0.48723862E-01 0.19814473E+04</pdfrwt>
<totfact> 0.16494820E+00</totfact>
</mgrwt>
</event>
<event>
12    5  0.5197392E-008  0.1629263E+04  0.7818608E-02  0.8802770E-01
         -2   -1    0    0    0  501 -0.00000000000E+00  0.00000000000E+00  0.13899280427E+04  0.13899280427E+04  0.00000000000E+00 0.  1.
          1   -1    0    0  501    0  0.00000000000E+00 -0.00000000000E+00 -0.47745242058E+03  0.47745242058E+03  0.00000000000E+00 0. -1.
        -24    2    1    2    0    0  0.36625851782E+03 -0.37653004491E+03  0.89697827822E+02  0.53870093052E+03  0.78948183187E+02 0.  0.
        254    2    1    2    0    0 -0.36625851782E+03  0.37653004491E+03  0.82277779431E+03  0.13286795328E+04  0.90139105021E+03 0.  0.
         23    2    4    4    0    0 -0.65796039008E+02 -0.28380635827E+03  0.31312536681E+03  0.43730664379E+03  0.91183538047E+02 0.  0.
         23    2    4    4    0    0 -0.30046247882E+03  0.66033640318E+03  0.50965242749E+03  0.89137288898E+03  0.92076945120E+02 0.  0.
          3    1    3    3  502    0  0.35836514428E+03 -0.37029721435E+03  0.74779118959E+02  0.52070867116E+03  0.00000000000E+00 0. -1.
         -4    1    3    3    0  502  0.78933735420E+01 -0.62328305605E+01  0.14918708863E+02  0.17992259358E+02  0.00000000000E+00 0.  1.
         13    1    5    5    0    0 -0.49334432225E+02 -0.26478013063E+03  0.31192906020E+03  0.41211908762E+03  0.00000000000E+00 0. -1.
        -13    1    5    5    0    0 -0.16461606784E+02 -0.19026227645E+02  0.11963066121E+01  0.25187556170E+02  0.00000000000E+00 0.  1.
          1    1    6    6  503    0 -0.28158944055E+03  0.53852757727E+03  0.41347199265E+03  0.73502629423E+03  0.00000000000E+00 0. -1.
         -1    1    6    6    0  503 -0.18873038267E+02  0.12180882591E+03  0.96180434843E+02  0.15634659475E+03  0.00000000000E+00 0.  1.
<mgrwt>
<rscale>  0 0.16292630E+04</rscale>
<asrwt>0</asrwt>
<pdfrwt beam="1">  1        1 0.73454219E-01 0.16292630E+04</pdfrwt>
<pdfrwt beam="2">  1       -2 0.21383508E+00 0.16292630E+04</pdfrwt>
<totfact> 0.42751477E+00</totfact>
</mgrwt>
</event>
<event>
12    5  0.5197392E-008  0.2203309E+04  0.7818608E-02  0.8517052E-01
          1   -1    0    0  501    0  0.00000000000E+00  0.00000000000E+00  0.12414939695E+04  0.12414939695E+04  0.00000000000E+00 0. -1.
         -2   -1    0    0    0  501 -0.00000000000E+00 -0.00000000000E+00 -0.97756594459E+03  0.97756594459E+03  0.00000000000E+00 0.  1.
        -24    2    1    2    0    0 -0.37996624684E+03 -0.54386313661E+03  0.74940355971E+03  0.10040585329E+04  0.79789610871E+02 0.  0.
        254    2    1    2    0    0  0.37996624684E+03  0.54386313661E+03 -0.48547553479E+03  0.12150013812E+04  0.89463981658E+03 0.  0.
         23    2    4    4    0    0  0.39071147625E+03  0.77010772760E+03 -0.38160511396E+03  0.94857987107E+03  0.91977926792E+02 0.  0.
         23    2    4    4    0    0 -0.10745229405E+02 -0.22624459100E+03 -0.10387042083E+03  0.26642151016E+03  0.94282988066E+02 0.  0.
          1    1    3    3  502    0 -0.36795697129E+03 -0.52849673357E+03  0.70110599713E+03  0.95197203180E+03  0.00000000000E+00 0. -1.
         -2    1    3    3    0  502 -0.12009275555E+02 -0.15366403030E+02  0.48297562575E+02  0.52086501055E+02  0.00000000000E+00 0.  1.
         13    1    5    5    0    0  0.37448978740E+03  0.71377199493E+03 -0.33184634508E+03  0.87168518305E+03  0.00000000000E+00 0.  1.
        -13    1    5    5    0    0  0.16221688841E+02  0.56335732677E+02 -0.49758768877E+02  0.76894688017E+02  0.00000000000E+00 0. -1.
          2    1    6    6  503    0  0.50814635071E+01 -0.51502704203E+02  0.15716167744E+02  0.54086483896E+02  0.00000000000E+00 0. -1.
         -2    1    6    6    0  503 -0.15826692912E+02 -0.17474188679E+03 -0.11958658858E+03  0.21233502626E+03  0.00000000000E+00 0.  1.
<mgrwt>
<rscale>  0 0.22033086E+04</rscale>
<asrwt>0</asrwt>
<pdfrwt beam="1">  1        1 0.19099907E+00 0.22033086E+04</pdfrwt>
<pdfrwt beam="2">  1       -2 0.15039476E+00 0.22033086E+04</pdfrwt>
<totfact> 0.23716183E+00</totfact>
</mgrwt>
</event>
<event>
12    5  0.5197392E-008  0.2486765E+04  0.7818608E-02  0.8407716E-01
         -2   -1    0    0    0  501 -0.00000000000E+00  0.00000000000E+00  0.17552839147E+04  0.17552839147E+04  0.00000000000E+00 0.  1.
          1   -1    0    0  501    0  0.00000000000E+00 -0.00000000000E+00 -0.88076945415E+03  0.88076945415E+03  0.00000000000E+00 0. -1.
        -24    2    1    2    0    0  0.36862845053E+03  0.74204354010E+03  0.11141640677E+04  0.13907152123E+04  0.78814224014E+02 0.  0.
        254    2    1    2    0    0 -0.36862845053E+03 -0.74204354010E+03 -0.23964960718E+03  0.12453381566E+04  0.89828705882E+03 0.  0.
         23    2    4    4    0    0 -0.25363682431E+03 -0.16166578435E+03 -0.50125609978E+03  0.59214454076E+03  0.94392876397E+02 0.  0.
         23    2    4    4    0    0 -0.11499162622E+03 -0.58037775575E+03  0.26160649260E+03  0.65319361581E+03  0.90346717099E+02 0.  0.
          1    1    3    3  502    0  0.81441041515E+02  0.11794863437E+03  0.15787200735E+03  0.21323248885E+03  0.00000000000E+00 0. -1.
         -2    1    3    3    0  502  0.28718740901E+03  0.62409490573E+03  0.95629206037E+03  0.11774827234E+04  0.00000000000E+00 0.  1.
         13    1    5    5    0    0 -0.10103996271E+03 -0.10441076813E+03 -0.29865836436E+03  0.33212573096E+03  0.00000000000E+00 0. -1.
        -13    1    5    5    0    0 -0.15259686160E+03 -0.57255016225E+02 -0.20259773541E+03  0.26001880980E+03  0.00000000000E+00 0.  1.
          4    1    6    6  503    0 -0.69498878386E+02 -0.33665031879E+03  0.20007548526E+03  0.39773575530E+03  0.00000000000E+00 0. -1.
         -4    1    6    6    0  503 -0.45492747831E+02 -0.24372743696E+03  0.61531007337E+02  0.25545786051E+03  0.00000000000E+00 0.  1.
<mgrwt>
<rscale>  0 0.24867653E+04</rscale>
<asrwt>0</asrwt>
<pdfrwt beam="1">  1        1 0.13550299E+00 0.24867653E+04</pdfrwt>
<pdfrwt beam="2">  1       -2 0.27004368E+00 0.24867653E+04</pdfrwt>
<totfact> 0.71299363E-01</totfact>
</mgrwt>
</event>
<event>
12    5  0.5197392E-008  0.2731594E+04  0.7818608E-02  0.8324826E-01
         -2   -1    0    0    0  501 -0.00000000000E+00  0.00000000000E+00  0.85998939995E+03  0.85998939995E+03  0.00000000000E+00 0.  1.
          1   -1    0    0  501    0  0.00000000000E+00 -0.00000000000E+00 -0.21690986585E+04  0.21690986585E+04  0.00000000000E+00 0. -1.
        -24    2    1    2    0    0 -0.46417770050E+02  0.32058609164E+03  0.71444342261E+03  0.78866742419E+03  0.81466866502E+02 0.  0.
        254    2    1    2    0    0  0.46417770050E+02 -0.32058609164E+03 -0.20235526812E+04  0.22404206343E+04  0.90542206369E+03 0.  0.
         23    2    4    4    0    0  0.13332924354E+03 -0.42593685088E+03 -0.39309635768E+03  0.60179039011E+03  0.91804352205E+02 0.  0.
         23    2    4    4    0    0 -0.86911473490E+02  0.10535075924E+03 -0.16304563235E+04  0.16386302442E+04  0.89826875372E+02 0.  0.
          3    1    3    3  502    0 -0.13477693525E+02  0.15709293568E+02  0.16993541874E+02  0.26780787752E+02  0.00000000000E+00 0. -1.
         -4    1    3    3    0  502 -0.32940076525E+02  0.30487679807E+03  0.69744988074E+03  0.76188663644E+03  0.00000000000E+00 0.  1.
         13    1    5    5    0    0  0.49751166389E+02 -0.82590593945E+02 -0.47379042557E+02  0.10742978376E+03  0.00000000000E+00 0.  1.
        -13    1    5    5    0    0  0.83578077151E+02 -0.34334625693E+03 -0.34571731512E+03  0.49436060635E+03  0.00000000000E+00 0. -1.
          1    1    6    6  503    0 -0.65084868317E+02  0.12019804686E+03 -0.14052212774E+04  0.14118535509E+04  0.00000000000E+00 0. -1.
         -1    1    6    6    0  503 -0.21826605173E+02 -0.14847287619E+02 -0.22523504606E+03  0.22677669328E+03  0.00000000000E+00 0.  1.
<mgrwt>
<rscale>  0 0.27315943E+04</rscale>
<asrwt>0</asrwt>
<pdfrwt beam="1">  1        1 0.33370748E+00 0.27315943E+04</pdfrwt>
<pdfrwt beam="2">  1       -2 0.13230606E+00 0.27315943E+04</pdfrwt>
<totfact> 0.72706626E-01</totfact>
</mgrwt>
</event>
<event>
12    5  0.5197392E-008  0.1786022E+04  0.7818608E-02  0.8713769E-01
         -2   -1    0    0    0  501 -0.00000000000E+00  0.00000000000E+00  0.79936242088E+03  0.79936242088E+03  0.00000000000E+00 0.  1.
          1   -1    0    0  501    0  0.00000000000E+00 -0.00000000000E+00 -0.99763045607E+03  0.99763045607E+03  0.00000000000E+00 0. -1.
        -24    2    1    2    0    0 -0.37000094554E+03 -0.53500703344E+03  0.70964193254E+02  0.65916868871E+03  0.79587800118E+02 0.  0.
        254    2    1    2    0    0  0.37000094554E+03  0.53500703344E+03 -0.26923222844E+03  0.11378241882E+04  0.89388179586E+03 0.  0.
         23    2    4    4    0    0 -0.11051199858E+03  0.42107284708E+02 -0.40385848440E+03  0.43043705079E+03  0.90490076893E+02 0.  0.
         23    2    4    4    0    0  0.48051294412E+03  0.49289974873E+03  0.13462625596E+03  0.70738713744E+03  0.91812208644E+02 0.  0.
          3    1    3    3  502    0 -0.14203841604E+03 -0.27517186984E+03  0.31831076479E+02  0.31129999520E+03  0.00000000000E+00 0. -1.
         -4    1    3    3    0  502 -0.22796252950E+03 -0.25983516361E+03  0.39133116775E+02  0.34786869352E+03  0.00000000000E+00 0.  1.
         13    1    5    5    0    0 -0.98230959931E+02  0.68443997335E+02 -0.33181977230E+03  0.35275808077E+03  0.00000000000E+00 0. -1.
        -13    1    5    5    0    0 -0.12281038651E+02 -0.26336712627E+02 -0.72038712102E+02  0.77678970022E+02  0.00000000000E+00 0.  1.
          3    1    6    6  503    0  0.98904816527E+02  0.53750114194E+02  0.17330546431E+02  0.11389286785E+03  0.00000000000E+00 0. -1.
         -3    1    6    6    0  503  0.38160812759E+03  0.43914963454E+03  0.11729570953E+03  0.59349426959E+03  0.00000000000E+00 0.  1.
<mgrwt>
<rscale>  0 0.17860216E+04</rscale>
<asrwt>0</asrwt>
<pdfrwt beam="1">  1        1 0.15348161E+00 0.17860216E+04</pdfrwt>
<pdfrwt beam="2">  1       -2 0.12297883E+00 0.17860216E+04</pdfrwt>
<totfact> 0.62856555E+00</totfact>
</mgrwt>
</event>
<event>
12    5  0.5197392E-008  0.2116644E+04  0.7818608E-02  0.8553947E-01
          1   -1    0    0  501    0  0.00000000000E+00  0.00000000000E+00  0.18495802478E+04  0.18495802478E+04  0.00000000000E+00 0. -1.
         -2   -1    0    0    0  501 -0.00000000000E+00 -0.00000000000E+00 -0.60556739593E+03  0.60556739593E+03  0.00000000000E+00 0.  1.
        -24    2    1    2    0    0 -0.71305733265E+03  0.37246427229E+03  0.15032721592E+03  0.82220279221E+03  0.78985858848E+02 0.  0.
        254    2    1    2    0    0  0.71305733265E+03 -0.37246427229E+03  0.10936856359E+04  0.16329448515E+04  0.90729279948E+03 0.  0.
         23    2    4    4    0    0 -0.42848537135E+02  0.11545508211E+03  0.56411573177E+03  0.58496592202E+03  0.93769387146E+02 0.  0.
         23    2    4    4    0    0  0.75590586978E+03 -0.48791935440E+03  0.52956990412E+03  0.10479789295E+04  0.91414292364E+02 0.  0.
          3    1    3    3  502    0 -0.11003428990E+03  0.88435571189E+02  0.14208041026E+02  0.14188116025E+03  0.00000000000E+00 0. -1.
         -4    1    3    3    0  502 -0.60302304275E+03  0.28402870110E+03  0.13611917490E+03  0.68032163196E+03  0.00000000000E+00 0.  1.
         13    1    5    5    0    0 -0.30219344001E+02  0.12371786512E+03  0.54910327691E+03  0.56367874505E+03  0.00000000000E+00 0.  1.
        -13    1    5    5    0    0 -0.12629193134E+02 -0.82627830117E+01  0.15012454860E+02  0.21287176967E+02  0.00000000000E+00 0. -1.
          2    1    6    6  503    0  0.14836185003E+03 -0.57925053215E+02  0.77382060726E+02  0.17707211428E+03  0.00000000000E+00 0. -1.
         -2    1    6    6    0  503  0.60754401975E+03 -0.42999430118E+03  0.45218784340E+03  0.87090681517E+03  0.00000000000E+00 0.  1.
<mgrwt>
<rscale>  0 0.21166440E+04</rscale>
<asrwt>0</asrwt>
<pdfrwt beam="1">  1        1 0.28455081E+00 0.21166440E+04</pdfrwt>
<pdfrwt beam="2">  1       -2 0.93164215E-01 0.21166440E+04</pdfrwt>
<totfact> 0.29656418E+00</totfact>
</mgrwt>
</event>
<event>
12    5  0.5197392E-008  0.2730973E+04  0.7818608E-02  0.8325025E-01
         -2   -1    0    0    0  501 -0.00000000000E+00  0.00000000000E+00  0.19422944224E+04  0.19422944224E+04  0.00000000000E+00 0.  1.
          1   -1    0    0  501    0  0.00000000000E+00 -0.00000000000E+00 -0.95997441521E+03  0.95997441521E+03  0.00000000000E+00 0. -1.
        -24    2    1    2    0    0  0.14711618300E+03 -0.21480757099E+03 -0.81898541878E+03  0.86309270167E+03  0.80040187659E+02 0.  0.
        254    2    1    2    0    0 -0.14711618300E+03  0.21480757099E+03  0.18013054260E+04  0.20391761360E+04  0.91964809137E+03 0.  0.
         23    2    4    4    0    0 -0.20625374681E+03  0.47325633180E+02  0.18245963377E+04  0.18391045022E+04  0.91505469209E+02 0.  0.
         23    2    4    4    0    0  0.59137563804E+02  0.16748193781E+03 -0.23290911746E+02  0.20007163372E+03  0.89099613384E+02 0.  0.
          1    1    3    3  502    0  0.11301646920E+03 -0.20804533762E+03 -0.73516829992E+03  0.77235226033E+03  0.00000000000E+00 0. -1.
         -2    1    3    3    0  502  0.34099713802E+02 -0.67622333673E+01 -0.83817118854E+02  0.90740441339E+02  0.00000000000E+00 0.  1.
         13    1    5    5    0    0 -0.45503902705E+02  0.45154328409E+02  0.35506165863E+03  0.36080230039E+03  0.00000000000E+00 0. -1.
        -13    1    5    5    0    0 -0.16074984410E+03  0.21713047716E+01  0.14695346791E+04  0.14783022019E+04  0.00000000000E+00 0.  1.
          4    1    6    6  503    0 -0.58588635247E+01  0.62390262485E+02  0.24912827122E+02  0.67435302995E+02  0.00000000000E+00 0. -1.
         -4    1    6    6    0  503  0.64996427329E+02  0.10509167532E+03 -0.48203738868E+02  0.13263633073E+03  0.00000000000E+00 0.  1.
<mgrwt>
<rscale>  0 0.27309727E+04</rscale>
<asrwt>0</asrwt>
<pdfrwt beam="1">  1        1 0.14768837E+00 0.27309727E+04</pdfrwt>
<pdfrwt beam="2">  1       -2 0.29881453E+00 0.27309727E+04</pdfrwt>
<totfact> 0.40179083E-01</totfact>
</mgrwt>
</event>
<event>
12    5  0.5197392E-008  0.1581081E+04  0.7818608E-02  0.8832256E-01
          1   -1    0    0  501    0  0.00000000000E+00  0.00000000000E+00  0.84342852645E+03  0.84342852645E+03  0.00000000000E+00 0. -1.
         -2   -1    0    0    0  501 -0.00000000000E+00 -0.00000000000E+00 -0.74096889335E+03  0.74096889335E+03  0.00000000000E+00 0.  1.
        -24    2    1    2    0    0 -0.27529302550E+03  0.34720004058E+03  0.33525130541E+03  0.56122409435E+03  0.79024858333E+02 0.  0.
        254    2    1    2    0    0  0.27529302550E+03 -0.34720004058E+03 -0.23279167231E+03  0.10231733255E+04  0.89238868951E+03 0.  0.
         23    2    4    4    0    0  0.48724629971E+03 -0.43887856404E+03 -0.35066488671E+03  0.74840350544E+03  0.84371758411E+02 0.  0.
         23    2    4    4    0    0 -0.21195327422E+03  0.91678523463E+02  0.11787321440E+03  0.27476982002E+03  0.90968220843E+02 0.  0.
          1    1    3    3  502    0 -0.16822981786E+03  0.22582035574E+03  0.25786242188E+03  0.38182343210E+03  0.00000000000E+00 0. -1.
         -2    1    3    3    0  502 -0.10706320763E+03  0.12137968484E+03  0.77388883528E+02  0.17940066225E+03  0.00000000000E+00 0.  1.
         13    1    5    5    0    0  0.34579855318E+03 -0.27625986211E+03 -0.20162343537E+03  0.48636217008E+03  0.00000000000E+00 0.  1.
        -13    1    5    5    0    0  0.14144774653E+03 -0.16261870193E+03 -0.14904145134E+03  0.26204133536E+03  0.00000000000E+00 0. -1.
          1    1    6    6  503    0 -0.35015708650E+02 -0.50785247424E+01  0.51460429320E+02  0.62450516824E+02  0.00000000000E+00 0. -1.
         -1    1    6    6    0  503 -0.17693756557E+03  0.96757048206E+02  0.66412785081E+02  0.21231930319E+03  0.00000000000E+00 0.  1.
<mgrwt>
<rscale>  0 0.15810810E+04</rscale>
<asrwt>0</asrwt>
<pdfrwt beam="1">  1        1 0.12975823E+00 0.15810810E+04</pdfrwt>
<pdfrwt beam="2">  1       -2 0.11399521E+00 0.15810810E+04</pdfrwt>
<totfact> 0.10289156E+01</totfact>
</mgrwt>
</event>
<event>
12    5  0.5197392E-008  0.2551995E+04  0.7818608E-02  0.8384693E-01
          1   -1    0    0  501    0  0.00000000000E+00  0.00000000000E+00  0.26842087121E+04  0.26842087121E+04  0.00000000000E+00 0. -1.
         -2   -1    0    0    0  501 -0.00000000000E+00 -0.00000000000E+00 -0.60657363936E+03  0.60657363936E+03  0.00000000000E+00 0.  1.
        -24    2    1    2    0    0 -0.76174837456E+03  0.64566331080E+02  0.19489160436E+04  0.20950238435E+04  0.80135899082E+02 0.  0.
        254    2    1    2    0    0  0.76174837456E+03 -0.64566331080E+02  0.12871902910E+03  0.11957585080E+04  0.91040673532E+03 0.  0.
         23    2    4    4    0    0  0.40101773860E+03 -0.47623647724E+03  0.16838693582E+02  0.62973800210E+03  0.93112838893E+02 0.  0.
         23    2    4    4    0    0  0.36073063596E+03  0.41167014616E+03  0.11188033552E+03  0.56602050589E+03  0.90901609727E+02 0.  0.
          3    1    3    3  502    0 -0.55663992623E+03  0.81716956344E+02  0.14035286520E+04  0.15120907200E+04  0.00000000000E+00 0. -1.
         -4    1    3    3    0  502 -0.20510844833E+03 -0.17150625264E+02  0.54538739165E+03  0.58293312351E+03  0.00000000000E+00 0.  1.
         13    1    5    5    0    0  0.40359714919E+03 -0.46433829930E+03  0.90604710962E+01  0.61529083137E+03  0.00000000000E+00 0. -1.
        -13    1    5    5    0    0 -0.25794105863E+01 -0.11898177939E+02  0.77782224857E+01  0.14447170736E+02  0.00000000000E+00 0.  1.
          1    1    6    6  503    0  0.27961687308E+03  0.26487272980E+03  0.99776882791E+02  0.39786754712E+03  0.00000000000E+00 0. -1.
         -1    1    6    6    0  503  0.81113762874E+02  0.14679741635E+03  0.12103452728E+02  0.16815295877E+03  0.00000000000E+00 0.  1.
<mgrwt>
<rscale>  0 0.25519955E+04</rscale>
<asrwt>0</asrwt>
<pdfrwt beam="1">  1        1 0.41295518E+00 0.25519955E+04</pdfrwt>
<pdfrwt beam="2">  1       -2 0.93319023E-01 0.25519955E+04</pdfrwt>
<totfact> 0.76064245E-01</totfact>
</mgrwt>
</event>
<event>
12    5  0.6178125E-008  0.2266020E+04  0.7818608E-02  0.8491441E-01
         -2   -1    0    0    0  501 -0.00000000000E+00  0.00000000000E+00  0.52952564945E+03  0.52952564945E+03  0.00000000000E+00 0.  1.
          1   -1    0    0  501    0  0.00000000000E+00 -0.00000000000E+00 -0.24242682369E+04  0.24242682369E+04  0.00000000000E+00 0. -1.
        -24    2    1    2    0    0 -0.41781085100E+03 -0.31751709842E+03 -0.18332899484E+04  0.19084535202E+04  0.76549260050E+02 0.  0.
        254    2    1    2    0    0  0.41781085100E+03  0.31751709842E+03 -0.61452639093E+02  0.10453403661E+04  0.90198505483E+03 0.  0.
         23    2    4    4    0    0 -0.89299353995E+02  0.57185510592E+02  0.32239177540E+03  0.35210535161E+03  0.93793200938E+02 0.  0.
         23    2    4    4    0    0  0.50711020499E+03  0.26033158783E+03 -0.38384441449E+03  0.69323501448E+03  0.91131526586E+02 0.  0.
          3    1    3    3  502    0 -0.39614563936E+03 -0.29953910382E+03 -0.17823631138E+04  0.18502630385E+04  0.00000000000E+00 0. -1.
         -4    1    3    3    0  502 -0.21665211638E+02 -0.17977994604E+02 -0.50926834532E+02  0.58190481702E+02  0.00000000000E+00 0.  1.
         13    1    5    5    0    0 -0.80346061774E+02 -0.82814598378E+00  0.15274087895E+03  0.17258607004E+03  0.00000000000E+00 0.  1.
        -13    1    5    5    0    0 -0.89532922216E+01  0.58013656576E+02  0.16965089645E+03  0.17951928157E+03  0.00000000000E+00 0. -1.
          1    1    6    6  503    0  0.44398805608E+03  0.25016577201E+03 -0.31418429400E+03  0.59868195065E+03  0.00000000000E+00 0. -1.
         -1    1    6    6    0  503  0.63122148909E+02  0.10165815819E+02 -0.69660120494E+02  0.94553063840E+02  0.00000000000E+00 0.  1.
<mgrwt>
<rscale>  0 0.22660205E+04</rscale>
<asrwt>0</asrwt>
<pdfrwt beam="1">  1        1 0.37296435E+00 0.22660205E+04</pdfrwt>
<pdfrwt beam="2">  1       -2 0.81465484E-01 0.22660205E+04</pdfrwt>
<totfact> 0.16156757E+00</totfact>
</mgrwt>
</event>
<event>
12    5  0.5197392E-008  0.1253366E+04  0.7818608E-02  0.9067387E-01
          1   -1    0    0  501    0  0.00000000000E+00  0.00000000000E+00  0.11184592477E+04  0.11184592477E+04  0.00000000000E+00 0. -1.
         -2   -1    0    0    0  501 -0.00000000000E+00 -0.00000000000E+00 -0.35113605941E+03  0.35113605941E+03  0.00000000000E+00 0.  1.
        -24    2    1    2    0    0  0.19614058253E+02  0.25067665502E+03 -0.17195103090E+00  0.26407285706E+03  0.80690443167E+02 0.  0.
        254    2    1    2    0    0 -0.19614058253E+02 -0.25067665502E+03  0.76749513932E+03  0.12055224501E+04  0.89499278883E+03 0.  0.
         23    2    4    4    0    0 -0.83216771058E+02 -0.56825534404E+03  0.39800648264E+03  0.70488666984E+03  0.92827205512E+02 0.  0.
         23    2    4    4    0    0  0.63602712805E+02  0.31757868902E+03  0.36948865668E+03  0.50063578021E+03  0.95983270499E+02 0.  0.
          3    1    3    3  502    0  0.15561809764E+02  0.10489837977E+03  0.39129728010E+02  0.11303528483E+03  0.00000000000E+00 0. -1.
         -4    1    3    3    0  502  0.40522484882E+01  0.14577827525E+03 -0.39301679041E+02  0.15103757224E+03  0.00000000000E+00 0.  1.
         13    1    5    5    0    0 -0.37482417167E+02 -0.30747429578E+03  0.15886765347E+03  0.34811536232E+03  0.00000000000E+00 0. -1.
        -13    1    5    5    0    0 -0.45734353891E+02 -0.26078104826E+03  0.23913882917E+03  0.35677130753E+03  0.00000000000E+00 0.  1.
          4    1    6    6  503    0  0.17004150872E+02  0.26683545679E+03  0.27349262002E+03  0.38247681675E+03  0.00000000000E+00 0. -1.
         -4    1    6    6    0  503  0.46598561933E+02  0.50743232235E+02  0.95996036661E+02  0.11815896346E+03  0.00000000000E+00 0.  1.
<mgrwt>
<rscale>  0 0.12533657E+04</rscale>
<asrwt>0</asrwt>
<pdfrwt beam="1">  1        1 0.17207065E+00 0.12533657E+04</pdfrwt>
<pdfrwt beam="2">  1       -2 0.54020933E-01 0.12533657E+04</pdfrwt>
<totfact> 0.34260136E+01</totfact>
</mgrwt>
</event>
<event>
12    5  0.5197392E-008  0.1674185E+04  0.7818608E-02  0.8776226E-01
         -2   -1    0    0    0  501 -0.00000000000E+00  0.00000000000E+00  0.40015365469E+03  0.40015365469E+03  0.00000000000E+00 0.  1.
          1   -1    0    0  501    0  0.00000000000E+00 -0.00000000000E+00 -0.17511378425E+04  0.17511378425E+04  0.00000000000E+00 0. -1.
        -24    2    1    2    0    0  0.51796184647E+03 -0.22751518420E+02 -0.84621984332E+03  0.99565864931E+03  0.80287089514E+02 0.  0.
        254    2    1    2    0    0 -0.51796184647E+03  0.22751518420E+02 -0.50476434445E+03  0.11556328478E+04  0.90105389938E+03 0.  0.
         23    2    4    4    0    0 -0.73155855029E+03 -0.40375864283E+02 -0.19404209966E+03  0.76350182762E+03  0.92057489708E+02 0.  0.
         23    2    4    4    0    0  0.21359670382E+03  0.63127382703E+02 -0.31072224479E+03  0.39213102022E+03  0.87234197906E+02 0.  0.
          3    1    3    3  502    0  0.16661551186E+03 -0.27631783033E+02 -0.33727615913E+03  0.37719948534E+03  0.00000000000E+00 0. -1.
         -4    1    3    3    0  502  0.35134633461E+03  0.48802646129E+01 -0.50894368419E+03  0.61845916397E+03  0.00000000000E+00 0.  1.
         13    1    5    5    0    0 -0.26654007991E+03 -0.55066620129E+02 -0.90982662172E+02  0.28697350343E+03  0.00000000000E+00 0.  1.
        -13    1    5    5    0    0 -0.46501847038E+03  0.14690755846E+02 -0.10305943749E+03  0.47652832419E+03  0.00000000000E+00 0. -1.
          1    1    6    6  503    0  0.11248812834E+03  0.54290279152E+02 -0.23273893498E+03  0.26413713348E+03  0.00000000000E+00 0. -1.
         -1    1    6    6    0  503  0.10110857548E+03  0.88371035516E+01 -0.77983309810E+02  0.12799388674E+03  0.00000000000E+00 0.  1.
<mgrwt>
<rscale>  0 0.16741854E+04</rscale>
<asrwt>0</asrwt>
<pdfrwt beam="1">  1        1 0.26940582E+00 0.16741854E+04</pdfrwt>
<pdfrwt beam="2">  1       -2 0.61562100E-01 0.16741854E+04</pdfrwt>
<totfact> 0.90297728E+00</totfact>
</mgrwt>
</event>
<event>
12    5  0.5197392E-008  0.2592390E+04  0.7818608E-02  0.8370791E-01
         -2   -1    0    0    0  501 -0.00000000000E+00  0.00000000000E+00  0.18752006197E+04  0.18752006197E+04  0.00000000000E+00 0.  1.
          1   -1    0    0  501    0  0.00000000000E+00 -0.00000000000E+00 -0.89596900068E+03  0.89596900068E+03  0.00000000000E+00 0. -1.
        -24    2    1    2    0    0  0.95729796334E+03  0.20410708662E+03 -0.19185973221E+03  0.10004785884E+04  0.77898367461E+02 0.  0.
        254    2    1    2    0    0 -0.95729796334E+03 -0.20410708662E+03  0.11710913513E+04  0.17706910320E+04  0.89767069927E+03 0.  0.
         23    2    4    4    0    0 -0.62574151560E+03 -0.52764069730E+03  0.91846411609E+03  0.12336483663E+04  0.91404645533E+02 0.  0.
         23    2    4    4    0    0 -0.33155644774E+03  0.32353361068E+03  0.25262723519E+03  0.53704266574E+03  0.99953136993E+02 0.  0.
          3    1    3    3  502    0  0.19730417754E+03  0.41337353029E+02 -0.77260655319E+01  0.20173598420E+03  0.00000000000E+00 0. -1.
         -4    1    3    3    0  502  0.75999378579E+03  0.16276973359E+03 -0.18413366668E+03  0.79874260424E+03  0.00000000000E+00 0.  1.
         13    1    5    5    0    0 -0.51847557871E+03 -0.44183475612E+03  0.70948798952E+03  0.98356905437E+03  0.00000000000E+00 0.  1.
        -13    1    5    5    0    0 -0.10726593689E+03 -0.85805941180E+02  0.20897612656E+03  0.25007931188E+03  0.00000000000E+00 0. -1.
          4    1    6    6  503    0 -0.32549177549E+03  0.31460894084E+03  0.22124685413E+03  0.50385896046E+03  0.00000000000E+00 0.  1.
         -4    1    6    6    0  503 -0.60646722462E+01  0.89246698354E+01  0.31380381058E+02  0.33183705286E+02  0.00000000000E+00 0. -1.
<mgrwt>
<rscale>  0 0.25923901E+04</rscale>
<asrwt>0</asrwt>
<pdfrwt beam="1">  1        1 0.13784139E+00 0.25923901E+04</pdfrwt>
<pdfrwt beam="2">  1       -2 0.28849240E+00 0.25923901E+04</pdfrwt>
<totfact> 0.52970647E-01</totfact>
</mgrwt>
</event>
<event>
12    5  0.5197392E-008  0.1750564E+04  0.7818608E-02  0.8733040E-01
         -4   -1    0    0    0  501 -0.00000000000E+00  0.00000000000E+00  0.40223675747E+03  0.40223675747E+03  0.00000000000E+00 0.  1.
          1   -1    0    0  501    0  0.00000000000E+00 -0.00000000000E+00 -0.19046454200E+04  0.19046454200E+04  0.00000000000E+00 0. -1.
        -24    2    1    2    0    0 -0.48740416351E+02 -0.56264684155E+03 -0.94918070063E+03  0.11074402197E+04  0.80825374674E+02 0.  0.
        254    2    1    2    0    0  0.48740416351E+02  0.56264684155E+03 -0.55322796191E+03  0.11994419578E+04  0.90202701503E+03 0.  0.
         23    2    4    4    0    0 -0.40213160213E+03  0.12867414056E+03 -0.23666795915E+03  0.49244400465E+03  0.90678084148E+02 0.  0.
         23    2    4    4    0    0  0.45087201848E+03  0.43397270099E+03 -0.31656000276E+03  0.70699795317E+03  0.89543219678E+02 0.  0.
          1    1    3    3  502    0 -0.21890035554E+02 -0.41783547243E+03 -0.63503111224E+03  0.76048022275E+03  0.00000000000E+00 0. -1.
         -2    1    3    3    0  502 -0.26850380796E+02 -0.14481136912E+03 -0.31414958839E+03  0.34695999692E+03  0.00000000000E+00 0.  1.
         13    1    5    5    0    0 -0.21632900696E+03  0.11487160555E+03 -0.12159112730E+03  0.27345589635E+03  0.00000000000E+00 0. -1.
        -13    1    5    5    0    0 -0.18580259517E+03  0.13802535012E+02 -0.11507683185E+03  0.21898810829E+03  0.00000000000E+00 0.  1.
          1    1    6    6  503    0  0.40138453092E+03  0.34041141569E+03 -0.26111815415E+03  0.58751354370E+03  0.00000000000E+00 0. -1.
         -1    1    6    6    0  503  0.49487487559E+02  0.93561285296E+02 -0.55441848609E+02  0.11948440948E+03  0.00000000000E+00 0.  1.
<mgrwt>
<rscale>  0 0.17505638E+04</rscale>
<asrwt>0</asrwt>
<pdfrwt beam="1">  1        1 0.29302237E+00 0.17505638E+04</pdfrwt>
<pdfrwt beam="2">  1       -4 0.61882578E-01 0.17505638E+04</pdfrwt>
<totfact> 0.39633216E+00</totfact>
</mgrwt>
</event>
<event>
12    5  0.5197392E-008  0.2689898E+04  0.7818608E-02  0.8338290E-01
          1   -1    0    0  501    0  0.00000000000E+00  0.00000000000E+00  0.19459655938E+04  0.19459655938E+04  0.00000000000E+00 0. -1.
         -2   -1    0    0    0  501 -0.00000000000E+00 -0.00000000000E+00 -0.92955769449E+03  0.92955769449E+03  0.00000000000E+00 0.  1.
        -24    2    1    2    0    0 -0.61100238711E+03 -0.96394143649E+03  0.76284873960E+02  0.11464798074E+04  0.78035612625E+02 0.  0.
        254    2    1    2    0    0  0.61100238711E+03  0.96394143649E+03  0.94012302536E+03  0.17290434808E+04  0.89624385398E+03 0.  0.
         23    2    4    4    0    0  0.15980714750E+03 -0.15072746969E+03  0.98013013533E+02  0.25757154270E+03  0.92083952319E+02 0.  0.
         23    2    4    4    0    0  0.45119523962E+03  0.11146689062E+04  0.84211001182E+03  0.14714719381E+04  0.10008235638E+03 0.  0.
          3    1    3    3  502    0 -0.56801971924E+03 -0.88300111010E+03  0.90175273762E+02  0.10537879018E+04  0.00000000000E+00 0. -1.
         -4    1    3    3    0  502 -0.42982667873E+02 -0.80940326394E+02 -0.13890399802E+02  0.92691905693E+02  0.00000000000E+00 0.  1.
         13    1    5    5    0    0  0.15673236321E+02 -0.15018640749E+02 -0.17925748968E+02  0.28152129276E+02  0.00000000000E+00 0.  1.
        -13    1    5    5    0    0  0.14413391118E+03 -0.13570882895E+03  0.11593876250E+03  0.22941941342E+03  0.00000000000E+00 0. -1.
          1    1    6    6  503    0  0.30895110789E+03  0.82787986600E+03  0.57209649223E+03  0.10526776601E+04  0.00000000000E+00 0. -1.
         -1    1    6    6    0  503  0.14224413173E+03  0.28678904019E+03  0.27001351959E+03  0.41879427807E+03  0.00000000000E+00 0.  1.
<mgrwt>
<rscale>  0 0.26898976E+04</rscale>
<asrwt>0</asrwt>
<pdfrwt beam="1">  1        1 0.29937932E+00 0.26898976E+04</pdfrwt>
<pdfrwt beam="2">  1       -2 0.14300888E+00 0.26898976E+04</pdfrwt>
<totfact> 0.84620729E-01</totfact>
</mgrwt>
</event>
<event>
12    5  0.5197392E-008  0.1464711E+04  0.7818608E-02  0.8908265E-01
         -2   -1    0    0    0  501 -0.00000000000E+00  0.00000000000E+00  0.31342354763E+03  0.31342354763E+03  0.00000000000E+00 0.  1.
          1   -1    0    0  501    0  0.00000000000E+00 -0.00000000000E+00 -0.17112450506E+04  0.17112450506E+04  0.00000000000E+00 0. -1.
        -24    2    1    2    0    0  0.27100972530E+03 -0.14714291935E+03 -0.90226372226E+03  0.95673327897E+03  0.78494793835E+02 0.  0.
        254    2    1    2    0    0 -0.27100972530E+03  0.14714291935E+03 -0.49555778074E+03  0.10679353193E+04  0.89432154296E+03 0.  0.
         23    2    4    4    0    0 -0.44860428192E+03 -0.13354201857E+03 -0.54014031083E+03  0.72062659549E+03  0.92042719740E+02 0.  0.
         23    2    4    4    0    0  0.17759455662E+03  0.28068493792E+03  0.44582530093E+02  0.34730872379E+03  0.91169549288E+02 0.  0.
          1    1    3    3  502    0  0.24900490696E+03 -0.10925454625E+03 -0.81354186067E+03  0.85778223264E+03  0.00000000000E+00 0. -1.
         -2    1    3    3    0  502  0.22004818341E+02 -0.37888373097E+02 -0.88721861588E+02  0.98951046330E+02  0.00000000000E+00 0.  1.
         13    1    5    5    0    0 -0.33037947660E+03 -0.81209048110E+02 -0.33044796275E+03  0.47427983737E+03  0.00000000000E+00 0. -1.
        -13    1    5    5    0    0 -0.11822480533E+03 -0.52332970459E+02 -0.20969234807E+03  0.24634675811E+03  0.00000000000E+00 0.  1.
          4    1    6    6  503    0  0.82960559009E+02  0.17855018043E+03  0.63324562744E+02  0.20681542865E+03  0.00000000000E+00 0. -1.
         -4    1    6    6    0  503  0.94633997611E+02  0.10213475749E+03 -0.18742032651E+02  0.14049329514E+03  0.00000000000E+00 0.  1.
<mgrwt>
<rscale>  0 0.14647109E+04</rscale>
<asrwt>0</asrwt>
<pdfrwt beam="1">  1        1 0.26326847E+00 0.14647109E+04</pdfrwt>
<pdfrwt beam="2">  1       -2 0.48219008E-01 0.14647109E+04</pdfrwt>
<totfact> 0.16245686E+01</totfact>
</mgrwt>
</event>
<event>
12    5  0.5197392E-008  0.1893673E+04  0.7818608E-02  0.8658012E-01
         -2   -1    0    0    0  501 -0.00000000000E+00  0.00000000000E+00  0.11005051329E+04  0.11005051329E+04  0.00000000000E+00 0.  1.
          1   -1    0    0  501    0  0.00000000000E+00 -0.00000000000E+00 -0.81462561489E+03  0.81462561489E+03  0.00000000000E+00 0. -1.
        -24    2    1    2    0    0  0.84955475439E+01  0.33501936886E+02  0.86750073890E+03  0.87156236231E+03  0.76608519775E+02 0.  0.
        254    2    1    2    0    0 -0.84955475439E+01 -0.33501936886E+02 -0.58162122092E+03  0.10435683854E+04  0.86576970169E+03 0.  0.
         23    2    4    4    0    0  0.40892503565E+03 -0.16763492812E+02 -0.17539028141E+03  0.45399524685E+03  0.88595902116E+02 0.  0.
         23    2    4    4    0    0 -0.41742058320E+03 -0.16738444073E+02 -0.40623093951E+03  0.58957313860E+03  0.89737343128E+02 0.  0.
          1    1    3    3  502    0 -0.10117197248E+00 -0.24941726999E+02  0.26824676320E+03  0.26940383432E+03  0.00000000000E+00 0. -1.
         -2    1    3    3    0  502  0.85967195164E+01  0.58443663885E+02  0.59925397570E+03  0.60215852799E+03  0.00000000000E+00 0.  1.
         13    1    5    5    0    0  0.29474162341E+03  0.45539940314E+01 -0.84924177384E+02  0.30676616394E+03  0.00000000000E+00 0.  1.
        -13    1    5    5    0    0  0.11418341224E+03 -0.21317486844E+02 -0.90466104027E+02  0.14722908291E+03  0.00000000000E+00 0. -1.
          1    1    6    6  503    0  0.21313405879E+01 -0.53780718116E+01 -0.13877407473E+02  0.15034916271E+02  0.00000000000E+00 0. -1.
         -1    1    6    6    0  503 -0.41955192378E+03 -0.11360372262E+02 -0.39235353204E+03  0.57453822233E+03  0.00000000000E+00 0.  1.
<mgrwt>
<rscale>  0 0.18936733E+04</rscale>
<asrwt>0</asrwt>
<pdfrwt beam="1">  1        1 0.12532702E+00 0.18936733E+04</pdfrwt>
<pdfrwt beam="2">  1       -2 0.16930848E+00 0.18936733E+04</pdfrwt>
<totfact> 0.37945889E+00</totfact>
</mgrwt>
</event>
<event>
12    5  0.5197392E-008  0.1421056E+04  0.7818608E-02  0.8938717E-01
         -2   -1    0    0    0  501 -0.00000000000E+00  0.00000000000E+00  0.25910604199E+03  0.25910604199E+03  0.00000000000E+00 0.  1.
          1   -1    0    0  501    0  0.00000000000E+00 -0.00000000000E+00 -0.19484289201E+04  0.19484289201E+04  0.00000000000E+00 0. -1.
        -24    2    1    2    0    0 -0.23294371229E+02 -0.40918841056E+03 -0.69497243736E+03  0.81095470535E+03  0.81749999251E+02 0.  0.
        254    2    1    2    0    0  0.23294371229E+02  0.40918841056E+03 -0.99435044078E+03  0.13965802568E+04  0.89091292023E+03 0.  0.
         23    2    4    4    0    0  0.20907756751E+03 -0.13956951998E+03 -0.31844017032E+02  0.26947892317E+03  0.91715693690E+02 0.  0.
         23    2    4    4    0    0 -0.18578319628E+03  0.54875793054E+03 -0.96250642375E+03  0.11271013336E+04  0.91039211794E+02 0.  0.
          3    1    3    3  502    0  0.10104619145E+02 -0.34969615190E+02 -0.10865740132E+03  0.11459235653E+03  0.00000000000E+00 0. -1.
         -4    1    3    3    0  502 -0.33398990374E+02 -0.37421879537E+03 -0.58631503604E+03  0.69636234882E+03  0.00000000000E+00 0.  1.
         13    1    5    5    0    0  0.17220981291E+03 -0.94600362610E+02  0.11702312504E+02  0.19683087254E+03  0.00000000000E+00 0. -1.
        -13    1    5    5    0    0  0.36867754599E+02 -0.44969157369E+02 -0.43546329536E+02  0.72648050626E+02  0.00000000000E+00 0.  1.
          2    1    6    6  503    0 -0.99174869409E+02  0.32848149250E+03 -0.48441284780E+03  0.59362576827E+03  0.00000000000E+00 0. -1.
         -2    1    6    6    0  503 -0.86608326869E+02  0.22027643804E+03 -0.47809357595E+03  0.53347556533E+03  0.00000000000E+00 0.  1.
<mgrwt>
<rscale>  0 0.14210555E+04</rscale>
<asrwt>0</asrwt>
<pdfrwt beam="1">  1        1 0.29975828E+00 0.14210555E+04</pdfrwt>
<pdfrwt beam="2">  1       -2 0.39862470E-01 0.14210555E+04</pdfrwt>
<totfact> 0.16447056E+01</totfact>
</mgrwt>
</event>
<event>
12    5  0.5197392E-008  0.2212316E+04  0.7818608E-02  0.8513319E-01
         -2   -1    0    0    0  501 -0.00000000000E+00  0.00000000000E+00  0.34386554756E+03  0.34386554756E+03  0.00000000000E+00 0.  1.
          1   -1    0    0  501    0  0.00000000000E+00 -0.00000000000E+00 -0.35583263256E+04  0.35583263256E+04  0.00000000000E+00 0. -1.
        -24    2    1    2    0    0  0.61318039769E+03 -0.59021414264E+03 -0.19819488082E+04  0.21584354803E+04  0.79873088561E+02 0.  0.
        254    2    1    2    0    0 -0.61318039769E+03  0.59021414264E+03 -0.12325119699E+04  0.17437563928E+04  0.89289286444E+03 0.  0.
         23    2    4    4    0    0 -0.79619126561E+03  0.44876235448E+03 -0.11686399561E+04  0.14863508337E+04  0.90616067309E+02 0.  0.
         23    2    4    4    0    0  0.18301086792E+03  0.14145178816E+03 -0.63872013712E+02  0.25740555907E+03  0.93147203687E+02 0.  0.
          1    1    3    3  502    0  0.58820436347E+03 -0.56811148321E+03 -0.18564607508E+04  0.20285910257E+04  0.00000000000E+00 0. -1.
         -2    1    3    3    0  502  0.24976034220E+02 -0.22102659428E+02 -0.12548805738E+03  0.12984445458E+03  0.00000000000E+00 0.  1.
         13    1    5    5    0    0 -0.55385847727E+03  0.33816905225E+03 -0.88254078816E+03  0.10954431813E+04  0.00000000000E+00 0.  1.
        -13    1    5    5    0    0 -0.24233278833E+03  0.11059330223E+03 -0.28609916798E+03  0.39090765242E+03  0.00000000000E+00 0. -1.
          3    1    6    6  503    0  0.15499538739E+03  0.13523076565E+03 -0.84173936059E+02  0.22225251765E+03  0.00000000000E+00 0. -1.
         -3    1    6    6    0  503  0.28015480523E+02  0.62210225175E+01  0.20301922347E+02  0.35153041420E+02  0.00000000000E+00 0.  1.
<mgrwt>
<rscale>  0 0.22123163E+04</rscale>
<asrwt>0</asrwt>
<pdfrwt beam="1">  1        1 0.54743485E+00 0.22123163E+04</pdfrwt>
<pdfrwt beam="2">  1       -2 0.52902389E-01 0.22123163E+04</pdfrwt>
<totfact> 0.60770520E-01</totfact>
</mgrwt>
</event>
<event>
12    5  0.5197392E-008  0.1086558E+04  0.7818608E-02  0.9218393E-01
          3   -1    0    0  501    0  0.00000000000E+00  0.00000000000E+00  0.14049529284E+04  0.14049529284E+04  0.00000000000E+00 0. -1.
         -4   -1    0    0    0  501 -0.00000000000E+00 -0.00000000000E+00 -0.21007962497E+03  0.21007962497E+03  0.00000000000E+00 0.  1.
        -24    2    1    2    0    0  0.23640684797E+02  0.13860678834E+03  0.13548122929E+03  0.21400802054E+03  0.87598776323E+02 0.  0.
        254    2    1    2    0    0 -0.23640684797E+02 -0.13860678834E+03  0.10593920742E+04  0.14010245329E+04  0.90597320663E+03 0.  0.
         23    2    4    4    0    0 -0.13203999899E+03 -0.19581742003E+03  0.11794108674E+04  0.12063647663E+04  0.92341387143E+02 0.  0.
         23    2    4    4    0    0  0.10839931419E+03  0.57210631688E+02 -0.12001879324E+03  0.19465976661E+03  0.92002425574E+02 0.  0.
          1    1    3    3  502    0  0.50874836668E+02  0.97056808308E+02  0.11875227509E+03  0.16158705357E+03  0.00000000000E+00 0. -1.
         -2    1    3    3    0  502 -0.27234151871E+02  0.41549980031E+02  0.16728954208E+02  0.52420966965E+02  0.00000000000E+00 0.  1.
         13    1    5    5    0    0  0.12716499827E+02 -0.34866036487E+02  0.17443267093E+03  0.17833705884E+03  0.00000000000E+00 0.  1.
        -13    1    5    5    0    0 -0.14475649882E+03 -0.16095138354E+03  0.10049781965E+04  0.10280277074E+04  0.00000000000E+00 0. -1.
          3    1    6    6  503    0  0.82422151899E+02  0.19304858264E+01 -0.34044102497E+02  0.89197190617E+02  0.00000000000E+00 0. -1.
         -3    1    6    6    0  503  0.25977162294E+02  0.55280145861E+02 -0.85974690744E+02  0.10546257600E+03  0.00000000000E+00 0.  1.
<mgrwt>
<rscale>  0 0.10865578E+04</rscale>
<asrwt>0</asrwt>
<pdfrwt beam="1">  1        3 0.21614660E+00 0.10865578E+04</pdfrwt>
<pdfrwt beam="2">  1       -4 0.32319943E-01 0.10865578E+04</pdfrwt>
<totfact> 0.24863461E+00</totfact>
</mgrwt>
</event>
<event>
12    5  0.5197392E-008  0.1819714E+04  0.7818608E-02  0.8695885E-01
          1   -1    0    0  501    0  0.00000000000E+00  0.00000000000E+00  0.14684542038E+04  0.14684542038E+04  0.00000000000E+00 0. -1.
         -2   -1    0    0    0  501 -0.00000000000E+00 -0.00000000000E+00 -0.56374927732E+03  0.56374927732E+03  0.00000000000E+00 0.  1.
        -24    2    1    2    0    0  0.27459500330E+03 -0.55784789885E+03  0.20145587921E+02  0.62509097468E+03  0.61124363584E+02 0.  0.
        254    2    1    2    0    0 -0.27459500330E+03  0.55784789885E+03  0.88455933860E+03  0.14071125065E+04  0.90051301394E+03 0.  0.
         23    2    4    4    0    0 -0.50789697904E+03  0.37717322878E+03  0.22215652614E+03  0.67625178624E+03  0.87999832236E+02 0.  0.
         23    2    4    4    0    0  0.23330197573E+03  0.18067467008E+03  0.66240281247E+03  0.73086072023E+03  0.91141418260E+02 0.  0.
          1    1    3    3  502    0  0.58621324700E+02 -0.14583172036E+03  0.28952431363E+02  0.15981737595E+03  0.00000000000E+00 0. -1.
         -2    1    3    3    0  502  0.21597367860E+03 -0.41201617849E+03 -0.88068434420E+01  0.46527359874E+03  0.00000000000E+00 0.  1.
         13    1    5    5    0    0 -0.38042498841E+03  0.29175240462E+03  0.20652643238E+03  0.52201130705E+03  0.00000000000E+00 0. -1.
        -13    1    5    5    0    0 -0.12747199062E+03  0.85420824151E+02  0.15630093758E+02  0.15424047920E+03  0.00000000000E+00 0.  1.
          3    1    6    6  503    0  0.19943317386E+03  0.10398927186E+03  0.47468327799E+03  0.52527285662E+03  0.00000000000E+00 0. -1.
         -3    1    6    6    0  503  0.33868801875E+02  0.76685398214E+02  0.18771953447E+03  0.20558786361E+03  0.00000000000E+00 0.  1.
<mgrwt>
<rscale>  0 0.18197143E+04</rscale>
<asrwt>0</asrwt>
<pdfrwt beam="1">  1        1 0.22591603E+00 0.18197143E+04</pdfrwt>
<pdfrwt beam="2">  1       -2 0.86730659E-01 0.18197143E+04</pdfrwt>
<totfact> 0.65449896E+00</totfact>
</mgrwt>
</event>
<event>
12    5  0.5197392E-008  0.1325140E+04  0.7818608E-02  0.9009863E-01
         -2   -1    0    0    0  501 -0.00000000000E+00  0.00000000000E+00  0.75638464539E+03  0.75638464539E+03  0.00000000000E+00 0.  1.
          1   -1    0    0  501    0  0.00000000000E+00 -0.00000000000E+00 -0.58039157934E+03  0.58039157934E+03  0.00000000000E+00 0. -1.
        -24    2    1    2    0    0 -0.22189671739E+03 -0.16611327954E+03  0.27051883389E+03  0.39558276993E+03  0.80458147817E+02 0.  0.
        254    2    1    2    0    0  0.22189671739E+03  0.16611327954E+03 -0.94525767835E+02  0.94119345480E+03  0.89447091834E+03 0.  0.
         23    2    4    4    0    0  0.51981451779E+03  0.15586585720E+03  0.11881284682E+03  0.56314661409E+03  0.92283899209E+02 0.  0.
         23    2    4    4    0    0 -0.29791780039E+03  0.10247422341E+02 -0.21333861465E+03  0.37804684071E+03  0.92444706796E+02 0.  0.
          1    1    3    3  502    0 -0.25537230160E+02 -0.59179432686E+02  0.71322974019E+02  0.96131794949E+02  0.00000000000E+00 0. -1.
         -2    1    3    3    0  502 -0.19635948723E+03 -0.10693384686E+03  0.19919585987E+03  0.29945097498E+03  0.00000000000E+00 0.  1.
         13    1    5    5    0    0  0.89629058591E+02 -0.67934082241E+01  0.29834246413E+02  0.94707976423E+02  0.00000000000E+00 0. -1.
        -13    1    5    5    0    0  0.43018545920E+03  0.16265926542E+03  0.88978600402E+02  0.46843863767E+03  0.00000000000E+00 0.  1.
          1    1    6    6  503    0 -0.97656830532E+02  0.47133155154E+02 -0.76783328085E+02  0.13286862059E+03  0.00000000000E+00 0. -1.
         -1    1    6    6    0  503 -0.20026096986E+03 -0.36885732814E+02 -0.13655528657E+03  0.24517822013E+03  0.00000000000E+00 0.  1.
<mgrwt>
<rscale>  0 0.13251404E+04</rscale>
<asrwt>0</asrwt>
<pdfrwt beam="1">  1        1 0.89291012E-01 0.13251404E+04</pdfrwt>
<pdfrwt beam="2">  1       -2 0.11636687E+00 0.13251404E+04</pdfrwt>
<totfact> 0.17657267E+01</totfact>
</mgrwt>
</event>
<event>
12    5  0.5197392E-008  0.1503703E+04  0.7818608E-02  0.8881994E-01
         -2   -1    0    0    0  501 -0.00000000000E+00  0.00000000000E+00  0.26165699117E+03  0.26165699117E+03  0.00000000000E+00 0.  1.
          1   -1    0    0  501    0  0.00000000000E+00 -0.00000000000E+00 -0.21603873256E+04  0.21603873256E+04  0.00000000000E+00 0. -1.
        -24    2    1    2    0    0 -0.45492618762E+03  0.14318592936E+03 -0.51788924396E+03  0.70844316616E+03  0.78882216798E+02 0.  0.
        254    2    1    2    0    0  0.45492618762E+03 -0.14318592936E+03 -0.13808410904E+04  0.17136011506E+04  0.89568227608E+03 0.  0.
         23    2    4    4    0    0  0.41705528340E+03  0.32446337600E+03 -0.69688288145E+03  0.87916207923E+03  0.89825493701E+02 0.  0.
         23    2    4    4    0    0  0.37870904220E+02 -0.46764930536E+03 -0.68395820898E+03  0.83443907134E+03  0.91431143268E+02 0.  0.
          3    1    3    3  502    0 -0.34105998055E+03  0.94551252790E+02 -0.42831462291E+03  0.55562151321E+03  0.00000000000E+00 0. -1.
         -4    1    3    3    0  502 -0.11386620706E+03  0.48634676569E+02 -0.89574621047E+02  0.15282165295E+03  0.00000000000E+00 0.  1.
         13    1    5    5    0    0  0.22434003535E+03  0.21397086137E+03 -0.35346620753E+03  0.47015990986E+03  0.00000000000E+00 0.  1.
        -13    1    5    5    0    0  0.19271524805E+03  0.11049251463E+03 -0.34341667392E+03  0.40900216936E+03  0.00000000000E+00 0. -1.
          3    1    6    6  503    0 -0.20607341597E+02 -0.11607391994E+03 -0.21763121701E+03  0.24750992715E+03  0.00000000000E+00 0. -1.
         -3    1    6    6    0  503  0.58478245817E+02 -0.35157538542E+03 -0.46632699196E+03  0.58692914419E+03  0.00000000000E+00 0.  1.
<mgrwt>
<rscale>  0 0.15037027E+04</rscale>
<asrwt>0</asrwt>
<pdfrwt beam="1">  1        1 0.33236729E+00 0.15037027E+04</pdfrwt>
<pdfrwt beam="2">  1       -2 0.40254921E-01 0.15037027E+04</pdfrwt>
<totfact> 0.11510010E+01</totfact>
</mgrwt>
</event>
<event>
12    5  0.5197392E-008  0.2109943E+04  0.7818608E-02  0.8556876E-01
         -4   -1    0    0    0  501 -0.00000000000E+00  0.00000000000E+00  0.71809545829E+03  0.71809545829E+03  0.00000000000E+00 0.  1.
          1   -1    0    0  501    0  0.00000000000E+00 -0.00000000000E+00 -0.15498836470E+04  0.15498836470E+04  0.00000000000E+00 0. -1.
        -24    2    1    2    0    0 -0.30895547425E+03  0.68209137706E+03 -0.77453790821E+03  0.10804347960E+04  0.82025882738E+02 0.  0.
        254    2    1    2    0    0  0.30895547425E+03 -0.68209137706E+03 -0.57250280457E+02  0.11875443092E+04  0.91993573691E+03 0.  0.
         23    2    4    4    0    0  0.49641896590E+03 -0.78523873988E+03  0.40594464581E+02  0.93501559851E+03  0.97849836905E+02 0.  0.
         23    2    4    4    0    0 -0.18746349165E+03  0.10314736282E+03 -0.97844745039E+02  0.25252871073E+03  0.91734488891E+02 0.  0.
          1    1    3    3  502    0 -0.14990597857E+03  0.38028389902E+03 -0.37107855884E+03  0.55207512451E+03  0.00000000000E+00 0. -1.
         -2    1    3    3    0  502 -0.15904949568E+03  0.30180747804E+03 -0.40345934936E+03  0.52835967150E+03  0.00000000000E+00 0.  1.
         13    1    5    5    0    0  0.27150116531E+03 -0.51405964585E+03  0.39594222269E+02  0.58269881131E+03  0.00000000000E+00 0.  1.
        -13    1    5    5    0    0  0.22491780059E+03 -0.27117909403E+03  0.10002423122E+01  0.35231678720E+03  0.00000000000E+00 0. -1.
          3    1    6    6  503    0  0.15847346103E+01  0.22796375076E+02 -0.26695622623E+02  0.35140323954E+02  0.00000000000E+00 0. -1.
         -3    1    6    6    0  503 -0.18904822626E+03  0.80350987741E+02 -0.71149122416E+02  0.21738838677E+03  0.00000000000E+00 0.  1.
<mgrwt>
<rscale>  0 0.21099426E+04</rscale>
<asrwt>0</asrwt>
<pdfrwt beam="1">  1        1 0.23844364E+00 0.21099426E+04</pdfrwt>
<pdfrwt beam="2">  1       -4 0.11047623E+00 0.21099426E+04</pdfrwt>
<totfact> 0.17628548E+00</totfact>
</mgrwt>
</event>
<event>
12    5  0.5197392E-008  0.2942934E+04  0.7818608E-02  0.8260217E-01
         -4   -1    0    0    0  501 -0.00000000000E+00  0.00000000000E+00  0.12195415841E+04  0.12195415841E+04  0.00000000000E+00 0.  1.
          1   -1    0    0  501    0  0.00000000000E+00 -0.00000000000E+00 -0.17754342180E+04  0.17754342180E+04  0.00000000000E+00 0. -1.
        -24    2    1    2    0    0 -0.48924012879E+03  0.92669027888E+02 -0.15090656936E+04  0.15906662905E+04  0.70686122088E+02 0.  0.
        254    2    1    2    0    0  0.48924012879E+03 -0.92669027888E+02  0.95317305959E+03  0.14043095116E+04  0.90310734167E+03 0.  0.
         23    2    4    4    0    0  0.17523249576E+03 -0.33658267117E+03  0.22374710493E+02  0.38819277231E+03  0.78731688062E+02 0.  0.
         23    2    4    4    0    0  0.31400763303E+03  0.24391364328E+03  0.93079834910E+03  0.10161167393E+04  0.89515374422E+02 0.  0.
          3    1    3    3  502    0 -0.35946093982E+03  0.96441660342E+02 -0.11596609781E+04  0.12179190224E+04  0.00000000000E+00 0. -1.
         -4    1    3    3    0  502 -0.12977918897E+03 -0.37726324541E+01 -0.34940471547E+03  0.37274726804E+03  0.00000000000E+00 0.  1.
         13    1    5    5    0    0  0.47532179310E+02 -0.34405680105E+02  0.12486843815E+02  0.59991500748E+02  0.00000000000E+00 0. -1.
        -13    1    5    5    0    0  0.12770031645E+03 -0.30217699107E+03  0.98878666784E+01  0.32820127157E+03  0.00000000000E+00 0.  1.
          1    1    6    6  503    0  0.99034648374E+02  0.28323203773E+02  0.22547894398E+03  0.24789275833E+03  0.00000000000E+00 0. -1.
         -1    1    6    6    0  503  0.21497298465E+03  0.21559043951E+03  0.70531940512E+03  0.76822398099E+03  0.00000000000E+00 0.  1.
<mgrwt>
<rscale>  0 0.29429345E+04</rscale>
<asrwt>0</asrwt>
<pdfrwt beam="1">  1        1 0.27314373E+00 0.29429345E+04</pdfrwt>
<pdfrwt beam="2">  1       -4 0.18762178E+00 0.29429345E+04</pdfrwt>
<totfact> 0.28105427E-01</totfact>
</mgrwt>
</event>
<event>
12    5  0.5197392E-008  0.1347948E+04  0.7818608E-02  0.8992383E-01
         -2   -1    0    0    0  501 -0.00000000000E+00  0.00000000000E+00  0.45059930638E+03  0.45059930638E+03  0.00000000000E+00 0.  1.
          1   -1    0    0  501    0  0.00000000000E+00 -0.00000000000E+00 -0.10080816284E+04  0.10080816284E+04  0.00000000000E+00 0. -1.
        -24    2    1    2    0    0 -0.19332449482E+03 -0.26059119712E+03 -0.34804463931E+03  0.48266193314E+03  0.80903265898E+02 0.  0.
        254    2    1    2    0    0  0.19332449482E+03  0.26059119712E+03 -0.20943768272E+03  0.97601900167E+03  0.89636310519E+03 0.  0.
         23    2    4    4    0    0 -0.10582755708E+02  0.44622318025E+03 -0.41675071035E+03  0.61773818201E+03  0.93231891686E+02 0.  0.
         23    2    4    4    0    0  0.20390725053E+03 -0.18563198313E+03  0.20731302763E+03  0.35828081965E+03  0.96690507939E+02 0.  0.
          3    1    3    3  502    0 -0.19646205800E+03 -0.23793942148E+03 -0.33806198300E+03  0.45770996589E+03  0.00000000000E+00 0. -1.
         -2    1    3    3    0  502  0.31375631758E+01 -0.22651775642E+02 -0.99826563078E+01  0.24951967245E+02  0.00000000000E+00 0.  1.
         13    1    5    5    0    0 -0.27401514812E+01  0.12898974014E+03 -0.66624299814E+02  0.14520557433E+03  0.00000000000E+00 0.  1.
        -13    1    5    5    0    0 -0.78426042271E+01  0.31723344011E+03 -0.35012641054E+03  0.47253260768E+03  0.00000000000E+00 0. -1.
          2    1    6    6  503    0  0.16373645643E+03 -0.92309430585E+02  0.15698499771E+03  0.24489783103E+03  0.00000000000E+00 0. -1.
         -2    1    6    6    0  503  0.40170794102E+02 -0.93322552548E+02  0.50328029919E+02  0.11338298862E+03  0.00000000000E+00 0.  1.
<mgrwt>
<rscale>  0 0.13479479E+04</rscale>
<asrwt>0</asrwt>
<pdfrwt beam="1">  1        1 0.15508948E+00 0.13479479E+04</pdfrwt>
<pdfrwt beam="2">  1       -2 0.69322971E-01 0.13479479E+04</pdfrwt>
<totfact> 0.24304252E+01</totfact>
</mgrwt>
</event>
<event>
12    5  0.5197392E-008  0.1851263E+04  0.7818608E-02  0.8679504E-01
          1   -1    0    0  501    0  0.00000000000E+00  0.00000000000E+00  0.10758535299E+04  0.10758535299E+04  0.00000000000E+00 0. -1.
         -2   -1    0    0    0  501 -0.00000000000E+00 -0.00000000000E+00 -0.79638466964E+03  0.79638466964E+03  0.00000000000E+00 0.  1.
        -24    2    1    2    0    0  0.91124283626E+02  0.30623004544E+03 -0.52624774585E+03  0.62094742317E+03  0.80984791994E+02 0.  0.
        254    2    1    2    0    0 -0.91124283626E+02 -0.30623004544E+03  0.80571660613E+03  0.12512907764E+04  0.90247929721E+03 0.  0.
         23    2    4    4    0    0 -0.17437875318E+03 -0.60245798146E+03  0.58127227576E+03  0.85958288949E+03  0.87416911213E+02 0.  0.
         23    2    4    4    0    0  0.83254469550E+02  0.29622793601E+03  0.22444433037E+03  0.39170788689E+03  0.91528762945E+02 0.  0.
          1    1    3    3  502    0  0.75207835815E+02  0.22250484316E+03 -0.31317657438E+03  0.39146416252E+03  0.00000000000E+00 0. -1.
         -2    1    3    3    0  502  0.15916447811E+02  0.83725202286E+02 -0.21307117147E+03  0.22948326065E+03  0.00000000000E+00 0.  1.
         13    1    5    5    0    0  0.59186640408E+01 -0.80920925617E+02  0.83413082498E+02  0.11636566985E+03  0.00000000000E+00 0. -1.
        -13    1    5    5    0    0 -0.18029741722E+03 -0.52153705584E+03  0.49785919326E+03  0.74321721965E+03  0.00000000000E+00 0.  1.
          1    1    6    6  503    0  0.46867810886E+02  0.19569372928E+03  0.91360328299E+02  0.22099623744E+03  0.00000000000E+00 0. -1.
         -1    1    6    6    0  503  0.36386658663E+02  0.10053420674E+03  0.13308400207E+03  0.17071164946E+03  0.00000000000E+00 0.  1.
<mgrwt>
<rscale>  0 0.18512626E+04</rscale>
<asrwt>0</asrwt>
<pdfrwt beam="1">  1        1 0.16551593E+00 0.18512626E+04</pdfrwt>
<pdfrwt beam="2">  1       -2 0.12252072E+00 0.18512626E+04</pdfrwt>
<totfact> 0.54922899E+00</totfact>
</mgrwt>
</event>
<event>
12    5  0.5197392E-008  0.1735203E+04  0.7818608E-02  0.8741538E-01
         -2   -1    0    0    0  501 -0.00000000000E+00  0.00000000000E+00  0.55078634957E+03  0.55078634957E+03  0.00000000000E+00 0.  1.
          1   -1    0    0  501    0  0.00000000000E+00 -0.00000000000E+00 -0.13666506126E+04  0.13666506126E+04  0.00000000000E+00 0. -1.
        -24    2    1    2    0    0 -0.51590462120E+03 -0.92619719293E+02  0.80426491005E+02  0.53634846827E+03  0.80406892611E+02 0.  0.
        254    2    1    2    0    0  0.51590462120E+03  0.92619719293E+02 -0.89629075402E+03  0.13810884939E+04  0.91067684808E+03 0.  0.
         23    2    4    4    0    0  0.40650883578E+03  0.33579870016E+03 -0.95290741519E+03  0.10934314036E+04  0.97721501710E+02 0.  0.
         23    2    4    4    0    0  0.10939578542E+03 -0.24317898086E+03  0.56616661163E+02  0.28765709028E+03  0.91856957625E+02 0.  0.
          1    1    3    3  502    0 -0.32109513004E+02  0.64896146751E+01 -0.10093564176E+02  0.34278505828E+02  0.00000000000E+00 0. -1.
         -2    1    3    3    0  502 -0.48379510820E+03 -0.99109333968E+02  0.90520055181E+02  0.50206996244E+03  0.00000000000E+00 0.  1.
         13    1    5    5    0    0  0.97588317588E+02  0.60191508697E+02 -0.29032710739E+03  0.31214792444E+03  0.00000000000E+00 0. -1.
        -13    1    5    5    0    0  0.30892051819E+03  0.27560719146E+03 -0.66258030780E+03  0.78128347917E+03  0.00000000000E+00 0.  1.
          4    1    6    6  503    0  0.11110260772E+03 -0.23192752181E+03  0.30249150409E+02  0.25893855625E+03  0.00000000000E+00 0.  1.
         -4    1    6    6    0  503 -0.17068222970E+01 -0.11251459056E+02  0.26367510753E+02  0.28718534025E+02  0.00000000000E+00 0. -1.
<mgrwt>
<rscale>  0 0.17352032E+04</rscale>
<asrwt>0</asrwt>
<pdfrwt beam="1">  1        1 0.21025394E+00 0.17352032E+04</pdfrwt>
<pdfrwt beam="2">  1       -2 0.84736363E-01 0.17352032E+04</pdfrwt>
<totfact> 0.81926787E+00</totfact>
</mgrwt>
</event>
<event>
12    5  0.5197392E-008  0.5185254E+04  0.7818608E-02  0.7800549E-01
          1   -1    0    0  501    0  0.00000000000E+00  0.00000000000E+00  0.38303258134E+04  0.38303258134E+04  0.00000000000E+00 0. -1.
         -2   -1    0    0    0  501 -0.00000000000E+00 -0.00000000000E+00 -0.17548674234E+04  0.17548674234E+04  0.00000000000E+00 0.  1.
        -24    2    1    2    0    0  0.14762188167E+04 -0.18161650643E+04  0.19992140348E+04  0.30791810595E+04  0.82593611569E+02 0.  0.
        254    2    1    2    0    0 -0.14762188167E+04  0.18161650643E+04  0.76244355211E+02  0.25060121772E+04  0.89252803599E+03 0.  0.
         23    2    4    4    0    0 -0.20341326447E+03  0.28115800629E+03  0.33808641928E+03  0.49269810880E+03  0.89566840158E+02 0.  0.
         23    2    4    4    0    0 -0.12728055522E+04  0.15350070580E+04 -0.26184206407E+03  0.20133140684E+04  0.92691043658E+02 0.  0.
          1    1    3    3  502    0  0.12020562596E+04 -0.14952074194E+04  0.15984497245E+04  0.24971235452E+04  0.00000000000E+00 0. -1.
         -2    1    3    3    0  502  0.27416255714E+03 -0.32095764494E+03  0.40076431031E+03  0.58205751434E+03  0.00000000000E+00 0.  1.
         13    1    5    5    0    0 -0.90070344028E+02  0.62418053107E+02  0.78378645759E+02  0.13472895879E+03  0.00000000000E+00 0. -1.
        -13    1    5    5    0    0 -0.11334292045E+03  0.21873995318E+03  0.25970777352E+03  0.35796915001E+03  0.00000000000E+00 0.  1.
          1    1    6    6  503    0 -0.63484351704E+03  0.81185175978E+03 -0.17127443599E+03  0.10447317854E+04  0.00000000000E+00 0. -1.
         -1    1    6    6    0  503 -0.63796203518E+03  0.72315529825E+03 -0.90567628079E+02  0.96858228302E+03  0.00000000000E+00 0.  1.
<mgrwt>
<rscale>  0 0.51852537E+04</rscale>
<asrwt>0</asrwt>
<pdfrwt beam="1">  1        1 0.58928089E+00 0.51852537E+04</pdfrwt>
<pdfrwt beam="2">  1       -2 0.26997960E+00 0.51852537E+04</pdfrwt>
<totfact> 0.40726489E-03</totfact>
</mgrwt>
</event>
<event>
12    5  0.5197392E-008  0.2116802E+04  0.7818608E-02  0.8553878E-01
          1   -1    0    0  501    0  0.00000000000E+00  0.00000000000E+00  0.91137075865E+03  0.91137075865E+03  0.00000000000E+00 0. -1.
         -2   -1    0    0    0  501 -0.00000000000E+00 -0.00000000000E+00 -0.12291517399E+04  0.12291517399E+04  0.00000000000E+00 0.  1.
        -24    2    1    2    0    0  0.62477323058E+03  0.19090420220E+03  0.44317258813E+03  0.79347842521E+03  0.80125303957E+02 0.  0.
        254    2    1    2    0    0 -0.62477323058E+03 -0.19090420220E+03 -0.76095356942E+03  0.13470440734E+04  0.89927270430E+03 0.  0.
         23    2    4    4    0    0 -0.16766248398E+03  0.18858050753E+03 -0.69277865377E+03  0.74244512807E+03  0.87230663944E+02 0.  0.
         23    2    4    4    0    0 -0.45711074661E+03 -0.37948470973E+03 -0.68174915652E+02  0.60459894529E+03  0.89068434006E+02 0.  0.
          3    1    3    3  502    0  0.51834815106E+03  0.16156176578E+03  0.40235372096E+03  0.67577771985E+03  0.00000000000E+00 0. -1.
         -4    1    3    3    0  502  0.10642507952E+03  0.29342436423E+02  0.40818867172E+02  0.11770070536E+03  0.00000000000E+00 0.  1.
         13    1    5    5    0    0 -0.80435717869E+02  0.45684739812E+02 -0.17032498765E+03  0.19382363524E+03  0.00000000000E+00 0. -1.
        -13    1    5    5    0    0 -0.87226766107E+02  0.14289576772E+03 -0.52245366612E+03  0.54862149283E+03  0.00000000000E+00 0.  1.
          2    1    6    6  503    0 -0.99891385532E+01 -0.28983829369E+00  0.87832080932E+01  0.13304572134E+02  0.00000000000E+00 0. -1.
         -2    1    6    6    0  503 -0.44712160806E+03 -0.37919487144E+03 -0.76958123745E+02  0.59129437315E+03  0.00000000000E+00 0.  1.
<mgrwt>
<rscale>  0 0.21168023E+04</rscale>
<asrwt>0</asrwt>
<pdfrwt beam="1">  1        1 0.14021089E+00 0.21168023E+04</pdfrwt>
<pdfrwt beam="2">  1       -2 0.18910027E+00 0.21168023E+04</pdfrwt>
<totfact> 0.22527425E+00</totfact>
</mgrwt>
</event>
<event>
12    5  0.5197392E-008  0.1487602E+04  0.7818608E-02  0.8892739E-01
         -2   -1    0    0    0  501 -0.00000000000E+00  0.00000000000E+00  0.13562179592E+04  0.13562179592E+04  0.00000000000E+00 0.  1.
          1   -1    0    0  501    0  0.00000000000E+00 -0.00000000000E+00 -0.40792854617E+03  0.40792854617E+03  0.00000000000E+00 0. -1.
        -24    2    1    2    0    0  0.44819542931E+02  0.45956632902E+03  0.40342789644E+03  0.61685660382E+03  0.67438860137E+02 0.  0.
        254    2    1    2    0    0 -0.44819542931E+02 -0.45956632902E+03  0.54486151658E+03  0.11472899015E+04  0.89788086278E+03 0.  0.
         23    2    4    4    0    0  0.23007998738E+03 -0.64936300213E+02  0.60282408177E+03  0.65493589848E+03  0.91600403228E+02 0.  0.
         23    2    4    4    0    0 -0.27489953031E+03 -0.39463002880E+03 -0.57962565192E+02  0.49235400307E+03  0.88035186040E+02 0.  0.
          1    1    3    3  502    0 -0.14671875880E+02  0.17753889379E+03  0.14400438512E+03  0.22906895399E+03  0.00000000000E+00 0. -1.
         -2    1    3    3    0  502  0.59491418811E+02  0.28202743523E+03  0.25942351132E+03  0.38778764983E+03  0.00000000000E+00 0.  1.
         13    1    5    5    0    0  0.12449707794E+02 -0.32186637328E+02  0.10792093424E+03  0.11330446987E+03  0.00000000000E+00 0. -1.
        -13    1    5    5    0    0  0.21763027958E+03 -0.32749662886E+02  0.49490314754E+03  0.54163142860E+03  0.00000000000E+00 0.  1.
          2    1    6    6  503    0 -0.19106916908E+02 -0.80471628060E+02  0.24801073827E+01  0.82746046002E+02  0.00000000000E+00 0. -1.
         -2    1    6    6    0  503 -0.25579261340E+03 -0.31415840074E+03 -0.60442672574E+02  0.40960795707E+03  0.00000000000E+00 0.  1.
<mgrwt>
<rscale>  0 0.14876021E+04</rscale>
<asrwt>0</asrwt>
<pdfrwt beam="1">  1        1 0.62758238E-01 0.14876021E+04</pdfrwt>
<pdfrwt beam="2">  1       -2 0.20864892E+00 0.14876021E+04</pdfrwt>
<totfact> 0.57742418E+00</totfact>
</mgrwt>
</event>
<event>
12    5  0.5197392E-008  0.1294000E+04  0.7818608E-02  0.9034337E-01
         -2   -1    0    0    0  501 -0.00000000000E+00  0.00000000000E+00  0.24827376905E+03  0.24827376905E+03  0.00000000000E+00 0.  1.
          1   -1    0    0  501    0  0.00000000000E+00 -0.00000000000E+00 -0.16860788850E+04  0.16860788850E+04  0.00000000000E+00 0. -1.
        -24    2    1    2    0    0  0.13083682092E+03 -0.25169279649E+02 -0.81973907514E+03  0.83436884066E+03  0.80295981327E+02 0.  0.
        254    2    1    2    0    0 -0.13083682092E+03  0.25169279649E+02 -0.61806604081E+03  0.10999838134E+04  0.90011498852E+03 0.  0.
         23    2    4    4    0    0  0.24896279354E+03 -0.26924273407E+03 -0.43785000258E+03  0.57843056913E+03  0.91625193738E+02 0.  0.
         23    2    4    4    0    0 -0.37979961445E+03  0.29441201372E+03 -0.18021603824E+03  0.52155324426E+03  0.92810480002E+02 0.  0.
          3    1    3    3  502    0  0.96414289719E+02 -0.79468839846E+01 -0.73448426741E+03  0.74082792017E+03  0.00000000000E+00 0. -1.
         -4    1    3    3    0  502  0.34422531200E+02 -0.17222395664E+02 -0.85254807727E+02  0.93540920496E+02  0.00000000000E+00 0.  1.
         13    1    5    5    0    0  0.63060098263E+02 -0.38461046704E+02 -0.45543402489E+02  0.86775743251E+02  0.00000000000E+00 0. -1.
        -13    1    5    5    0    0  0.18590269527E+03 -0.23078168737E+03 -0.39230660009E+03  0.49165482588E+03  0.00000000000E+00 0.  1.
          3    1    6    6  503    0 -0.43152361742E+02  0.92028305978E+01 -0.37262749740E+02  0.57752324049E+02  0.00000000000E+00 0. -1.
         -3    1    6    6    0  503 -0.33664725271E+03  0.28520918313E+03 -0.14295328850E+03  0.46380092021E+03  0.00000000000E+00 0.  1.
<mgrwt>
<rscale>  0 0.12940002E+04</rscale>
<asrwt>0</asrwt>
<pdfrwt beam="1">  1        1 0.25939674E+00 0.12940002E+04</pdfrwt>
<pdfrwt beam="2">  1       -2 0.38195966E-01 0.12940002E+04</pdfrwt>
<totfact> 0.27204864E+01</totfact>
</mgrwt>
</event>
<event>
12    5  0.5197392E-008  0.1878932E+04  0.7818608E-02  0.8665415E-01
          1   -1    0    0  501    0  0.00000000000E+00  0.00000000000E+00  0.83240516750E+03  0.83240516750E+03  0.00000000000E+00 0. -1.
         -2   -1    0    0    0  501 -0.00000000000E+00 -0.00000000000E+00 -0.10602966066E+04  0.10602966066E+04  0.00000000000E+00 0.  1.
        -24    2    1    2    0    0  0.50003457157E+03 -0.49865111343E+03  0.66259746456E+02  0.71401213914E+03  0.82069940609E+02 0.  0.
        254    2    1    2    0    0 -0.50003457157E+03  0.49865111343E+03 -0.29415118556E+03  0.11786896350E+04  0.89671446398E+03 0.  0.
         23    2    4    4    0    0  0.20700716919E+03  0.13445474028E+03 -0.27191327576E+03  0.37794449490E+03  0.89303787198E+02 0.  0.
         23    2    4    4    0    0 -0.70704174076E+03  0.36419637315E+03 -0.22237909798E+02  0.80074514006E+03  0.90284180855E+02 0.  0.
          3    1    3    3  502    0  0.17398239220E+03 -0.19114851763E+03 -0.13338920457E+02  0.25881567840E+03  0.00000000000E+00 0. -1.
         -4    1    3    3    0  502  0.32605217937E+03 -0.30750259580E+03  0.79598666913E+02  0.45519646074E+03  0.00000000000E+00 0.  1.
         13    1    5    5    0    0  0.39387462603E+01  0.21404767071E+02 -0.58469993753E+02  0.62389245427E+02  0.00000000000E+00 0. -1.
        -13    1    5    5    0    0  0.20306842293E+03  0.11304997321E+03 -0.21344328201E+03  0.31555524947E+03  0.00000000000E+00 0.  1.
          3    1    6    6  503    0 -0.23273834570E+01 -0.15573921263E+01 -0.59792310660E+01  0.66025289194E+01  0.00000000000E+00 0. -1.
         -3    1    6    6    0  503 -0.70471435730E+03  0.36575376528E+03 -0.16258678732E+02  0.79414261114E+03  0.00000000000E+00 0.  1.
<mgrwt>
<rscale>  0 0.18789320E+04</rscale>
<asrwt>0</asrwt>
<pdfrwt beam="1">  1        1 0.12806233E+00 0.18789320E+04</pdfrwt>
<pdfrwt beam="2">  1       -2 0.16312255E+00 0.18789320E+04</pdfrwt>
<totfact> 0.40657465E+00</totfact>
</mgrwt>
</event>
<event>
12    5  0.5905906E-008  0.2114258E+04  0.7818608E-02  0.8554989E-01
          1   -1    0    0  501    0  0.00000000000E+00  0.00000000000E+00  0.15771022699E+04  0.15771022699E+04  0.00000000000E+00 0. -1.
         -2   -1    0    0    0  501 -0.00000000000E+00 -0.00000000000E+00 -0.70859161893E+03  0.70859161893E+03  0.00000000000E+00 0.  1.
        -24    2    1    2    0    0 -0.77443652885E+03 -0.12269484359E+02  0.74017853389E+03  0.10742155863E+04  0.78564536519E+02 0.  0.
        254    2    1    2    0    0  0.77443652885E+03  0.12269484359E+02  0.12833211711E+03  0.12114783025E+04  0.92266357237E+03 0.  0.
         23    2    4    4    0    0  0.79035248482E+03 -0.24935681832E+03 -0.11604817022E+03  0.84158123123E+03  0.89195952019E+02 0.  0.
         23    2    4    4    0    0 -0.15915955964E+02  0.26162630268E+03  0.24438028732E+03  0.36989707131E+03  0.91654124974E+02 0.  0.
          3    1    3    3  502    0 -0.61817085803E+03  0.93915267856E+01  0.62301120509E+03  0.87770517382E+03  0.00000000000E+00 0. -1.
         -4    1    3    3    0  502 -0.15626567083E+03 -0.21661011144E+02  0.11716732880E+03  0.19651041250E+03  0.00000000000E+00 0.  1.
         13    1    5    5    0    0  0.74667635712E+03 -0.25197880389E+03 -0.12195935150E+03  0.79742898324E+03  0.00000000000E+00 0.  1.
        -13    1    5    5    0    0  0.43676127698E+02  0.26219855708E+01  0.59111812797E+01  0.44152247996E+02  0.00000000000E+00 0. -1.
          2    1    6    6  503    0 -0.23121608165E+02  0.18237322255E+02  0.79527694976E+01  0.30503364238E+02  0.00000000000E+00 0. -1.
         -2    1    6    6    0  503  0.72056522013E+01  0.24338898042E+03  0.23642751783E+03  0.33939370707E+03  0.00000000000E+00 0.  1.
<mgrwt>
<rscale>  0 0.21142577E+04</rscale>
<asrwt>0</asrwt>
<pdfrwt beam="1">  1        1 0.24263112E+00 0.21142577E+04</pdfrwt>
<pdfrwt beam="2">  1       -2 0.10901410E+00 0.21142577E+04</pdfrwt>
<totfact> 0.31333156E+00</totfact>
</mgrwt>
</event>
<event>
12    5  0.5197392E-008  0.2750452E+04  0.7818608E-02  0.8318818E-01
          1   -1    0    0  501    0  0.00000000000E+00  0.00000000000E+00  0.34529659273E+04  0.34529659273E+04  0.00000000000E+00 0. -1.
         -2   -1    0    0    0  501 -0.00000000000E+00 -0.00000000000E+00 -0.54771656016E+03  0.54771656016E+03  0.00000000000E+00 0.  1.
        -24    2    1    2    0    0  0.62562856650E+03 -0.85524336827E+03  0.39928665150E+03  0.11351907558E+04  0.79849231241E+02 0.  0.
        254    2    1    2    0    0 -0.62562856650E+03  0.85524336827E+03  0.25059627156E+04  0.28654917317E+04  0.89907808892E+03 0.  0.
         23    2    4    4    0    0 -0.87739688593E+02  0.68818753091E+03  0.77902751185E+03  0.10469942192E+04  0.89513687279E+02 0.  0.
         23    2    4    4    0    0 -0.53788887791E+03  0.16705583736E+03  0.17269352038E+04  0.18184975124E+04  0.85999459094E+02 0.  0.
          3    1    3    3  502    0  0.99952263551E+02 -0.16161034632E+03  0.43398138872E+02  0.19491474414E+03  0.00000000000E+00 0. -1.
         -4    1    3    3    0  502  0.52567630295E+03 -0.69363302195E+03  0.35588851263E+03  0.94027601163E+03  0.00000000000E+00 0.  1.
         13    1    5    5    0    0 -0.62422161480E+02  0.41552350315E+03  0.40637988978E+03  0.58455189909E+03  0.00000000000E+00 0.  1.
        -13    1    5    5    0    0 -0.25317527113E+02  0.27266402777E+03  0.37264762207E+03  0.46244232014E+03  0.00000000000E+00 0. -1.
          1    1    6    6  503    0 -0.16406528052E+03  0.33321793125E+02  0.40527994727E+03  0.43849697129E+03  0.00000000000E+00 0. -1.
         -1    1    6    6    0  503 -0.37382359739E+03  0.13373404423E+03  0.13216552565E+04  0.13800005412E+04  0.00000000000E+00 0.  1.
<mgrwt>
<rscale>  0 0.27504521E+04</rscale>
<asrwt>0</asrwt>
<pdfrwt beam="1">  1        1 0.53122551E+00 0.27504521E+04</pdfrwt>
<pdfrwt beam="2">  1       -2 0.84264089E-01 0.27504521E+04</pdfrwt>
<totfact> 0.25572203E-01</totfact>
</mgrwt>
</event>
<event>
12    5  0.5197392E-008  0.1895301E+04  0.7818608E-02  0.8657199E-01
         -2   -1    0    0    0  501 -0.00000000000E+00  0.00000000000E+00  0.37689516841E+03  0.37689516841E+03  0.00000000000E+00 0.  1.
          1   -1    0    0  501    0  0.00000000000E+00 -0.00000000000E+00 -0.23827347651E+04  0.23827347651E+04  0.00000000000E+00 0. -1.
        -24    2    1    2    0    0 -0.40075844855E+03 -0.31818091057E+03 -0.15507050068E+04  0.16348409271E+04  0.78564705756E+02 0.  0.
        254    2    1    2    0    0  0.40075844855E+03  0.31818091057E+03 -0.45513458983E+03  0.11247890063E+04  0.89227595952E+03 0.  0.
         23    2    4    4    0    0  0.17109214939E+03  0.21054296331E+03 -0.70247989626E+03  0.75854408964E+03  0.91160672987E+02 0.  0.
         23    2    4    4    0    0  0.22966629916E+03  0.10763794726E+03  0.24734530643E+03  0.36624491668E+03  0.92860657520E+02 0.  0.
          1    1    3    3  502    0 -0.33480746773E+03 -0.23799476563E+03 -0.13042940526E+04  0.13674503737E+04  0.00000000000E+00 0. -1.
         -2    1    3    3    0  502 -0.65950980817E+02 -0.80186144934E+02 -0.24641095418E+03  0.26739055341E+03  0.00000000000E+00 0.  1.
         13    1    5    5    0    0  0.58494328578E+02  0.89846877147E+02 -0.16923271968E+03  0.20033412395E+03  0.00000000000E+00 0. -1.
        -13    1    5    5    0    0  0.11259782081E+03  0.12069608616E+03 -0.53324717658E+03  0.55820996569E+03  0.00000000000E+00 0.  1.
          4    1    6    6  503    0  0.16671055268E+01 -0.12148347745E+02  0.79301372941E+01  0.14603036372E+02  0.00000000000E+00 0. -1.
         -4    1    6    6    0  503  0.22799919364E+03  0.11978629501E+03  0.23941516914E+03  0.35164188030E+03  0.00000000000E+00 0.  1.
<mgrwt>
<rscale>  0 0.18953007E+04</rscale>
<asrwt>0</asrwt>
<pdfrwt beam="1">  1        1 0.36657459E+00 0.18953007E+04</pdfrwt>
<pdfrwt beam="2">  1       -2 0.57983870E-01 0.18953007E+04</pdfrwt>
<totfact> 0.37385340E+00</totfact>
</mgrwt>
</event>
<event>
12    5  0.5197392E-008  0.1202532E+04  0.7818608E-02  0.9110643E-01
          1   -1    0    0  501    0  0.00000000000E+00  0.00000000000E+00  0.92356849944E+03  0.92356849944E+03  0.00000000000E+00 0. -1.
         -2   -1    0    0    0  501 -0.00000000000E+00 -0.00000000000E+00 -0.39143888587E+03  0.39143888587E+03  0.00000000000E+00 0.  1.
        -24    2    1    2    0    0 -0.89782805624E+02  0.82952137510E+02 -0.12227716111E+03  0.19195754592E+03  0.83390563046E+02 0.  0.
        254    2    1    2    0    0  0.89782805624E+02 -0.82952137510E+02  0.65440677468E+03  0.11230498394E+04  0.90446155567E+03 0.  0.
         23    2    4    4    0    0 -0.27509561898E+03 -0.73457618241E+02  0.68266196150E+03  0.74549950274E+03  0.93104960403E+02 0.  0.
         23    2    4    4    0    0  0.36487842461E+03 -0.94945192686E+01 -0.28255186820E+02  0.37755033664E+03  0.92301085999E+02 0.  0.
          1    1    3    3  502    0 -0.88346757148E+01  0.14149764448E+02  0.12136541646E+02  0.20629177687E+02  0.00000000000E+00 0. -1.
         -2    1    3    3    0  502 -0.80948129909E+02  0.68802373062E+02 -0.13441370275E+03  0.17132836823E+03  0.00000000000E+00 0.  1.
         13    1    5    5    0    0  0.72356448954E+01 -0.57267007744E+01  0.21237083771E+02  0.23155202135E+02  0.00000000000E+00 0.  1.
        -13    1    5    5    0    0 -0.28233126388E+03 -0.67730917467E+02  0.66142487772E+03  0.72234430060E+03  0.00000000000E+00 0. -1.
          3    1    6    6  503    0  0.23170004418E+03  0.38576090469E+02 -0.19195304807E+02  0.23567241026E+03  0.00000000000E+00 0. -1.
         -3    1    6    6    0  503  0.13317838042E+03 -0.48070609738E+02 -0.90598820126E+01  0.14187792638E+03  0.00000000000E+00 0.  1.
<mgrwt>
<rscale>  0 0.12025317E+04</rscale>
<asrwt>0</asrwt>
<pdfrwt beam="1">  1        1 0.14208746E+00 0.12025317E+04</pdfrwt>
<pdfrwt beam="2">  1       -2 0.60221367E-01 0.12025317E+04</pdfrwt>
<totfact> 0.38803991E+01</totfact>
</mgrwt>
</event>
<event>
12    5  0.5197392E-008  0.1548851E+04  0.7818608E-02  0.8852602E-01
          1   -1    0    0  501    0  0.00000000000E+00  0.00000000000E+00  0.79305066770E+03  0.79305066770E+03  0.00000000000E+00 0. -1.
         -2   -1    0    0    0  501 -0.00000000000E+00 -0.00000000000E+00 -0.75623777160E+03  0.75623777160E+03  0.00000000000E+00 0.  1.
        -24    2    1    2    0    0  0.38665443729E+03 -0.97179884095E+02 -0.31675228653E+03  0.51540826625E+03  0.79800289166E+02 0.  0.
        254    2    1    2    0    0 -0.38665443729E+03  0.97179884095E+02  0.35356518263E+03  0.10338801730E+04  0.88597646138E+03 0.  0.
         23    2    4    4    0    0  0.27166525981E+03  0.66042079792E+02  0.31829499036E+02  0.29477655131E+03  0.87843773290E+02 0.  0.
         23    2    4    4    0    0 -0.65831969709E+03  0.31137804303E+02  0.32173568359E+03  0.73910362174E+03  0.91683843335E+02 0.  0.
          3    1    3    3  502    0  0.63564742874E+01 -0.62058700469E+01 -0.27848609896E+02  0.29231193296E+02  0.00000000000E+00 0. -1.
         -4    1    3    3    0  502  0.38029796300E+03 -0.90974014048E+02 -0.28890367664E+03  0.48617707295E+03  0.00000000000E+00 0.  1.
         13    1    5    5    0    0  0.81546557754E+02 -0.60348780766E+01 -0.21553497892E+02  0.84562486401E+02  0.00000000000E+00 0.  1.
        -13    1    5    5    0    0  0.19011870205E+03  0.72076957868E+02  0.53382996927E+02  0.21021406491E+03  0.00000000000E+00 0. -1.
          4    1    6    6  503    0 -0.16621510784E+03 -0.24889361966E+02  0.56762414626E+02  0.17739479735E+03  0.00000000000E+00 0. -1.
         -4    1    6    6    0  503 -0.49210458926E+03  0.56027166269E+02  0.26497326897E+03  0.56170882439E+03  0.00000000000E+00 0.  1.
<mgrwt>
<rscale>  0 0.15488510E+04</rscale>
<asrwt>0</asrwt>
<pdfrwt beam="1">  1        1 0.12200780E+00 0.15488510E+04</pdfrwt>
<pdfrwt beam="2">  1       -2 0.11634427E+00 0.15488510E+04</pdfrwt>
<totfact> 0.10844731E+01</totfact>
</mgrwt>
</event>
<event>
12    5  0.5197392E-008  0.1717547E+04  0.7818608E-02  0.8751420E-01
          1   -1    0    0  501    0  0.00000000000E+00  0.00000000000E+00  0.28096311401E+04  0.28096311401E+04  0.00000000000E+00 0. -1.
         -2   -1    0    0    0  501 -0.00000000000E+00 -0.00000000000E+00 -0.26248694604E+03  0.26248694604E+03  0.00000000000E+00 0.  1.
        -24    2    1    2    0    0 -0.59252251194E+03  0.18400021832E+03  0.88880827611E+03  0.10866761305E+04  0.77109360367E+02 0.  0.
        254    2    1    2    0    0  0.59252251194E+03 -0.18400021832E+03  0.16583359179E+04  0.19854419556E+04  0.89831104575E+03 0.  0.
         23    2    4    4    0    0 -0.50970864949E+02  0.15595194902E+03  0.18379312558E+02  0.18893044147E+03  0.91857896271E+02 0.  0.
         23    2    4    4    0    0  0.64349337689E+03 -0.33995216733E+03  0.16399566054E+04  0.17965115142E+04  0.91349607475E+02 0.  0.
          1    1    3    3  502    0 -0.30836141833E+03  0.62006216809E+02  0.41139409502E+03  0.51785773786E+03  0.00000000000E+00 0. -1.
         -2    1    3    3    0  502 -0.28416109361E+03  0.12199400151E+03  0.47741418109E+03  0.56881839266E+03  0.00000000000E+00 0.  1.
         13    1    5    5    0    0  0.11854344721E+02  0.46432236693E+02  0.37994348701E+02  0.61155936967E+02  0.00000000000E+00 0. -1.
        -13    1    5    5    0    0 -0.62825209669E+02  0.10951971232E+03 -0.19615036143E+02  0.12777450450E+03  0.00000000000E+00 0.  1.
          1    1    6    6  503    0  0.27129937913E+03 -0.19373395107E+03  0.76784604737E+03  0.83709243777E+03  0.00000000000E+00 0. -1.
         -1    1    6    6    0  503  0.37219399775E+03 -0.14621821627E+03  0.87211055802E+03  0.95941907639E+03  0.00000000000E+00 0.  1.
<mgrwt>
<rscale>  0 0.17175465E+04</rscale>
<asrwt>0</asrwt>
<pdfrwt beam="1">  1        1 0.43225092E+00 0.17175465E+04</pdfrwt>
<pdfrwt beam="2">  1       -2 0.40382609E-01 0.17175465E+04</pdfrwt>
<totfact> 0.39848878E+00</totfact>
</mgrwt>
</event>
<event>
12    5  0.5197392E-008  0.2352727E+04  0.7818608E-02  0.8457417E-01
         -2   -1    0    0    0  501 -0.00000000000E+00  0.00000000000E+00  0.18885834932E+04  0.18885834932E+04  0.00000000000E+00 0.  1.
          1   -1    0    0  501    0  0.00000000000E+00 -0.00000000000E+00 -0.73273483478E+03  0.73273483478E+03  0.00000000000E+00 0. -1.
        -24    2    1    2    0    0  0.62410569801E+03 -0.73172772347E+03  0.21019957335E+03  0.98760703676E+03  0.79059565078E+02 0.  0.
        254    2    1    2    0    0 -0.62410569801E+03  0.73172772347E+03  0.94564908507E+03  0.16337112912E+04  0.92186062255E+03 0.  0.
         23    2    4    4    0    0  0.14680170158E+03  0.61881520715E+02 -0.65058172722E+02  0.19409642134E+03  0.89781917711E+02 0.  0.
         23    2    4    4    0    0 -0.77090739958E+03  0.66984620276E+03  0.10107072578E+04  0.14396148699E+04  0.89272944176E+02 0.  0.
          3    1    3    3  502    0  0.32931237978E+03 -0.33169819380E+03  0.83728714040E+02  0.47484822081E+03  0.00000000000E+00 0. -1.
         -4    1    3    3    0  502  0.29479331823E+03 -0.40002952967E+03  0.12647085931E+03  0.51275881595E+03  0.00000000000E+00 0.  1.
         13    1    5    5    0    0  0.15065015902E+03  0.48848811259E+02 -0.76915451290E+02  0.17606153305E+03  0.00000000000E+00 0. -1.
        -13    1    5    5    0    0 -0.38484574451E+01  0.13032709456E+02  0.11857278568E+02  0.18034888286E+02  0.00000000000E+00 0.  1.
          3    1    6    6  503    0 -0.50092644350E+03  0.48816917919E+03  0.70569989476E+03  0.99360394060E+03  0.00000000000E+00 0. -1.
         -3    1    6    6    0  503 -0.26998095608E+03  0.18167702356E+03  0.30500736304E+03  0.44601092929E+03  0.00000000000E+00 0.  1.
<mgrwt>
<rscale>  0 0.23527269E+04</rscale>
<asrwt>0</asrwt>
<pdfrwt beam="1">  1        1 0.11272844E+00 0.23527269E+04</pdfrwt>
<pdfrwt beam="2">  1       -2 0.29055130E+00 0.23527269E+04</pdfrwt>
<totfact> 0.72735026E-01</totfact>
</mgrwt>
</event>
<event>
12    5  0.5197392E-008  0.1691809E+04  0.7818608E-02  0.8766050E-01
          1   -1    0    0  501    0  0.00000000000E+00  0.00000000000E+00  0.15362867272E+04  0.15362867272E+04  0.00000000000E+00 0. -1.
         -2   -1    0    0    0  501 -0.00000000000E+00 -0.00000000000E+00 -0.46576891617E+03  0.46576891617E+03  0.00000000000E+00 0.  1.
        -24    2    1    2    0    0 -0.77400762785E+02  0.35530372997E+03 -0.18197009530E+03  0.41443734424E+03  0.80084818238E+02 0.  0.
        254    2    1    2    0    0  0.77400762785E+02 -0.35530372997E+03  0.12524879063E+04  0.15876182991E+04  0.90530342406E+03 0.  0.
         23    2    4    4    0    0 -0.66365381893E+02 -0.57993899163E+03  0.46556231713E+03  0.75179466294E+03  0.87825657805E+02 0.  0.
         23    2    4    4    0    0  0.14376614468E+03  0.22463526166E+03  0.78692558918E+03  0.83582363617E+03  0.90661804193E+02 0.  0.
          1    1    3    3  502    0 -0.33038297084E+02  0.13649752861E+03 -0.27915454712E+02  0.14318651124E+03  0.00000000000E+00 0. -1.
         -2    1    3    3    0  502 -0.44362465701E+02  0.21880620136E+03 -0.15405464059E+03  0.27125083300E+03  0.00000000000E+00 0.  1.
         13    1    5    5    0    0 -0.89872052166E+01 -0.84778332794E+02  0.11156930622E+03  0.14041312496E+03  0.00000000000E+00 0.  1.
        -13    1    5    5    0    0 -0.57378176676E+02 -0.49516065883E+03  0.35399301091E+03  0.61138153798E+03  0.00000000000E+00 0. -1.
          3    1    6    6  503    0  0.13873835271E+03  0.21189562322E+03  0.78074289276E+03  0.82079689951E+03  0.00000000000E+00 0. -1.
         -3    1    6    6    0  503  0.50277919702E+01  0.12739638444E+02  0.61826964275E+01  0.15026736668E+02  0.00000000000E+00 0.  1.
<mgrwt>
<rscale>  0 0.16918092E+04</rscale>
<asrwt>0</asrwt>
<pdfrwt beam="1">  1        1 0.23635180E+00 0.16918092E+04</pdfrwt>
<pdfrwt beam="2">  1       -2 0.71656757E-01 0.16918092E+04</pdfrwt>
<totfact> 0.91112159E+00</totfact>
</mgrwt>
</event>
<event>
12    5  0.6404165E-008  0.2594740E+04  0.7818608E-02  0.8369990E-01
         -2   -1    0    0    0  501 -0.00000000000E+00  0.00000000000E+00  0.63892898770E+03  0.63892898770E+03  0.00000000000E+00 0.  1.
          1   -1    0    0  501    0  0.00000000000E+00 -0.00000000000E+00 -0.26343601045E+04  0.26343601045E+04  0.00000000000E+00 0. -1.
        -24    2    1    2    0    0 -0.11371245861E+03  0.10840331449E+03 -0.22904949034E+04  0.22972029211E+04  0.78054828417E+02 0.  0.
        254    2    1    2    0    0  0.11371245861E+03 -0.10840331449E+03  0.29506378663E+03  0.97608617111E+03  0.91706039792E+03 0.  0.
         23    2    4    4    0    0 -0.69926890370E+02  0.64644435590E+02  0.57348892623E+03  0.58869440655E+03  0.92751726346E+02 0.  0.
         23    2    4    4    0    0  0.18363934898E+03 -0.17304775008E+03 -0.27842513961E+03  0.38739176457E+03  0.94249066780E+02 0.  0.
          3    1    3    3  502    0 -0.97149381040E+02  0.10003384979E+03 -0.22177048832E+04  0.22220845444E+04  0.00000000000E+00 0. -1.
         -4    1    3    3    0  502 -0.16563077568E+02  0.83694647025E+01 -0.72790020168E+02  0.75118376674E+02  0.00000000000E+00 0.  1.
         13    1    5    5    0    0 -0.55239833423E+01  0.40089714433E+02  0.39959374467E+03  0.40163772280E+03  0.00000000000E+00 0. -1.
        -13    1    5    5    0    0 -0.64402907027E+02  0.24554721157E+02  0.17389518156E+03  0.18705668374E+03  0.00000000000E+00 0.  1.
          1    1    6    6  503    0 -0.49122336478E+01 -0.35779846124E+02 -0.36027563234E+02  0.51012868382E+02  0.00000000000E+00 0. -1.
         -1    1    6    6    0  503  0.18855158263E+03 -0.13726790396E+03 -0.24239757637E+03  0.33637889619E+03  0.00000000000E+00 0.  1.
<mgrwt>
<rscale>  0 0.25947401E+04</rscale>
<asrwt>0</asrwt>
<pdfrwt beam="1">  1        1 0.40528618E+00 0.25947401E+04</pdfrwt>
<pdfrwt beam="2">  1       -2 0.98296766E-01 0.25947401E+04</pdfrwt>
<totfact> 0.72736977E-01</totfact>
</mgrwt>
</event>
<event>
12    5  0.5197392E-008  0.1506220E+04  0.7818608E-02  0.8880327E-01
         -4   -1    0    0    0  501 -0.00000000000E+00  0.00000000000E+00  0.54913066174E+03  0.54913066174E+03  0.00000000000E+00 0.  1.
          1   -1    0    0  501    0  0.00000000000E+00 -0.00000000000E+00 -0.10328594468E+04  0.10328594468E+04  0.00000000000E+00 0. -1.
        -24    2    1    2    0    0 -0.41525643127E+03  0.71548405584E+02 -0.39228885586E+03  0.58134559605E+03  0.80716030355E+02 0.  0.
        254    2    1    2    0    0  0.41525643127E+03 -0.71548405584E+02 -0.91439929217E+02  0.10006445125E+04  0.90297901510E+03 0.  0.
         23    2    4    4    0    0  0.59637212470E+02  0.35706418970E+03  0.12832467059E+03  0.39492077859E+03  0.91889975540E+02 0.  0.
         23    2    4    4    0    0  0.35561921880E+03 -0.42861259528E+03 -0.21976459981E+03  0.60572373392E+03  0.91820351156E+02 0.  0.
          1    1    3    3  502    0 -0.93147390421E+02 -0.57060387581E+01 -0.12333307694E+03  0.15466105873E+03  0.00000000000E+00 0. -1.
         -2    1    3    3    0  502 -0.32210904085E+03  0.77254444342E+02 -0.26895577892E+03  0.42668453732E+03  0.00000000000E+00 0.  1.
         13    1    5    5    0    0 -0.23948722751E+02  0.60151429511E+02  0.28254354271E+02  0.70640245816E+02  0.00000000000E+00 0.  1.
        -13    1    5    5    0    0  0.83585935221E+02  0.29691276019E+03  0.10007031632E+03  0.32428053277E+03  0.00000000000E+00 0. -1.
          1    1    6    6  503    0  0.30905417797E+03 -0.35192914036E+03 -0.21640783314E+03  0.51594665906E+03  0.00000000000E+00 0. -1.
         -1    1    6    6    0  503  0.46565040840E+02 -0.76683454926E+02 -0.33567666641E+01  0.89777074859E+02  0.00000000000E+00 0.  1.
<mgrwt>
<rscale>  0 0.15062202E+04</rscale>
<asrwt>0</asrwt>
<pdfrwt beam="1">  1        1 0.15890145E+00 0.15062202E+04</pdfrwt>
<pdfrwt beam="2">  1       -4 0.84481641E-01 0.15062202E+04</pdfrwt>
<totfact> 0.82273674E+00</totfact>
</mgrwt>
</event>
<event>
12    5  0.5197392E-008  0.1860221E+04  0.7818608E-02  0.8674914E-01
         -4   -1    0    0    0  501 -0.00000000000E+00  0.00000000000E+00  0.56887733676E+03  0.56887733676E+03  0.00000000000E+00 0.  1.
          1   -1    0    0  501    0  0.00000000000E+00 -0.00000000000E+00 -0.15207241267E+04  0.15207241267E+04  0.00000000000E+00 0. -1.
        -24    2    1    2    0    0  0.59073523373E+03  0.31717024281E+03 -0.22508666065E+02  0.67550449742E+03  0.78959525719E+02 0.  0.
        254    2    1    2    0    0 -0.59073523373E+03 -0.31717024281E+03 -0.92933812388E+03  0.14140969660E+04  0.82851421327E+03 0.  0.
         23    2    4    4    0    0 -0.47016050549E+03 -0.18456352430E+03 -0.54212996185E+02  0.51622003109E+03  0.91812178482E+02 0.  0.
         23    2    4    4    0    0 -0.12057472823E+03 -0.13260671852E+03 -0.87512512770E+03  0.89787693496E+03  0.90643225439E+02 0.  0.
          1    1    3    3  502    0  0.46356942153E+03  0.25657648312E+03 -0.49259211732E+02  0.53212270221E+03  0.00000000000E+00 0. -1.
         -2    1    3    3    0  502  0.12716581219E+03  0.60593759691E+02  0.26750545667E+02  0.14338179521E+03  0.00000000000E+00 0.  1.
         13    1    5    5    0    0 -0.32455028062E+03 -0.15020353961E+03 -0.15912539426E+01  0.35762622954E+03  0.00000000000E+00 0.  1.
        -13    1    5    5    0    0 -0.14561022487E+03 -0.34359984684E+02 -0.52621742243E+02  0.15859380155E+03  0.00000000000E+00 0. -1.
          4    1    6    6  503    0 -0.87224884310E+01 -0.46733854932E+02 -0.10951561733E+03  0.11938930203E+03  0.00000000000E+00 0. -1.
         -4    1    6    6    0  503 -0.11185223980E+03 -0.85872863584E+02 -0.76560951037E+03  0.77848763292E+03  0.00000000000E+00 0.  1.
<mgrwt>
<rscale>  0 0.18602209E+04</rscale>
<asrwt>0</asrwt>
<pdfrwt beam="1">  1        1 0.23395756E+00 0.18602209E+04</pdfrwt>
<pdfrwt beam="2">  1       -4 0.87519590E-01 0.18602209E+04</pdfrwt>
<totfact> 0.32874554E+00</totfact>
</mgrwt>
</event>
<event>
12    5  0.5197392E-008  0.1374123E+04  0.7818608E-02  0.8972765E-01
          1   -1    0    0  501    0  0.00000000000E+00  0.00000000000E+00  0.70387641503E+03  0.70387641503E+03  0.00000000000E+00 0. -1.
         -2   -1    0    0    0  501 -0.00000000000E+00 -0.00000000000E+00 -0.67064840958E+03  0.67064840958E+03  0.00000000000E+00 0.  1.
        -24    2    1    2    0    0  0.17983153215E+03  0.21963537016E+03  0.27495062007E+03  0.40410033914E+03  0.84381069205E+02 0.  0.
        254    2    1    2    0    0 -0.17983153215E+03 -0.21963537016E+03 -0.24172261462E+03  0.97042448546E+03  0.89594351596E+03 0.  0.
         23    2    4    4    0    0 -0.45023854232E+03 -0.27121367858E+03  0.76986643513E+02  0.53910771712E+03  0.91861759939E+02 0.  0.
         23    2    4    4    0    0  0.27040701017E+03  0.51578308424E+02 -0.31870925813E+03  0.43131676834E+03  0.93157342089E+02 0.  0.
          3    1    3    3  502    0  0.17723292729E+03  0.17325486653E+03  0.21390367952E+03  0.32738897875E+03  0.00000000000E+00 0. -1.
         -4    1    3    3    0  502  0.25986048616E+01  0.46380503624E+02  0.61046940546E+02  0.76711360395E+02  0.00000000000E+00 0.  1.
         13    1    5    5    0    0 -0.35656364877E+03 -0.24938895622E+03  0.82045413829E+02  0.44279107606E+03  0.00000000000E+00 0. -1.
        -13    1    5    5    0    0 -0.93674893552E+02 -0.21824722360E+02 -0.50587703160E+01  0.96316641061E+02  0.00000000000E+00 0.  1.
          1    1    6    6  503    0  0.10052660701E+03  0.65793853028E+02 -0.13187005445E+03  0.17839322037E+03  0.00000000000E+00 0. -1.
         -1    1    6    6    0  503  0.16988040316E+03 -0.14215544604E+02 -0.18683920368E+03  0.25292354797E+03  0.00000000000E+00 0.  1.
<mgrwt>
<rscale>  0 0.13741231E+04</rscale>
<asrwt>0</asrwt>
<pdfrwt beam="1">  1        1 0.10828868E+00 0.13741231E+04</pdfrwt>
<pdfrwt beam="2">  1       -2 0.10317668E+00 0.13741231E+04</pdfrwt>
<totfact> 0.17719013E+01</totfact>
</mgrwt>
</event>
<event>
12    5  0.5197392E-008  0.2429757E+04  0.7818608E-02  0.8428446E-01
         -2   -1    0    0    0  501 -0.00000000000E+00  0.00000000000E+00  0.72105530572E+03  0.72105530572E+03  0.00000000000E+00 0.  1.
          1   -1    0    0  501    0  0.00000000000E+00 -0.00000000000E+00 -0.20469016949E+04  0.20469016949E+04  0.00000000000E+00 0. -1.
        -24    2    1    2    0    0 -0.14888582196E+03 -0.16109581537E+03  0.59240120047E+03  0.63693950462E+03  0.81448760046E+02 0.  0.
        254    2    1    2    0    0  0.14888582196E+03  0.16109581537E+03 -0.19182475896E+04  0.21310174960E+04  0.90191069587E+03 0.  0.
         23    2    4    4    0    0  0.43255117393E+03  0.35964240785E+03 -0.11920368479E+04  0.13212780611E+04  0.91546099300E+02 0.  0.
         23    2    4    4    0    0 -0.28366535198E+03 -0.19854659248E+03 -0.72621074173E+03  0.80973943492E+03  0.91701307258E+02 0.  0.
          1    1    3    3  502    0 -0.94402051950E+02 -0.46693151719E+02  0.31031011725E+03  0.32769553964E+03  0.00000000000E+00 0. -1.
         -2    1    3    3    0  502 -0.54483770009E+02 -0.11440266365E+03  0.28209108322E+03  0.30924396498E+03  0.00000000000E+00 0.  1.
         13    1    5    5    0    0  0.26490695560E+03  0.20030305453E+03 -0.79844062047E+03  0.86475686364E+03  0.00000000000E+00 0.  1.
        -13    1    5    5    0    0  0.16764421833E+03  0.15933935332E+03 -0.39359622741E+03  0.45652119742E+03  0.00000000000E+00 0. -1.
          1    1    6    6  503    0 -0.73225031148E+02 -0.96813549061E+02 -0.30029558115E+03  0.32390153524E+03  0.00000000000E+00 0. -1.
         -1    1    6    6    0  503 -0.21044032083E+03 -0.10173304342E+03 -0.42591516058E+03  0.48583789968E+03  0.00000000000E+00 0.  1.
<mgrwt>
<rscale>  0 0.24297566E+04</rscale>
<asrwt>0</asrwt>
<pdfrwt beam="1">  1        1 0.31490795E+00 0.24297566E+04</pdfrwt>
<pdfrwt beam="2">  1       -2 0.11093159E+00 0.24297566E+04</pdfrwt>
<totfact> 0.14000132E+00</totfact>
</mgrwt>
</event>
<event>
12    5  0.5197392E-008  0.1752860E+04  0.7818608E-02  0.8731778E-01
         -4   -1    0    0    0  501 -0.00000000000E+00  0.00000000000E+00  0.10143818118E+04  0.10143818118E+04  0.00000000000E+00 0.  1.
          1   -1    0    0  501    0  0.00000000000E+00 -0.00000000000E+00 -0.75723887687E+03  0.75723887687E+03  0.00000000000E+00 0. -1.
        -24    2    1    2    0    0  0.61984147222E+03 -0.18224830297E+03  0.21856590612E+03  0.68642890188E+03  0.77431824168E+02 0.  0.
        254    2    1    2    0    0 -0.61984147222E+03  0.18224830297E+03  0.38577028813E+02  0.10851917868E+04  0.87105403526E+03 0.  0.
         23    2    4    4    0    0 -0.35307481360E+03 -0.32492486020E+03  0.10854672660E+03  0.50033024660E+03  0.91159064489E+02 0.  0.
         23    2    4    4    0    0 -0.26676665862E+03  0.50717316316E+03 -0.69969697788E+02  0.58486154019E+03  0.93692022058E+02 0.  0.
          3    1    3    3  502    0  0.21529050677E+03 -0.51533808666E+02  0.11219128330E+03  0.24817860462E+03  0.00000000000E+00 0. -1.
         -4    1    3    3    0  502  0.40455096546E+03 -0.13071449430E+03  0.10637462282E+03  0.43825029726E+03  0.00000000000E+00 0.  1.
         13    1    5    5    0    0 -0.15141138628E+03 -0.13798710803E+03  0.42132715716E+00  0.20485611388E+03  0.00000000000E+00 0. -1.
        -13    1    5    5    0    0 -0.20166342732E+03 -0.18693775216E+03  0.10812539944E+03  0.29547413272E+03  0.00000000000E+00 0.  1.
          1    1    6    6  503    0 -0.23606492394E+03  0.41875186939E+03 -0.25896934795E+02  0.48140464026E+03  0.00000000000E+00 0. -1.
         -1    1    6    6    0  503 -0.30701734688E+02  0.88421293770E+02 -0.44072762993E+02  0.10345689993E+03  0.00000000000E+00 0.  1.
<mgrwt>
<rscale>  0 0.17528598E+04</rscale>
<asrwt>0</asrwt>
<pdfrwt beam="1">  1        1 0.11649829E+00 0.17528598E+04</pdfrwt>
<pdfrwt beam="2">  1       -4 0.15605874E+00 0.17528598E+04</pdfrwt>
<totfact> 0.29522432E+00</totfact>
</mgrwt>
</event>
<event>
12    5  0.5197392E-008  0.1667472E+04  0.7818608E-02  0.8780137E-01
          1   -1    0    0  501    0  0.00000000000E+00  0.00000000000E+00  0.21136234378E+04  0.21136234378E+04  0.00000000000E+00 0. -1.
         -2   -1    0    0    0  501 -0.00000000000E+00 -0.00000000000E+00 -0.32887408277E+03  0.32887408277E+03  0.00000000000E+00 0.  1.
        -24    2    1    2    0    0  0.50160946451E+03  0.30481400507E+03  0.70725170335E+03  0.92233938420E+03  0.77339092252E+02 0.  0.
        254    2    1    2    0    0 -0.50160946451E+03 -0.30481400507E+03  0.10774976516E+04  0.15201581363E+04  0.89741625658E+03 0.  0.
         23    2    4    4    0    0 -0.37755728999E+03 -0.58409130245E+03  0.50451085151E+03  0.86430090186E+03  0.93662654494E+02 0.  0.
         23    2    4    4    0    0 -0.12405217452E+03  0.27927729738E+03  0.57298680013E+03  0.65585723446E+03  0.91924360410E+02 0.  0.
          1    1    3    3  502    0  0.37451513817E+03  0.19566054218E+03  0.53924444283E+03  0.68507605826E+03  0.00000000000E+00 0. -1.
         -2    1    3    3    0  502  0.12709432633E+03  0.10915346289E+03  0.16800726052E+03  0.23726332594E+03  0.00000000000E+00 0.  1.
         13    1    5    5    0    0 -0.30581406196E+03 -0.52682329197E+03  0.45215146575E+03  0.75862109741E+03  0.00000000000E+00 0.  1.
        -13    1    5    5    0    0 -0.71743228025E+02 -0.57268010486E+02  0.52359385757E+02  0.10567980445E+03  0.00000000000E+00 0. -1.
          1    1    6    6  503    0 -0.36354688707E+02  0.95861908446E+02  0.28863928515E+03  0.30630671852E+03  0.00000000000E+00 0. -1.
         -1    1    6    6    0  503 -0.87697485814E+02  0.18341538894E+03  0.28434751498E+03  0.34955051594E+03  0.00000000000E+00 0.  1.
<mgrwt>
<rscale>  0 0.16674723E+04</rscale>
<asrwt>0</asrwt>
<pdfrwt beam="1">  1        1 0.32517283E+00 0.16674723E+04</pdfrwt>
<pdfrwt beam="2">  1       -2 0.50596014E-01 0.16674723E+04</pdfrwt>
<totfact> 0.77240308E+00</totfact>
</mgrwt>
</event>
<event>
12    5  0.5238150E-008  0.2514184E+04  0.7818608E-02  0.8397950E-01
          1   -1    0    0  501    0  0.00000000000E+00  0.00000000000E+00  0.13630751510E+04  0.13630751510E+04  0.00000000000E+00 0. -1.
         -2   -1    0    0    0  501 -0.00000000000E+00 -0.00000000000E+00 -0.11593496553E+04  0.11593496553E+04  0.00000000000E+00 0.  1.
        -24    2    1    2    0    0 -0.50532838923E+02 -0.44932885604E+03 -0.90972926837E+03  0.10190561753E+04  0.80113406560E+02 0.  0.
        254    2    1    2    0    0  0.50532838923E+02  0.44932885604E+03  0.11134547641E+04  0.15033686311E+04  0.90326393742E+03 0.  0.
         23    2    4    4    0    0  0.35378545076E+03  0.18240971345E+03  0.98991021174E+03  0.10708726351E+04  0.91698006961E+02 0.  0.
         23    2    4    4    0    0 -0.30325261184E+03  0.26691914259E+03  0.12354455234E+03  0.43249599604E+03  0.92636682286E+02 0.  0.
          1    1    3    3  502    0  0.11074482656E+02 -0.10826275252E+02 -0.20695285503E+02  0.25848544330E+02  0.00000000000E+00 0. -1.
         -4    1    3    3    0  502 -0.61607321579E+02 -0.43850258078E+03 -0.88903398287E+03  0.99320763092E+03  0.00000000000E+00 0.  1.
         13    1    5    5    0    0  0.16369204347E+02  0.37959782716E+02  0.10727831421E+03  0.11496752869E+03  0.00000000000E+00 0. -1.
        -13    1    5    5    0    0  0.33741624642E+03  0.14444993073E+03  0.88263189754E+03  0.95590510637E+03  0.00000000000E+00 0.  1.
          4    1    6    6  503    0 -0.10900141529E+03  0.97834803883E+02 -0.90310737476E+00  0.14647106536E+03  0.00000000000E+00 0. -1.
         -4    1    6    6    0  503 -0.19425119656E+03  0.16908433871E+03  0.12444765971E+03  0.28602493067E+03  0.00000000000E+00 0.  1.
<mgrwt>
<rscale>  0 0.25141843E+04</rscale>
<asrwt>0</asrwt>
<pdfrwt beam="1">  1        1 0.20970387E+00 0.25141843E+04</pdfrwt>
<pdfrwt beam="2">  1       -2 0.17836149E+00 0.25141843E+04</pdfrwt>
<totfact> 0.11827066E+00</totfact>
</mgrwt>
</event>
<event>
12    5  0.5197392E-008  0.1385575E+04  0.7818608E-02  0.8964327E-01
         -2   -1    0    0    0  501 -0.00000000000E+00  0.00000000000E+00  0.35145735466E+03  0.35145735466E+03  0.00000000000E+00 0.  1.
          1   -1    0    0  501    0  0.00000000000E+00 -0.00000000000E+00 -0.13656115397E+04  0.13656115397E+04  0.00000000000E+00 0. -1.
        -24    2    1    2    0    0 -0.35411591940E+03 -0.73126270811E+02 -0.97369799199E+02  0.38259785822E+03  0.78451943654E+02 0.  0.
        254    2    1    2    0    0  0.35411591940E+03  0.73126270811E+02 -0.91678438586E+03  0.13344710362E+04  0.89976319127E+03 0.  0.
         23    2    4    4    0    0  0.37475139669E+03  0.29600861988E+02  0.24411303194E+02  0.38765036525E+03  0.91444374353E+02 0.  0.
         23    2    4    4    0    0 -0.20635477290E+02  0.43525408823E+02 -0.94119568905E+03  0.94682067092E+03  0.91103093526E+02 0.  0.
          1    1    3    3  502    0 -0.35331953715E+03 -0.69500905761E+02 -0.10416596197E+03  0.37485413012E+03  0.00000000000E+00 0. -1.
         -2    1    3    3    0  502 -0.79638224678E+00 -0.36253650501E+01  0.67961627724E+01  0.77437280982E+01  0.00000000000E+00 0.  1.
         13    1    5    5    0    0  0.11438019602E+03  0.39205880901E+02 -0.22288406528E+02  0.12295000368E+03  0.00000000000E+00 0. -1.
        -13    1    5    5    0    0  0.26037120067E+03 -0.96050189137E+01  0.46699709722E+02  0.26470036157E+03  0.00000000000E+00 0.  1.
          3    1    6    6  503    0  0.13403423390E+02 -0.84000401112E+01 -0.33963314548E+02  0.37466240371E+02  0.00000000000E+00 0. -1.
         -3    1    6    6    0  503 -0.34038900679E+02  0.51925448935E+02 -0.90723237451E+03  0.90935443055E+03  0.00000000000E+00 0.  1.
<mgrwt>
<rscale>  0 0.13855746E+04</rscale>
<asrwt>0</asrwt>
<pdfrwt beam="1">  1        1 0.21009409E+00 0.13855746E+04</pdfrwt>
<pdfrwt beam="2">  1       -2 0.54070361E-01 0.13855746E+04</pdfrwt>
<totfact> 0.22408351E+01</totfact>
</mgrwt>
</event>
<event>
12    5  0.5197392E-008  0.1286841E+04  0.7818608E-02  0.9040066E-01
         -2   -1    0    0    0  501 -0.00000000000E+00  0.00000000000E+00  0.22194700049E+03  0.22194700049E+03  0.00000000000E+00 0.  1.
          1   -1    0    0  501    0  0.00000000000E+00 -0.00000000000E+00 -0.18652639019E+04  0.18652639019E+04  0.00000000000E+00 0. -1.
        -24    2    1    2    0    0 -0.20717207406E+03 -0.62395840625E+02 -0.96666224274E+03  0.99368745791E+03  0.78519827237E+02 0.  0.
        254    2    1    2    0    0  0.20717207406E+03  0.62395840625E+02 -0.67665465870E+03  0.10935234445E+04  0.83133536394E+03 0.  0.
         23    2    4    4    0    0 -0.11694681554E+03 -0.18470301602E+03 -0.63028403132E+03  0.67344075333E+03  0.92047413441E+02 0.  0.
         23    2    4    4    0    0  0.32411888961E+03  0.24709885664E+03 -0.46370627381E+02  0.42008269117E+03  0.90599849784E+02 0.  0.
          3    1    3    3  502    0 -0.16614473249E+03 -0.17436868815E+02 -0.76561507307E+03  0.78362909379E+03  0.00000000000E+00 0. -1.
         -4    1    3    3    0  502 -0.41027341570E+02 -0.44958971810E+02 -0.20104716967E+03  0.21005836412E+03  0.00000000000E+00 0.  1.
         13    1    5    5    0    0  0.10232123039E+02 -0.96600700891E+01 -0.12353020138E+02  0.18724593521E+02  0.00000000000E+00 0. -1.
        -13    1    5    5    0    0 -0.12717893858E+03 -0.17504294593E+03 -0.61793101118E+03  0.65471615981E+03  0.00000000000E+00 0.  1.
          1    1    6    6  503    0  0.21907152793E+03  0.12106426566E+03 -0.27569374694E+01  0.25031278728E+03  0.00000000000E+00 0. -1.
         -1    1    6    6    0  503  0.10504736167E+03  0.12603459099E+03 -0.43613689911E+02  0.16976990389E+03  0.00000000000E+00 0.  1.
<mgrwt>
<rscale>  0 0.12868407E+04</rscale>
<asrwt>0</asrwt>
<pdfrwt beam="1">  1        1 0.28696368E+00 0.12868407E+04</pdfrwt>
<pdfrwt beam="2">  1       -2 0.34145692E-01 0.12868407E+04</pdfrwt>
<totfact> 0.25524353E+01</totfact>
</mgrwt>
</event>
<event>
12    5  0.5197392E-008  0.1184811E+04  0.7818608E-02  0.9126256E-01
         -2   -1    0    0    0  501 -0.00000000000E+00  0.00000000000E+00  0.73956345036E+03  0.73956345036E+03  0.00000000000E+00 0.  1.
          1   -1    0    0  501    0  0.00000000000E+00 -0.00000000000E+00 -0.47452878678E+03  0.47452878678E+03  0.00000000000E+00 0. -1.
        -24    2    1    2    0    0 -0.12880146856E+02  0.16089082587E+03  0.21455538958E+03  0.28034559631E+03  0.80671445646E+02 0.  0.
        254    2    1    2    0    0  0.12880146856E+02 -0.16089082587E+03  0.50479274002E+02  0.93374664083E+03  0.91830434831E+03 0.  0.
         23    2    4    4    0    0 -0.27496280864E+03  0.27433681363E+03  0.60927470199E+02  0.40394367277E+03  0.92698978964E+02 0.  0.
         23    2    4    4    0    0  0.28784295550E+03 -0.43522763950E+03 -0.10448196197E+02  0.52980296806E+03  0.91133720104E+02 0.  0.
          1    1    3    3  502    0 -0.12340607317E+02  0.10375915935E+02 -0.23903795057E+01  0.16299206564E+02  0.00000000000E+00 0. -1.
         -2    1    3    3    0  502 -0.53953953904E+00  0.15051490994E+03  0.21694576908E+03  0.26404638975E+03  0.00000000000E+00 0.  1.
         13    1    5    5    0    0 -0.90600949166E+01  0.10799831103E+02 -0.16442607067E+02  0.21658277838E+02  0.00000000000E+00 0.  1.
        -13    1    5    5    0    0 -0.26590271373E+03  0.26353698252E+03  0.77370077266E+02  0.38228539494E+03  0.00000000000E+00 0. -1.
          1    1    6    6  503    0  0.23905156631E+03 -0.36179280088E+03  0.25967655808E+02  0.43441224807E+03  0.00000000000E+00 0. -1.
         -1    1    6    6    0  503  0.48791389192E+02 -0.73434838622E+02 -0.36415852005E+02  0.95390719989E+02  0.00000000000E+00 0.  1.
<mgrwt>
<rscale>  0 0.11848108E+04</rscale>
<asrwt>0</asrwt>
<pdfrwt beam="1">  1        1 0.73004429E-01 0.11848108E+04</pdfrwt>
<pdfrwt beam="2">  1       -2 0.11377899E+00 0.11848108E+04</pdfrwt>
<totfact> 0.24965653E+01</totfact>
</mgrwt>
</event>
<event>
12    5  0.5197392E-008  0.1369778E+04  0.7818608E-02  0.8975990E-01
         -2   -1    0    0    0  501 -0.00000000000E+00  0.00000000000E+00  0.29599314939E+03  0.29599314939E+03  0.00000000000E+00 0.  1.
          1   -1    0    0  501    0  0.00000000000E+00 -0.00000000000E+00 -0.15847432072E+04  0.15847432072E+04  0.00000000000E+00 0. -1.
        -24    2    1    2    0    0  0.34025558125E+03 -0.11074566851E+03 -0.18214903596E+03  0.40930800053E+03  0.79475180569E+02 0.  0.
        254    2    1    2    0    0 -0.34025558125E+03  0.11074566851E+03 -0.11066010219E+04  0.14714283561E+04  0.90138622233E+03 0.  0.
         23    2    4    4    0    0 -0.28176367608E+03  0.27761725409E+03 -0.65812348783E+02  0.41137898724E+03  0.91865646307E+02 0.  0.
         23    2    4    4    0    0 -0.58491905176E+02 -0.16687158557E+03 -0.10407886731E+04  0.10600493688E+04  0.95896680329E+02 0.  0.
          3    1    3    3  502    0  0.49572288400E+02 -0.41147357229E+02 -0.54134048717E+02  0.84148749335E+02  0.00000000000E+00 0. -1.
         -4    1    3    3    0  502  0.29068329285E+03 -0.69598311286E+02 -0.12801498724E+03  0.32515925119E+03  0.00000000000E+00 0.  1.
         13    1    5    5    0    0 -0.21123401016E+03  0.21419107533E+03 -0.93117275105E+01  0.30097231113E+03  0.00000000000E+00 0. -1.
        -13    1    5    5    0    0 -0.70529665922E+02  0.63426178755E+02 -0.56500621273E+02  0.11040667612E+03  0.00000000000E+00 0.  1.
          1    1    6    6  503    0 -0.82566903625E+02 -0.11433815944E+03 -0.80655543447E+03  0.81879312231E+03  0.00000000000E+00 0. -1.
         -1    1    6    6    0  503  0.24074998450E+02 -0.52533426130E+02 -0.23423323863E+03  0.24125624653E+03  0.00000000000E+00 0.  1.
<mgrwt>
<rscale>  0 0.13697783E+04</rscale>
<asrwt>0</asrwt>
<pdfrwt beam="1">  1        1 0.24380665E+00 0.13697783E+04</pdfrwt>
<pdfrwt beam="2">  1       -2 0.45537407E-01 0.13697783E+04</pdfrwt>
<totfact> 0.22421878E+01</totfact>
</mgrwt>
</event>
<event>
12    5  0.5197392E-008  0.1264499E+04  0.7818608E-02  0.9058201E-01
         -2   -1    0    0    0  501 -0.00000000000E+00  0.00000000000E+00  0.21851977165E+03  0.21851977165E+03  0.00000000000E+00 0.  1.
          1   -1    0    0  501    0  0.00000000000E+00 -0.00000000000E+00 -0.18293061679E+04  0.18293061679E+04  0.00000000000E+00 0. -1.
        -24    2    1    2    0    0  0.18259904543E+02  0.61128670453E+02 -0.88701522052E+03  0.89299061623E+03  0.81031480140E+02 0.  0.
        254    2    1    2    0    0 -0.18259904543E+02 -0.61128670453E+02 -0.72377117568E+03  0.11548353233E+04  0.89762451541E+03 0.  0.
         23    2    4    4    0    0  0.18522455425E+03  0.11024523458E+03 -0.82375538265E+03  0.85639462625E+03  0.91524194439E+02 0.  0.
         23    2    4    4    0    0 -0.20348445880E+03 -0.17137390503E+03  0.99984206970E+02  0.29844069703E+03  0.91077262258E+02 0.  0.
          1    1    3    3  502    0 -0.95639912422E+00  0.39652427920E+02 -0.80647615969E+03  0.80745094333E+03  0.00000000000E+00 0. -1.
         -4    1    3    3    0  502  0.19216303667E+02  0.21476242533E+02 -0.80539060833E+02  0.85539672900E+02  0.00000000000E+00 0.  1.
         13    1    5    5    0    0  0.59245696731E+01 -0.57959889317E+01 -0.38676779045E+01  0.91461984387E+01  0.00000000000E+00 0. -1.
        -13    1    5    5    0    0  0.17929998458E+03  0.11604122351E+03 -0.81988770475E+03  0.84724842781E+03  0.00000000000E+00 0.  1.
          1    1    6    6  503    0 -0.39410336519E+02 -0.57697191533E+02 -0.99272009815E+01  0.70574002683E+02  0.00000000000E+00 0. -1.
         -1    1    6    6    0  503 -0.16407412228E+03 -0.11367671350E+03  0.10991140795E+03  0.22786669434E+03  0.00000000000E+00 0.  1.
<mgrwt>
<rscale>  0 0.12644992E+04</rscale>
<asrwt>0</asrwt>
<pdfrwt beam="1">  1        1 0.28143171E+00 0.12644992E+04</pdfrwt>
<pdfrwt beam="2">  1       -2 0.33618428E-01 0.12644992E+04</pdfrwt>
<totfact> 0.27856550E+01</totfact>
</mgrwt>
</event>
<event>
12    5  0.5197392E-008  0.1906401E+04  0.7818608E-02  0.8651677E-01
          1   -1    0    0  501    0  0.00000000000E+00  0.00000000000E+00  0.34446972685E+04  0.34446972685E+04  0.00000000000E+00 0. -1.
         -2   -1    0    0    0  501 -0.00000000000E+00 -0.00000000000E+00 -0.26376524839E+03  0.26376524839E+03  0.00000000000E+00 0.  1.
        -24    2    1    2    0    0 -0.66162028884E+03 -0.21004340711E+03  0.17375088286E+04  0.18726872253E+04  0.78491240180E+02 0.  0.
        254    2    1    2    0    0  0.66162028884E+03  0.21004340711E+03  0.14434231915E+04  0.18357752916E+04  0.89707344849E+03 0.  0.
         23    2    4    4    0    0  0.35880212817E+03  0.28077540764E+03  0.12904937486E+03  0.48202025065E+03  0.90088757189E+02 0.  0.
         23    2    4    4    0    0  0.30281816068E+03 -0.70732000536E+02  0.13143738167E+04  0.13537550410E+04  0.91500418905E+02 0.  0.
          1    1    3    3  502    0 -0.54470791293E+03 -0.15270954612E+03  0.14721168867E+04  0.15770716674E+04  0.00000000000E+00 0. -1.
         -2    1    3    3    0  502 -0.11691237591E+03 -0.57333860986E+02  0.26539194185E+03  0.29561555787E+03  0.00000000000E+00 0.  1.
         13    1    5    5    0    0  0.45382910743E+02  0.71103034677E+01  0.28161825956E+02  0.53881847073E+02  0.00000000000E+00 0. -1.
        -13    1    5    5    0    0  0.31341921743E+03  0.27366510418E+03  0.10088754890E+03  0.42813840358E+03  0.00000000000E+00 0.  1.
          4    1    6    6  503    0  0.24137466276E+03 -0.33540367974E+02  0.86477701840E+03  0.89845755362E+03  0.00000000000E+00 0.  1.
         -4    1    6    6    0  503  0.61443497917E+02 -0.37191632561E+02  0.44959679825E+03  0.45529748733E+03  0.00000000000E+00 0. -1.
<mgrwt>
<rscale>  0 0.19064012E+04</rscale>
<asrwt>0</asrwt>
<pdfrwt beam="1">  1        1 0.52995340E+00 0.19064012E+04</pdfrwt>
<pdfrwt beam="2">  1       -2 0.40579271E-01 0.19064012E+04</pdfrwt>
<totfact> 0.13108870E+00</totfact>
</mgrwt>
</event>
<event>
12    5  0.5197392E-008  0.2049878E+04  0.7818608E-02  0.8583650E-01
          3   -1    0    0  501    0  0.00000000000E+00  0.00000000000E+00  0.86107363619E+03  0.86107363619E+03  0.00000000000E+00 0. -1.
         -4   -1    0    0    0  501 -0.00000000000E+00 -0.00000000000E+00 -0.12199889961E+04  0.12199889961E+04  0.00000000000E+00 0.  1.
        -24    2    1    2    0    0 -0.57198040495E+03  0.12460667411E+03 -0.73976621921E+03  0.94668833300E+03  0.79223316595E+02 0.  0.
        254    2    1    2    0    0  0.57198040495E+03 -0.12460667411E+03  0.38085085926E+03  0.11343742993E+04  0.89390674408E+03 0.  0.
         23    2    4    4    0    0  0.80138317118E+03 -0.12210081440E+03  0.24127081398E+03  0.85047236797E+03  0.89263918078E+02 0.  0.
         23    2    4    4    0    0 -0.22940276624E+03 -0.25058597156E+01  0.13958004528E+03  0.28390193136E+03  0.92118451464E+02 0.  0.
          1    1    3    3  502    0 -0.15908804003E+03  0.25890682521E+01 -0.17483794594E+03  0.23639800146E+03  0.00000000000E+00 0. -1.
         -2    1    3    3    0  502 -0.41289236491E+03  0.12201760586E+03 -0.56492827327E+03  0.71029033154E+03  0.00000000000E+00 0.  1.
         13    1    5    5    0    0  0.10922053021E+02 -0.53847016163E+01 -0.66341253892E+01  0.13867150875E+02  0.00000000000E+00 0.  1.
        -13    1    5    5    0    0  0.79046111816E+03 -0.11671611278E+03  0.24790493937E+03  0.83660521710E+03  0.00000000000E+00 0. -1.
          4    1    6    6  503    0 -0.54692035278E+02  0.18177472289E+02  0.79092047104E+02  0.97863124499E+02  0.00000000000E+00 0. -1.
         -4    1    6    6    0  503 -0.17471073096E+03 -0.20683332005E+02  0.60487998172E+02  0.18603880686E+03  0.00000000000E+00 0.  1.
<mgrwt>
<rscale>  0 0.20498784E+04</rscale>
<asrwt>0</asrwt>
<pdfrwt beam="1">  1        3 0.13247287E+00 0.20498784E+04</pdfrwt>
<pdfrwt beam="2">  1       -4 0.18769061E+00 0.20498784E+04</pdfrwt>
<totfact> 0.14934188E-01</totfact>
</mgrwt>
</event>
<event>
12    5  0.5197392E-008  0.2228070E+04  0.7818608E-02  0.8506835E-01
          1   -1    0    0  501    0  0.00000000000E+00  0.00000000000E+00  0.12713667219E+04  0.12713667219E+04  0.00000000000E+00 0. -1.
         -2   -1    0    0    0  501 -0.00000000000E+00 -0.00000000000E+00 -0.97617282340E+03  0.97617282340E+03  0.00000000000E+00 0.  1.
        -24    2    1    2    0    0 -0.71697055324E+03 -0.47667887838E+02 -0.47108564028E+03  0.86289937168E+03  0.79716017305E+02 0.  0.
        254    2    1    2    0    0  0.71697055324E+03  0.47667887838E+02  0.76627953879E+03  0.13846401736E+04  0.90206711343E+03 0.  0.
         23    2    4    4    0    0  0.68731541942E+03  0.17247327323E+02  0.90323039087E+02  0.70109343878E+03  0.10331409602E+03 0.  0.
         23    2    4    4    0    0  0.29655133817E+02  0.30420560515E+02  0.67595649971E+03  0.68354673486E+03  0.92271944689E+02 0.  0.
          1    1    3    3  502    0 -0.19695523637E+03 -0.46321836259E+02 -0.11613807487E+03  0.23329194174E+03  0.00000000000E+00 0. -1.
         -2    1    3    3    0  502 -0.52001531687E+03 -0.13460515789E+01 -0.35494756542E+03  0.62960742994E+03  0.00000000000E+00 0.  1.
         13    1    5    5    0    0  0.42786838755E+03 -0.39410809596E+02  0.54017570971E+02  0.43306173572E+03  0.00000000000E+00 0.  1.
        -13    1    5    5    0    0  0.25944703188E+03  0.56658136919E+02  0.36305468115E+02  0.26803170306E+03  0.00000000000E+00 0. -1.
          2    1    6    6  503    0  0.17116163976E+02  0.62511430852E+01  0.20119236715E+02  0.27144493826E+02  0.00000000000E+00 0. -1.
         -2    1    6    6    0  503  0.12538969842E+02  0.24169417430E+02  0.65583726299E+03  0.65640224103E+03  0.00000000000E+00 0.  1.
<mgrwt>
<rscale>  0 0.22280697E+04</rscale>
<asrwt>0</asrwt>
<pdfrwt beam="1">  1        1 0.19559488E+00 0.22280697E+04</pdfrwt>
<pdfrwt beam="2">  1       -2 0.15018043E+00 0.22280697E+04</pdfrwt>
<totfact> 0.22605718E+00</totfact>
</mgrwt>
</event>
<event>
12    5  0.5197392E-008  0.2415394E+04  0.7818608E-02  0.8433763E-01
         -4   -1    0    0    0  501 -0.00000000000E+00  0.00000000000E+00  0.20958313115E+04  0.20958313115E+04  0.00000000000E+00 0.  1.
          1   -1    0    0  501    0  0.00000000000E+00 -0.00000000000E+00 -0.69592061188E+03  0.69592061188E+03  0.00000000000E+00 0. -1.
        -24    2    1    2    0    0  0.91568267971E+03  0.22785930434E+03  0.10853007225E+04  0.14402763881E+04  0.78254606290E+02 0.  0.
        254    2    1    2    0    0 -0.91568267971E+03 -0.22785930434E+03  0.31460997709E+03  0.13514755352E+04  0.91493827779E+03 0.  0.
         23    2    4    4    0    0 -0.94396764203E+03 -0.19699358010E+03  0.53776516552E+03  0.11078982862E+04  0.91465072108E+02 0.  0.
         23    2    4    4    0    0  0.28284962314E+02 -0.30865724238E+02 -0.22315518843E+03  0.24357724909E+03  0.88198107249E+02 0.  0.
          1    1    3    3  502    0  0.30128685272E+03  0.11189688765E+03  0.35424993470E+03  0.47831756953E+03  0.00000000000E+00 0. -1.
         -2    1    3    3    0  502  0.61439582699E+03  0.11596241670E+03  0.73105078779E+03  0.96195881858E+03  0.00000000000E+00 0.  1.
         13    1    5    5    0    0 -0.51543033144E+03 -0.60969339262E+02  0.28868001429E+03  0.59390389588E+03  0.00000000000E+00 0. -1.
        -13    1    5    5    0    0 -0.42853731059E+03 -0.13602424084E+03  0.24908515123E+03  0.51399439027E+03  0.00000000000E+00 0.  1.
          3    1    6    6  503    0  0.29282908443E+02 -0.30705753404E+02 -0.33874262035E+02  0.54293624371E+02  0.00000000000E+00 0. -1.
         -3    1    6    6    0  503 -0.99794612847E+00 -0.15997083364E+00 -0.18928092640E+03  0.18928362472E+03  0.00000000000E+00 0.  1.
<mgrwt>
<rscale>  0 0.24153941E+04</rscale>
<asrwt>0</asrwt>
<pdfrwt beam="1">  1        1 0.10706471E+00 0.24153941E+04</pdfrwt>
<pdfrwt beam="2">  1       -4 0.32243558E+00 0.24153941E+04</pdfrwt>
<totfact> 0.26227859E-01</totfact>
</mgrwt>
</event>
<event>
12    5  0.5197392E-008  0.1738481E+04  0.7818608E-02  0.8739716E-01
          1   -1    0    0  501    0  0.00000000000E+00  0.00000000000E+00  0.52086749124E+03  0.52086749124E+03  0.00000000000E+00 0. -1.
         -2   -1    0    0    0  501 -0.00000000000E+00 -0.00000000000E+00 -0.14506172861E+04  0.14506172861E+04  0.00000000000E+00 0.  1.
        -24    2    1    2    0    0  0.43154346677E+03  0.14528329197E+03 -0.81868211753E+03  0.93987887993E+03  0.76124245384E+02 0.  0.
        254    2    1    2    0    0 -0.43154346677E+03 -0.14528329197E+03 -0.11106767737E+03  0.10316058975E+04  0.91898732314E+03 0.  0.
         23    2    4    4    0    0  0.24328565930E+02  0.33252615887E+03  0.43903929663E+02  0.34758643332E+03  0.87882012601E+02 0.  0.
         23    2    4    4    0    0 -0.45587203270E+03 -0.47780945084E+03 -0.15497160703E+03  0.68401946414E+03  0.88007084002E+02 0.  0.
          3    1    3    3  502    0  0.83084512971E+02  0.58259839333E+02 -0.15539026354E+03  0.18558927549E+03  0.00000000000E+00 0. -1.
         -4    1    3    3    0  502  0.34845895379E+03  0.87023452637E+02 -0.66329185399E+03  0.75428960443E+03  0.00000000000E+00 0.  1.
         13    1    5    5    0    0 -0.25409191032E+01  0.76946015354E+02  0.47704478563E+02  0.90569657302E+02  0.00000000000E+00 0.  1.
        -13    1    5    5    0    0  0.26869485033E+02  0.25558014351E+03 -0.38005489001E+01  0.25701677602E+03  0.00000000000E+00 0. -1.
          4    1    6    6  503    0 -0.11766585398E+02 -0.23733173515E+02 -0.23487864266E+02  0.35403330702E+02  0.00000000000E+00 0.  1.
         -4    1    6    6    0  503 -0.44410544730E+03 -0.45407627732E+03 -0.13148374277E+03  0.64861613344E+03  0.00000000000E+00 0. -1.
<mgrwt>
<rscale>  0 0.17384814E+04</rscale>
<asrwt>0</asrwt>
<pdfrwt beam="1">  1        1 0.80133459E-01 0.17384814E+04</pdfrwt>
<pdfrwt beam="2">  1       -2 0.22317189E+00 0.17384814E+04</pdfrwt>
<totfact> 0.32780380E+00</totfact>
</mgrwt>
</event>
<event>
12    5  0.5197392E-008  0.1758114E+04  0.7818608E-02  0.8728897E-01
         -2   -1    0    0    0  501 -0.00000000000E+00  0.00000000000E+00  0.35873894815E+03  0.35873894815E+03  0.00000000000E+00 0.  1.
          1   -1    0    0  501    0  0.00000000000E+00 -0.00000000000E+00 -0.21540479465E+04  0.21540479465E+04  0.00000000000E+00 0. -1.
        -24    2    1    2    0    0  0.16565488823E+03  0.55622440654E+03 -0.43498420048E+03  0.72959536485E+03  0.79189704589E+02 0.  0.
        254    2    1    2    0    0 -0.16565488823E+03 -0.55622440654E+03 -0.13603247978E+04  0.17831915298E+04  0.99622354109E+03 0.  0.
         23    2    4    4    0    0  0.37679721721E+03 -0.44165766322E+02 -0.58753311420E+03  0.70536796201E+03  0.91771693561E+02 0.  0.
         23    2    4    4    0    0 -0.54245210544E+03 -0.51205864022E+03 -0.77279168363E+03  0.10778235678E+04  0.89656674045E+02 0.  0.
          1    1    3    3  502    0  0.12421720753E+03  0.30930779461E+03 -0.27842694540E+03  0.43430725343E+03  0.00000000000E+00 0. -1.
         -2    1    3    3    0  502  0.41437680699E+02  0.24691661193E+03 -0.15655725509E+03  0.29528811142E+03  0.00000000000E+00 0.  1.
         13    1    5    5    0    0  0.15814350186E+03 -0.21368674893E+02 -0.16790988610E+03  0.23164567187E+03  0.00000000000E+00 0. -1.
        -13    1    5    5    0    0  0.21865371535E+03 -0.22797091430E+02 -0.41962322810E+03  0.47372229014E+03  0.00000000000E+00 0.  1.
          4    1    6    6  503    0 -0.53680343046E+03 -0.48514573047E+03 -0.73868196283E+03  0.10340093544E+04  0.00000000000E+00 0.  1.
         -4    1    6    6    0  503 -0.56486749811E+01 -0.26912909748E+02 -0.34109720792E+02  0.43814213363E+02  0.00000000000E+00 0. -1.
<mgrwt>
<rscale>  0 0.17581136E+04</rscale>
<asrwt>0</asrwt>
<pdfrwt beam="1">  1        1 0.33139199E+00 0.17581136E+04</pdfrwt>
<pdfrwt beam="2">  1       -2 0.55190607E-01 0.17581136E+04</pdfrwt>
<totfact> 0.60123905E+00</totfact>
</mgrwt>
</event>
<event>
12    5  0.5197392E-008  0.1410697E+04  0.7818608E-02  0.8946112E-01
         -2   -1    0    0    0  501 -0.00000000000E+00  0.00000000000E+00  0.29102822219E+03  0.29102822219E+03  0.00000000000E+00 0.  1.
          1   -1    0    0  501    0  0.00000000000E+00 -0.00000000000E+00 -0.17095136176E+04  0.17095136176E+04  0.00000000000E+00 0. -1.
        -24    2    1    2    0    0  0.64208082754E+02 -0.39053619557E+03 -0.25639954828E+03  0.47798031965E+03  0.77995254184E+02 0.  0.
        254    2    1    2    0    0 -0.64208082754E+02  0.39053619557E+03 -0.11620858471E+04  0.15225615201E+04  0.90061582740E+03 0.  0.
         23    2    4    4    0    0 -0.49714438294E+02  0.60518871020E+03 -0.41876032405E+03  0.74336795409E+03  0.92254028818E+02 0.  0.
         23    2    4    4    0    0 -0.14493644460E+02 -0.21465251463E+03 -0.74332552306E+03  0.77919356603E+03  0.91236025516E+02 0.  0.
          3    1    3    3  502    0 -0.72983156970E+01 -0.36522550728E+02 -0.48848443397E+02  0.61427457590E+02  0.00000000000E+00 0. -1.
         -4    1    3    3    0  502  0.71506398451E+02 -0.35401364484E+03 -0.20755110489E+03  0.41655286206E+03  0.00000000000E+00 0.  1.
         13    1    5    5    0    0 -0.11556064539E+02  0.28051485514E+02 -0.46527085206E+02  0.55544559814E+02  0.00000000000E+00 0.  1.
        -13    1    5    5    0    0 -0.38158373755E+02  0.57713722469E+03 -0.37223323885E+03  0.68782339428E+03  0.00000000000E+00 0. -1.
          1    1    6    6  503    0  0.23486742264E+02 -0.17298614609E+03 -0.50617244089E+03  0.53543101677E+03  0.00000000000E+00 0. -1.
         -1    1    6    6    0  503 -0.37980386724E+02 -0.41666368548E+02 -0.23715308217E+03  0.24376254926E+03  0.00000000000E+00 0.  1.
<mgrwt>
<rscale>  0 0.14106973E+04</rscale>
<asrwt>0</asrwt>
<pdfrwt beam="1">  1        1 0.26300210E+00 0.14106973E+04</pdfrwt>
<pdfrwt beam="2">  1       -2 0.44773572E-01 0.14106973E+04</pdfrwt>
<totfact> 0.18995969E+01</totfact>
</mgrwt>
</event>
<event>
12    5  0.5197392E-008  0.1520878E+04  0.7818608E-02  0.8870687E-01
          1   -1    0    0  501    0  0.00000000000E+00  0.00000000000E+00  0.84136410765E+03  0.84136410765E+03  0.00000000000E+00 0. -1.
         -2   -1    0    0    0  501 -0.00000000000E+00 -0.00000000000E+00 -0.68729767139E+03  0.68729767139E+03  0.00000000000E+00 0.  1.
        -24    2    1    2    0    0  0.11230141182E+03 -0.16491945673E+03  0.50305314221E+03  0.54704154137E+03  0.79887106555E+02 0.  0.
        254    2    1    2    0    0 -0.11230141182E+03  0.16491945673E+03 -0.34898670595E+03  0.98162023767E+03  0.89553142645E+03 0.  0.
         23    2    4    4    0    0 -0.38691908676E+03 -0.18193823013E+03 -0.29190783211E+03  0.52575451375E+03  0.91650024534E+02 0.  0.
         23    2    4    4    0    0  0.27461767495E+03  0.34685768687E+03 -0.57078873844E+02  0.45586572392E+03  0.93970410626E+02 0.  0.
          3    1    3    3  502    0  0.10633708457E+03 -0.89138911575E+02  0.33473775714E+03  0.36235712655E+03  0.00000000000E+00 0. -1.
         -4    1    3    3    0  502  0.59643272461E+01 -0.75780545160E+02  0.16831538507E+03  0.18468441482E+03  0.00000000000E+00 0.  1.
         13    1    5    5    0    0 -0.22902940834E+03 -0.66556889156E+02 -0.19183929272E+03  0.30608267447E+03  0.00000000000E+00 0. -1.
        -13    1    5    5    0    0 -0.15788967842E+03 -0.11538134098E+03 -0.10006853939E+03  0.21967183928E+03  0.00000000000E+00 0.  1.
          4    1    6    6  503    0  0.19598518240E+03  0.30564731708E+03 -0.53608222096E+02  0.36702086540E+03  0.00000000000E+00 0. -1.
         -4    1    6    6    0  503  0.78632492552E+02  0.41210369783E+02 -0.34706517478E+01  0.88844858524E+02  0.00000000000E+00 0.  1.
<mgrwt>
<rscale>  0 0.15208782E+04</rscale>
<asrwt>0</asrwt>
<pdfrwt beam="1">  1        1 0.12944063E+00 0.15208782E+04</pdfrwt>
<pdfrwt beam="2">  1       -2 0.10573810E+00 0.15208782E+04</pdfrwt>
<totfact> 0.12456872E+01</totfact>
</mgrwt>
</event>
<event>
12    5  0.5197392E-008  0.2472400E+04  0.7818608E-02  0.8412885E-01
          1   -1    0    0  501    0  0.00000000000E+00  0.00000000000E+00  0.92476541755E+03  0.92476541755E+03  0.00000000000E+00 0. -1.
         -2   -1    0    0    0  501 -0.00000000000E+00 -0.00000000000E+00 -0.16525165200E+04  0.16525165200E+04  0.00000000000E+00 0.  1.
        -24    2    1    2    0    0  0.77904961206E+03 -0.66909867012E+03 -0.63244797481E+03  0.12088652633E+04  0.82179410228E+02 0.  0.
        254    2    1    2    0    0 -0.77904961206E+03  0.66909867012E+03 -0.95303127640E+02  0.13684166743E+04  0.89937210316E+03 0.  0.
         23    2    4    4    0    0  0.10797535873E+03  0.14881861130E+03  0.20736320909E+03  0.29247057219E+03  0.93455218969E+02 0.  0.
         23    2    4    4    0    0 -0.88702497079E+03  0.52028005882E+03 -0.30266633673E+03  0.10759461021E+04  0.92457908404E+02 0.  0.
          3    1    3    3  502    0  0.22593013715E+03 -0.22744945270E+03 -0.16424613239E+03  0.36021448112E+03  0.00000000000E+00 0. -1.
         -4    1    3    3    0  502  0.55311947491E+03 -0.44164921741E+03 -0.46820184242E+03  0.84865078213E+03  0.00000000000E+00 0.  1.
         13    1    5    5    0    0  0.77115545997E+02  0.11911337987E+03  0.20532808830E+03  0.24958851845E+03  0.00000000000E+00 0. -1.
        -13    1    5    5    0    0  0.30859812736E+02  0.29705231426E+02  0.20351207883E+01  0.42882053738E+02  0.00000000000E+00 0.  1.
          3    1    6    6  503    0 -0.83568212966E+03  0.48678325844E+03 -0.30648882109E+03  0.10145235138E+04  0.00000000000E+00 0. -1.
         -3    1    6    6    0  503 -0.51342841139E+02  0.33496800375E+02  0.38224843638E+01  0.61422588339E+02  0.00000000000E+00 0.  1.
<mgrwt>
<rscale>  0 0.24723997E+04</rscale>
<asrwt>0</asrwt>
<pdfrwt beam="1">  1        1 0.14227160E+00 0.24723997E+04</pdfrwt>
<pdfrwt beam="2">  1       -2 0.25423331E+00 0.24723997E+04</pdfrwt>
<totfact> 0.82088500E-01</totfact>
</mgrwt>
</event>
<event>
12    5  0.5197392E-008  0.3671048E+04  0.7818608E-02  0.8074408E-01
         -4   -1    0    0    0  501 -0.00000000000E+00  0.00000000000E+00  0.20077559366E+04  0.20077559366E+04  0.00000000000E+00 0.  1.
          1   -1    0    0  501    0  0.00000000000E+00 -0.00000000000E+00 -0.16780662308E+04  0.16780662308E+04  0.00000000000E+00 0. -1.
        -24    2    1    2    0    0  0.54598832805E+03  0.36794003520E+03 -0.14462603806E+04  0.15910751990E+04  0.79800228129E+02 0.  0.
        254    2    1    2    0    0 -0.54598832805E+03 -0.36794003520E+03  0.17759500865E+04  0.20947469684E+04  0.89469717123E+03 0.  0.
         23    2    4    4    0    0 -0.21125855578E+03 -0.41625926806E+03  0.26714459207E+03  0.54579610541E+03  0.92871954723E+02 0.  0.
         23    2    4    4    0    0 -0.33472977227E+03  0.48319232858E+02  0.15088054944E+04  0.15489508630E+04  0.91520420565E+02 0.  0.
          3    1    3    3  502    0  0.40724581291E+03  0.27927700115E+03 -0.11619882709E+04  0.12625614984E+04  0.00000000000E+00 0. -1.
         -4    1    3    3    0  502  0.13874251514E+03  0.88663034056E+02 -0.28427210968E+03  0.32851370056E+03  0.00000000000E+00 0.  1.
         13    1    5    5    0    0 -0.18671233962E+03 -0.28258635283E+03  0.20885380240E+03  0.39791513586E+03  0.00000000000E+00 0. -1.
        -13    1    5    5    0    0 -0.24546216155E+02 -0.13367291523E+03  0.58290789678E+02  0.14788096955E+03  0.00000000000E+00 0.  1.
          1    1    6    6  503    0 -0.24889666496E+02  0.30813223041E+02  0.14812684899E+03  0.15333138493E+03  0.00000000000E+00 0. -1.
         -1    1    6    6    0  503 -0.30984010577E+03  0.17506009817E+02  0.13606786454E+04  0.13956194781E+04  0.00000000000E+00 0.  1.
<mgrwt>
<rscale>  0 0.36710475E+04</rscale>
<asrwt>0</asrwt>
<pdfrwt beam="1">  1        1 0.25816404E+00 0.36710475E+04</pdfrwt>
<pdfrwt beam="2">  1       -4 0.30888553E+00 0.36710475E+04</pdfrwt>
<totfact> 0.51899766E-02</totfact>
</mgrwt>
</event>
<event>
12    5  0.5197392E-008  0.1269212E+04  0.7818608E-02  0.9054343E-01
         -2   -1    0    0    0  501 -0.00000000000E+00  0.00000000000E+00  0.19980056385E+03  0.19980056385E+03  0.00000000000E+00 0.  1.
          1   -1    0    0  501    0  0.00000000000E+00 -0.00000000000E+00 -0.20156336238E+04  0.20156336238E+04  0.00000000000E+00 0. -1.
        -24    2    1    2    0    0 -0.70415792116E+02  0.21660533512E+03 -0.86065722649E+02  0.25602888580E+03  0.79165818174E+02 0.  0.
        254    2    1    2    0    0  0.70415792116E+02 -0.21660533512E+03 -0.17297673373E+04  0.19594053018E+04  0.89179473013E+03 0.  0.
         23    2    4    4    0    0 -0.12695390335E+03 -0.18227614200E+03 -0.17225788028E+04  0.17392376615E+04  0.91258016621E+02 0.  0.
         23    2    4    4    0    0  0.19736969546E+03 -0.34329193126E+02 -0.71885344157E+01  0.22016764032E+03  0.91042982315E+02 0.  0.
          3    1    3    3  502    0 -0.45565296809E+02  0.63908489378E+02 -0.60778891758E+02  0.99270161535E+02  0.00000000000E+00 0. -1.
         -4    1    3    3    0  502 -0.24850495307E+02  0.15269684575E+03 -0.25286830891E+02  0.15675872427E+03  0.00000000000E+00 0.  1.
         13    1    5    5    0    0 -0.95705137216E+02 -0.14560092948E+03 -0.10009402660E+04  0.10159923819E+04  0.00000000000E+00 0. -1.
        -13    1    5    5    0    0 -0.31248766129E+02 -0.36675212521E+02 -0.72163853687E+03  0.72324527962E+03  0.00000000000E+00 0.  1.
          3    1    6    6  503    0  0.90390031153E+02 -0.26838813764E+02 -0.47526027112E+02  0.10559073307E+03  0.00000000000E+00 0. -1.
         -3    1    6    6    0  503  0.10697966431E+03 -0.74903793617E+01  0.40337492697E+02  0.11457690725E+03  0.00000000000E+00 0.  1.
<mgrwt>
<rscale>  0 0.12692119E+04</rscale>
<asrwt>0</asrwt>
<pdfrwt beam="1">  1        1 0.31009748E+00 0.12692119E+04</pdfrwt>
<pdfrwt beam="2">  1       -2 0.30738548E-01 0.12692119E+04</pdfrwt>
<totfact> 0.24669601E+01</totfact>
</mgrwt>
</event>
<event>
12    5  0.5197392E-008  0.1650637E+04  0.7818608E-02  0.8790030E-01
          1   -1    0    0  501    0  0.00000000000E+00  0.00000000000E+00  0.40324348377E+03  0.40324348377E+03  0.00000000000E+00 0. -1.
         -2   -1    0    0    0  501 -0.00000000000E+00 -0.00000000000E+00 -0.16891800845E+04  0.16891800845E+04  0.00000000000E+00 0.  1.
        -24    2    1    2    0    0  0.57615257448E+03  0.18903355411E+02 -0.26350408245E+03  0.63879946454E+03  0.79506153861E+02 0.  0.
        254    2    1    2    0    0 -0.57615257448E+03 -0.18903355411E+02 -0.10224325183E+04  0.14536241038E+04  0.85752297616E+03 0.  0.
         23    2    4    4    0    0  0.59975371774E+02  0.27914957653E+03 -0.45151345236E+03  0.54359901034E+03  0.10056816135E+03 0.  0.
         23    2    4    4    0    0 -0.63612794625E+03 -0.29805293194E+03 -0.57091906593E+03  0.91002509342E+03  0.93288673349E+02 0.  0.
          3    1    3    3  502    0  0.37193696991E+03 -0.23748492426E+02 -0.15491377871E+03  0.40360795249E+03  0.00000000000E+00 0. -1.
         -4    1    3    3    0  502  0.20421560457E+03  0.42651847836E+02 -0.10859030375E+03  0.23519151205E+03  0.00000000000E+00 0.  1.
         13    1    5    5    0    0 -0.70741464092E+01  0.12794190729E+03 -0.26468928829E+03  0.29407413100E+03  0.00000000000E+00 0.  1.
        -13    1    5    5    0    0  0.67049518183E+02  0.15120766924E+03 -0.18682416407E+03  0.24952487933E+03  0.00000000000E+00 0. -1.
          1    1    6    6  503    0 -0.21033051016E+03 -0.51305967023E+02 -0.17863381646E+03  0.28068000666E+03  0.00000000000E+00 0. -1.
         -1    1    6    6    0  503 -0.42579743609E+03 -0.24674696492E+03 -0.39228524947E+03  0.62934508676E+03  0.00000000000E+00 0.  1.
<mgrwt>
<rscale>  0 0.16506373E+04</rscale>
<asrwt>0</asrwt>
<pdfrwt beam="1">  1        1 0.62037458E-01 0.16506373E+04</pdfrwt>
<pdfrwt beam="2">  1       -2 0.25987386E+00 0.16506373E+04</pdfrwt>
<totfact> 0.27731318E+00</totfact>
</mgrwt>
</event>
<event>
12    5  0.5197392E-008  0.3905403E+04  0.7818608E-02  0.8023906E-01
         -2   -1    0    0    0  501 -0.00000000000E+00  0.00000000000E+00  0.33018195585E+04  0.33018195585E+04  0.00000000000E+00 0.  1.
          1   -1    0    0  501    0  0.00000000000E+00 -0.00000000000E+00 -0.11548309861E+04  0.11548309861E+04  0.00000000000E+00 0. -1.
        -24    2    1    2    0    0 -0.34744229085E+03 -0.77901009789E+03 -0.85721866158E+03  0.12118094801E+04  0.78009641509E+02 0.  0.
        254    2    1    2    0    0  0.34744229085E+03  0.77901009789E+03  0.30042072340E+04  0.32448410645E+04  0.88099917745E+03 0.  0.
         23    2    4    4    0    0 -0.16466034968E+03 -0.90209875282E+02  0.40802957299E+03  0.45800573482E+03  0.89611764525E+02 0.  0.
         23    2    4    4    0    0  0.51210264053E+03  0.86921997317E+03  0.25961776610E+04  0.27868353297E+04  0.92305096045E+02 0.  0.
          3    1    3    3  502    0 -0.31483609921E+03 -0.72053100777E+03 -0.81591775391E+03  0.11331409814E+04  0.00000000000E+00 0. -1.
         -4    1    3    3    0  502 -0.32606191646E+02 -0.58479090121E+02 -0.41300907676E+02  0.78668498714E+02  0.00000000000E+00 0.  1.
         13    1    5    5    0    0 -0.11042307755E+03 -0.10282165087E+03  0.27251069922E+03  0.31149258279E+03  0.00000000000E+00 0.  1.
        -13    1    5    5    0    0 -0.54237272128E+02  0.12611775584E+02  0.13551887377E+03  0.14651315203E+03  0.00000000000E+00 0. -1.
          4    1    6    6  503    0  0.20515639334E+03  0.28286245880E+03  0.81944692999E+03  0.89083869887E+03  0.00000000000E+00 0. -1.
         -4    1    6    6    0  503  0.30694624720E+03  0.58635751437E+03  0.17767307310E+04  0.18959966308E+04  0.00000000000E+00 0.  1.
<mgrwt>
<rscale>  0 0.39054032E+04</rscale>
<asrwt>0</asrwt>
<pdfrwt beam="1">  1        1 0.17766631E+00 0.39054032E+04</pdfrwt>
<pdfrwt beam="2">  1       -2 0.50797224E+00 0.39054032E+04</pdfrwt>
<totfact> 0.11776322E-02</totfact>
</mgrwt>
</event>
<event>
12    5  0.5197392E-008  0.3001022E+04  0.7818608E-02  0.8243439E-01
          1   -1    0    0  501    0  0.00000000000E+00  0.00000000000E+00  0.20619668395E+04  0.20619668395E+04  0.00000000000E+00 0. -1.
         -2   -1    0    0    0  501 -0.00000000000E+00 -0.00000000000E+00 -0.10919345720E+04  0.10919345720E+04  0.00000000000E+00 0.  1.
        -24    2    1    2    0    0 -0.93225924602E+03  0.70330928017E+03  0.11833751248E+04  0.16646203704E+04  0.82662241635E+02 0.  0.
        254    2    1    2    0    0  0.93225924602E+03 -0.70330928017E+03 -0.21334285726E+03  0.14892810411E+04  0.89927281697E+03 0.  0.
         23    2    4    4    0    0  0.76640356943E+02 -0.85863588421E+02 -0.38874800574E+03  0.41606460461E+03  0.93479640086E+02 0.  0.
         23    2    4    4    0    0  0.85561888908E+03 -0.61744569175E+03  0.17540514849E+03  0.10732164365E+04  0.87770655018E+02 0.  0.
          1    1    3    3  502    0 -0.16614566963E+03  0.10186470966E+03  0.23334085404E+03  0.30402098081E+03  0.00000000000E+00 0. -1.
         -2    1    3    3    0  502 -0.76611357639E+03  0.60144457051E+03  0.95003427077E+03  0.13605993896E+04  0.00000000000E+00 0.  1.
         13    1    5    5    0    0  0.42515532012E+02 -0.78741687281E+02 -0.14908607268E+03  0.17388065115E+03  0.00000000000E+00 0. -1.
        -13    1    5    5    0    0  0.34124824931E+02 -0.71219011396E+01 -0.23966193306E+03  0.24218395345E+03  0.00000000000E+00 0.  1.
          3    1    6    6  503    0  0.12549772272E+03 -0.59112583849E+02  0.38276533414E+02  0.14390645916E+03  0.00000000000E+00 0. -1.
         -3    1    6    6    0  503  0.73012116635E+03 -0.55833310790E+03  0.13712861507E+03  0.92930997735E+03  0.00000000000E+00 0.  1.
<mgrwt>
<rscale>  0 0.30010217E+04</rscale>
<asrwt>0</asrwt>
<pdfrwt beam="1">  1        1 0.31722567E+00 0.30010217E+04</pdfrwt>
<pdfrwt beam="2">  1       -2 0.16798994E+00 0.30010217E+04</pdfrwt>
<totfact> 0.44582554E-01</totfact>
</mgrwt>
</event>
<event>
12    5  0.5197392E-008  0.2333979E+04  0.7818608E-02  0.8464643E-01
          1   -1    0    0  501    0  0.00000000000E+00  0.00000000000E+00  0.13750321960E+04  0.13750321960E+04  0.00000000000E+00 0. -1.
         -2   -1    0    0    0  501 -0.00000000000E+00 -0.00000000000E+00 -0.99042332548E+03  0.99042332548E+03  0.00000000000E+00 0.  1.
        -24    2    1    2    0    0 -0.55745603248E+03 -0.46937047100E+03  0.83796574984E+03  0.11133170200E+04  0.78881696356E+02 0.  0.
        254    2    1    2    0    0  0.55745603248E+03  0.46937047100E+03 -0.45335687929E+03  0.12521385015E+04  0.91173049726E+03 0.  0.
         23    2    4    4    0    0 -0.13473087432E+03  0.10701617615E+03  0.16232743720E+03  0.25338457287E+03  0.90822213408E+02 0.  0.
         23    2    4    4    0    0  0.69218690679E+03  0.36235429485E+03 -0.61568431649E+03  0.99875392859E+03  0.89548218064E+02 0.  0.
          1    1    3    3  502    0 -0.49541854597E+03 -0.42742246761E+03  0.71382116378E+03  0.96833370042E+03  0.00000000000E+00 0. -1.
         -2    1    3    3    0  502 -0.62037486501E+02 -0.41948003389E+02  0.12414458606E+03  0.14498331962E+03  0.00000000000E+00 0.  1.
         13    1    5    5    0    0 -0.13475817893E+03  0.65290009959E+02  0.10679617335E+03  0.18392382888E+03  0.00000000000E+00 0. -1.
        -13    1    5    5    0    0  0.27304609576E-01  0.41726166191E+02  0.55531263853E+02  0.69460743990E+02  0.00000000000E+00 0.  1.
          3    1    6    6  503    0  0.31658863068E+03  0.13576896554E+03 -0.22584926140E+03  0.41190953127E+03  0.00000000000E+00 0. -1.
         -3    1    6    6    0  503  0.37559827612E+03  0.22658532931E+03 -0.38983505509E+03  0.58684439731E+03  0.00000000000E+00 0.  1.
<mgrwt>
<rscale>  0 0.23339785E+04</rscale>
<asrwt>0</asrwt>
<pdfrwt beam="1">  1        1 0.21154341E+00 0.23339785E+04</pdfrwt>
<pdfrwt beam="2">  1       -2 0.15237282E+00 0.23339785E+04</pdfrwt>
<totfact> 0.18187472E+00</totfact>
</mgrwt>
</event>
<event>
12    5  0.5197392E-008  0.2184587E+04  0.7818608E-02  0.8524871E-01
          1   -1    0    0  501    0  0.00000000000E+00  0.00000000000E+00  0.90974339411E+03  0.90974339411E+03  0.00000000000E+00 0. -1.
         -2   -1    0    0    0  501 -0.00000000000E+00 -0.00000000000E+00 -0.13114744432E+04  0.13114744432E+04  0.00000000000E+00 0.  1.
        -24    2    1    2    0    0 -0.33627865042E+03  0.21181876075E+03 -0.99202344791E+03  0.10717257234E+04  0.80839266107E+02 0.  0.
        254    2    1    2    0    0  0.33627865042E+03 -0.21181876075E+03  0.59029239881E+03  0.11494921139E+04  0.90273832626E+03 0.  0.
         23    2    4    4    0    0 -0.18520285277E+03  0.36279232345E+02  0.51996051263E+03  0.56049916597E+03  0.90466021104E+02 0.  0.
         23    2    4    4    0    0  0.52148150319E+03 -0.24809799309E+03  0.70331886173E+02  0.58899294793E+03  0.92035570045E+02 0.  0.
          1    1    3    3  502    0 -0.12245762703E+03  0.33809418023E+02 -0.29187287985E+03  0.31832173214E+03  0.00000000000E+00 0. -1.
         -2    1    3    3    0  502 -0.21382102339E+03  0.17800934272E+03 -0.70015056806E+03  0.75340399129E+03  0.00000000000E+00 0.  1.
         13    1    5    5    0    0 -0.10361058801E+03 -0.22612240716E+02  0.22252286923E+03  0.24650130772E+03  0.00000000000E+00 0.  1.
        -13    1    5    5    0    0 -0.81592264767E+02  0.58891473061E+02  0.29743764340E+03  0.31399785824E+03  0.00000000000E+00 0. -1.
          3    1    6    6  503    0  0.32871748844E+02 -0.34872623210E+02 -0.12404045352E+02  0.49502647028E+02  0.00000000000E+00 0. -1.
         -3    1    6    6    0  503  0.48860975435E+03 -0.21322536988E+03  0.82735931524E+02  0.53949030090E+03  0.00000000000E+00 0.  1.
<mgrwt>
<rscale>  0 0.21845871E+04</rscale>
<asrwt>0</asrwt>
<pdfrwt beam="1">  1        1 0.13996052E+00 0.21845871E+04</pdfrwt>
<pdfrwt beam="2">  1       -2 0.20176530E+00 0.21845871E+04</pdfrwt>
<totfact> 0.18510032E+00</totfact>
</mgrwt>
</event>
<event>
12    5  0.5197392E-008  0.1280419E+04  0.7818608E-02  0.9045239E-01
         -2   -1    0    0    0  501 -0.00000000000E+00  0.00000000000E+00  0.11664918538E+04  0.11664918538E+04  0.00000000000E+00 0.  1.
          1   -1    0    0  501    0  0.00000000000E+00 -0.00000000000E+00 -0.35136813536E+03  0.35136813536E+03  0.00000000000E+00 0. -1.
        -24    2    1    2    0    0  0.15860990252E+03  0.23167177864E+03  0.35990190811E+03  0.46359364717E+03  0.80998592803E+02 0.  0.
        254    2    1    2    0    0 -0.15860990252E+03 -0.23167177864E+03  0.45522181037E+03  0.10542663420E+04  0.90852721980E+03 0.  0.
         23    2    4    4    0    0 -0.89306304379E+02 -0.46754906957E+03  0.58703706126E+03  0.76099078636E+03  0.88975935948E+02 0.  0.
         23    2    4    4    0    0 -0.69303598142E+02  0.23587729093E+03 -0.13181525089E+03  0.29327555567E+03  0.90521854223E+02 0.  0.
          3    1    3    3  502    0  0.15099656466E+02  0.14893894871E+02  0.20964149766E+01  0.21312500688E+02  0.00000000000E+00 0. -1.
         -4    1    3    3    0  502  0.14351024606E+03  0.21677788377E+03  0.35780549313E+03  0.44228114648E+03  0.00000000000E+00 0.  1.
         13    1    5    5    0    0 -0.33389824119E+01 -0.44468480677E+00 -0.23101829133E+01  0.40845432079E+01  0.00000000000E+00 0. -1.
        -13    1    5    5    0    0 -0.85967321967E+02 -0.46710438476E+03  0.58934724417E+03  0.75690624315E+03  0.00000000000E+00 0.  1.
          3    1    6    6  503    0 -0.38157046160E+01  0.52824118401E+00  0.10062056503E+02  0.10774210947E+02  0.00000000000E+00 0. -1.
         -3    1    6    6    0  503 -0.65487893526E+02  0.23534904975E+03 -0.14187730739E+03  0.28250134472E+03  0.00000000000E+00 0.  1.
<mgrwt>
<rscale>  0 0.12804188E+04</rscale>
<asrwt>0</asrwt>
<pdfrwt beam="1">  1        1 0.54056637E-01 0.12804188E+04</pdfrwt>
<pdfrwt beam="2">  1       -2 0.17946028E+00 0.12804188E+04</pdfrwt>
<totfact> 0.11185733E+01</totfact>
</mgrwt>
</event>
<event>
12    5  0.5197392E-008  0.1766338E+04  0.7818608E-02  0.8724408E-01
         -2   -1    0    0    0  501 -0.00000000000E+00  0.00000000000E+00  0.21722168932E+03  0.21722168932E+03  0.00000000000E+00 0.  1.
          1   -1    0    0  501    0  0.00000000000E+00 -0.00000000000E+00 -0.35907435452E+04  0.35907435452E+04  0.00000000000E+00 0. -1.
        -24    2    1    2    0    0 -0.24838234127E+02 -0.64345425923E+03 -0.11382238270E+04  0.13102630093E+04  0.81150178388E+02 0.  0.
        254    2    1    2    0    0  0.24838234127E+02  0.64345425923E+03 -0.22352980288E+04  0.24977022252E+04  0.90956517451E+03 0.  0.
         23    2    4    4    0    0 -0.22367493178E+03  0.38330821893E+03 -0.20168178362E+04  0.20668988963E+04  0.86955145594E+02 0.  0.
         23    2    4    4    0    0  0.24851316591E+03  0.26014604030E+03 -0.21848019260E+03  0.43080332890E+03  0.91777762671E+02 0.  0.
          1    1    3    3  502    0 -0.16387143325E+02 -0.11815800220E+03 -0.27466597307E+03  0.29945157991E+03  0.00000000000E+00 0. -1.
         -2    1    3    3    0  502 -0.84510908028E+01 -0.52529625703E+03 -0.86355785397E+03  0.10108114294E+04  0.00000000000E+00 0.  1.
         13    1    5    5    0    0 -0.39928739720E+02  0.90481877734E+02 -0.30893630619E+03  0.32438081900E+03  0.00000000000E+00 0.  1.
        -13    1    5    5    0    0 -0.18374619206E+03  0.29282634119E+03 -0.17078815300E+04  0.17425180773E+04  0.00000000000E+00 0. -1.
          1    1    6    6  503    0  0.21947385143E+03  0.19528380694E+03 -0.14164181034E+03  0.32613944740E+03  0.00000000000E+00 0. -1.
         -1    1    6    6    0  503  0.29039314474E+02  0.64862233362E+02 -0.76838382266E+02  0.10466388150E+03  0.00000000000E+00 0.  1.
<mgrwt>
<rscale>  0 0.17663379E+04</rscale>
<asrwt>0</asrwt>
<pdfrwt beam="1">  1        1 0.55242201E+00 0.17663379E+04</pdfrwt>
<pdfrwt beam="2">  1       -2 0.33418726E-01 0.17663379E+04</pdfrwt>
<totfact> 0.14834082E+00</totfact>
</mgrwt>
</event>
<event>
12    5  0.5197392E-008  0.1832190E+04  0.7818608E-02  0.8689366E-01
          1   -1    0    0  501    0  0.00000000000E+00  0.00000000000E+00  0.78199479946E+03  0.78199479946E+03  0.00000000000E+00 0. -1.
         -2   -1    0    0    0  501 -0.00000000000E+00 -0.00000000000E+00 -0.10731907598E+04  0.10731907598E+04  0.00000000000E+00 0.  1.
        -24    2    1    2    0    0 -0.36514855531E+03  0.58342063123E+02  0.48105061899E+03  0.61203711622E+03  0.80264997539E+02 0.  0.
        254    2    1    2    0    0  0.36514855531E+03 -0.58342063123E+02 -0.77224657937E+03  0.12431484431E+04  0.90128575291E+03 0.  0.
         23    2    4    4    0    0 -0.62424340996E+02 -0.21991781234E+03  0.89906151390E+02  0.26303371076E+03  0.94037090574E+02 0.  0.
         23    2    4    4    0    0  0.42757289630E+03  0.16157574921E+03 -0.86215273076E+03  0.98011473232E+03  0.91609240642E+02 0.  0.
          3    1    3    3  502    0 -0.32273397134E+03  0.24982268008E+02  0.42497664363E+03  0.53421575941E+03  0.00000000000E+00 0. -1.
         -4    1    3    3    0  502 -0.42414583965E+02  0.33359795115E+02  0.56073975363E+02  0.77821356812E+02  0.00000000000E+00 0.  1.
         13    1    5    5    0    0 -0.73885064740E+02 -0.92767912651E+02  0.31916244935E+02  0.12281504427E+03  0.00000000000E+00 0. -1.
        -13    1    5    5    0    0  0.11460723744E+02 -0.12714989969E+03  0.57989906455E+02  0.14021866648E+03  0.00000000000E+00 0.  1.
          3    1    6    6  503    0  0.38728314046E+03  0.15974035891E+03 -0.72694450654E+03  0.83901938520E+03  0.00000000000E+00 0. -1.
         -3    1    6    6    0  503  0.40289755844E+02  0.18353903031E+01 -0.13520822422E+03  0.14109534712E+03  0.00000000000E+00 0.  1.
<mgrwt>
<rscale>  0 0.18321895E+04</rscale>
<asrwt>0</asrwt>
<pdfrwt beam="1">  1        1 0.12030689E+00 0.18321895E+04</pdfrwt>
<pdfrwt beam="2">  1       -2 0.16510627E+00 0.18321895E+04</pdfrwt>
<totfact> 0.43663417E+00</totfact>
</mgrwt>
</event>
<event>
12    5  0.5197392E-008  0.2714061E+04  0.7818608E-02  0.8330457E-01
         -2   -1    0    0    0  501 -0.00000000000E+00  0.00000000000E+00  0.90537667068E+03  0.90537667068E+03  0.00000000000E+00 0.  1.
          1   -1    0    0  501    0  0.00000000000E+00 -0.00000000000E+00 -0.20339949468E+04  0.20339949468E+04  0.00000000000E+00 0. -1.
        -24    2    1    2    0    0 -0.52566553481E+03 -0.10677298186E+04 -0.71716180172E+03  0.13918039401E+04  0.80161947247E+02 0.  0.
        254    2    1    2    0    0  0.52566553481E+03  0.10677298186E+04 -0.41145647442E+03  0.15475676774E+04  0.89960995203E+03 0.  0.
         23    2    4    4    0    0  0.18563266993E+03  0.78885408436E+03  0.14941724589E+03  0.82898477996E+03  0.90221934605E+02 0.  0.
         23    2    4    4    0    0  0.34003286489E+03  0.27887573424E+03 -0.56087372031E+03  0.71858289744E+03  0.91586167143E+02 0.  0.
          3    1    3    3  502    0 -0.33298441321E+03 -0.66477021293E+03 -0.40271958817E+03  0.84556556347E+03  0.00000000000E+00 0. -1.
         -2    1    3    3    0  502 -0.19268112160E+03 -0.40295960567E+03 -0.31444221356E+03  0.54623837662E+03  0.00000000000E+00 0.  1.
         13    1    5    5    0    0  0.53796179913E+02  0.30977986915E+03  0.17572444954E+02  0.31490694995E+03  0.00000000000E+00 0. -1.
        -13    1    5    5    0    0  0.13183649001E+03  0.47907421521E+03  0.13184480094E+03  0.51407783001E+03  0.00000000000E+00 0.  1.
          3    1    6    6  503    0 -0.40434085633E+01 -0.71869229212E+00 -0.66013193828E+00  0.41595006427E+01  0.00000000000E+00 0. -1.
         -3    1    6    6    0  503  0.34407627345E+03  0.27959442653E+03 -0.56021358837E+03  0.71442339680E+03  0.00000000000E+00 0.  1.
<mgrwt>
<rscale>  0 0.27140608E+04</rscale>
<asrwt>0</asrwt>
<pdfrwt beam="1">  1        1 0.31292230E+00 0.27140608E+04</pdfrwt>
<pdfrwt beam="2">  1       -2 0.13928872E+00 0.27140608E+04</pdfrwt>
<totfact> 0.78833910E-01</totfact>
</mgrwt>
</event>
<event>
12    5  0.5197392E-008  0.1944626E+04  0.7818608E-02  0.8632957E-01
          1   -1    0    0  501    0  0.00000000000E+00  0.00000000000E+00  0.16891537642E+04  0.16891537642E+04  0.00000000000E+00 0. -1.
         -2   -1    0    0    0  501 -0.00000000000E+00 -0.00000000000E+00 -0.55968398679E+03  0.55968398679E+03  0.00000000000E+00 0.  1.
        -24    2    1    2    0    0 -0.65596101474E+03  0.33409794500E+03  0.66854102008E+03  0.99771360393E+03  0.81111344652E+02 0.  0.
        254    2    1    2    0    0  0.65596101474E+03 -0.33409794500E+03  0.46092875730E+03  0.12511241470E+04  0.90052763549E+03 0.  0.
         23    2    4    4    0    0  0.63734934080E+03  0.12452632524E+03  0.10720998640E+03  0.66441231322E+03  0.90712473647E+02 0.  0.
         23    2    4    4    0    0  0.18611673939E+02 -0.45862427024E+03  0.35371877090E+03  0.58671183382E+03  0.91821519246E+02 0.  0.
          3    1    3    3  502    0 -0.47597233635E+03  0.26968920623E+03  0.45945718204E+03  0.71441083073E+03  0.00000000000E+00 0. -1.
         -4    1    3    3    0  502 -0.17998867839E+03  0.64408738770E+02  0.20908383804E+03  0.28330277321E+03  0.00000000000E+00 0.  1.
         13    1    5    5    0    0  0.43716245135E+02 -0.31550660463E+01  0.28118107753E+02  0.52073913950E+02  0.00000000000E+00 0. -1.
        -13    1    5    5    0    0  0.59363309567E+03  0.12768139128E+03  0.79091878649E+02  0.61233839927E+03  0.00000000000E+00 0.  1.
          4    1    6    6  503    0 -0.37216484170E+02 -0.20678951284E+03  0.15519564755E+03  0.26121381727E+03  0.00000000000E+00 0.  1.
         -4    1    6    6    0  503  0.55828158109E+02 -0.25183475740E+03  0.19852312335E+03  0.32549801655E+03  0.00000000000E+00 0. -1.
<mgrwt>
<rscale>  0 0.19446257E+04</rscale>
<asrwt>0</asrwt>
<pdfrwt beam="1">  1        1 0.25986981E+00 0.19446257E+04</pdfrwt>
<pdfrwt beam="2">  1       -2 0.86105229E-01 0.19446257E+04</pdfrwt>
<totfact> 0.46407203E+00</totfact>
</mgrwt>
</event>
<event>
12    5  0.5197392E-008  0.1018369E+04  0.7818608E-02  0.9288624E-01
          1   -1    0    0  501    0  0.00000000000E+00  0.00000000000E+00  0.78359902385E+03  0.78359902385E+03  0.00000000000E+00 0. -1.
         -2   -1    0    0    0  501 -0.00000000000E+00 -0.00000000000E+00 -0.33086954628E+03  0.33086954628E+03  0.00000000000E+00 0.  1.
        -24    2    1    2    0    0  0.60657871943E+02 -0.39908842966E+02 -0.49874245925E+01  0.10524529477E+03  0.76023710064E+02 0.  0.
        254    2    1    2    0    0 -0.60657871943E+02  0.39908842966E+02  0.45771690216E+03  0.10092232754E+04  0.89652371069E+03 0.  0.
         23    2    4    4    0    0  0.17066669224E+03 -0.34241061518E+03  0.44327432419E+02  0.39380893947E+03  0.82148708518E+02 0.  0.
         23    2    4    4    0    0 -0.23132456418E+03  0.38231945815E+03  0.41338946974E+03  0.61541433589E+03  0.90358890282E+02 0.  0.
          3    1    3    3  502    0 -0.84001532964E+01 -0.94702843312E+01 -0.24251646673E+02  0.27356740066E+02  0.00000000000E+00 0. -1.
         -2    1    3    3    0  502  0.69058025239E+02 -0.30438558635E+02  0.19264222080E+02  0.77888554705E+02  0.00000000000E+00 0.  1.
         13    1    5    5    0    0  0.14900240898E+03 -0.33321147205E+03  0.52770516278E+02  0.36880391860E+03  0.00000000000E+00 0.  1.
        -13    1    5    5    0    0  0.21664283263E+02 -0.91991431346E+01 -0.84430838586E+01  0.25005020871E+02  0.00000000000E+00 0. -1.
          1    1    6    6  503    0 -0.10532489715E+03  0.94411469908E+02  0.12033862733E+03  0.18571010968E+03  0.00000000000E+00 0. -1.
         -1    1    6    6    0  503 -0.12599966704E+03  0.28790798824E+03  0.29305084241E+03  0.42970422621E+03  0.00000000000E+00 0.  1.
<mgrwt>
<rscale>  0 0.10183694E+04</rscale>
<asrwt>0</asrwt>
<pdfrwt beam="1">  1        1 0.12055370E+00 0.10183694E+04</pdfrwt>
<pdfrwt beam="2">  1       -2 0.50903007E-01 0.10183694E+04</pdfrwt>
<totfact> 0.73167524E+01</totfact>
</mgrwt>
</event>
<event>
12    5  0.5197392E-008  0.1285614E+04  0.7818608E-02  0.9041052E-01
         -2   -1    0    0    0  501 -0.00000000000E+00  0.00000000000E+00  0.44346708982E+03  0.44346708982E+03  0.00000000000E+00 0.  1.
          1   -1    0    0  501    0  0.00000000000E+00 -0.00000000000E+00 -0.93175034997E+03  0.93175034997E+03  0.00000000000E+00 0. -1.
        -24    2    1    2    0    0  0.11252420148E+03  0.12930169500E+03  0.17489102317E+03  0.25710022428E+03  0.78313671163E+02 0.  0.
        254    2    1    2    0    0 -0.11252420148E+03 -0.12930169500E+03 -0.66317428333E+03  0.11181172155E+04  0.88374507258E+03 0.  0.
         23    2    4    4    0    0  0.34698843397E+03 -0.18028484061E+03 -0.17072625143E+03  0.43648980989E+03  0.92045120183E+02 0.  0.
         23    2    4    4    0    0 -0.45951263545E+03  0.50983145608E+02 -0.49244803190E+03  0.68162740562E+03  0.91431464444E+02 0.  0.
          3    1    3    3  502    0  0.22581720637E+02  0.55467416776E+02  0.10633757320E+03  0.12204199238E+03  0.00000000000E+00 0. -1.
         -4    1    3    3    0  502  0.89942480842E+02  0.73834278222E+02  0.68553449975E+02  0.13505823190E+03  0.00000000000E+00 0.  1.
         13    1    5    5    0    0  0.19227899413E+03 -0.14311154291E+03 -0.12805791237E+03  0.27175532049E+03  0.00000000000E+00 0. -1.
        -13    1    5    5    0    0  0.15470943985E+03 -0.37173297695E+02 -0.42668339063E+02  0.16473448940E+03  0.00000000000E+00 0.  1.
          4    1    6    6  503    0 -0.40625571892E+03  0.15747406080E+02 -0.43912831887E+03  0.59843576964E+03  0.00000000000E+00 0.  1.
         -4    1    6    6    0  503 -0.53256916538E+02  0.35235739528E+02 -0.53319713022E+02  0.83191635974E+02  0.00000000000E+00 0. -1.
<mgrwt>
<rscale>  0 0.12856137E+04</rscale>
<asrwt>0</asrwt>
<pdfrwt beam="1">  1        1 0.14334621E+00 0.12856137E+04</pdfrwt>
<pdfrwt beam="2">  1       -2 0.68225706E-01 0.12856137E+04</pdfrwt>
<totfact> 0.29061430E+01</totfact>
</mgrwt>
</event>
<event>
12    5  0.5197392E-008  0.2377555E+04  0.7818608E-02  0.8447955E-01
         -2   -1    0    0    0  501 -0.00000000000E+00  0.00000000000E+00  0.18932570606E+04  0.18932570606E+04  0.00000000000E+00 0.  1.
          1   -1    0    0  501    0  0.00000000000E+00 -0.00000000000E+00 -0.74643411484E+03  0.74643411484E+03  0.00000000000E+00 0. -1.
        -24    2    1    2    0    0  0.17439327919E+03 -0.39030455343E+02 -0.61992060335E+03  0.65030583252E+03  0.81607163188E+02 0.  0.
        254    2    1    2    0    0 -0.17439327919E+03  0.39030455343E+02  0.17667435491E+04  0.19893853429E+04  0.89684718988E+03 0.  0.
         23    2    4    4    0    0  0.20213071622E+03  0.21672255818E+03  0.20822847008E+03  0.37361248031E+03  0.91660766031E+02 0.  0.
         23    2    4    4    0    0 -0.37652399541E+03 -0.17769210284E+03  0.15585150790E+04  0.16157728626E+04  0.91694544179E+02 0.  0.
          1    1    3    3  502    0  0.65415215799E+02  0.24391128292E+02 -0.24482545737E+03  0.25458511774E+03  0.00000000000E+00 0. -1.
         -2    1    3    3    0  502  0.10897806340E+03 -0.63421583635E+02 -0.37509514597E+03  0.39572071478E+03  0.00000000000E+00 0.  1.
         13    1    5    5    0    0 -0.44269867019E+01  0.28030005931E+02  0.32885574599E+02  0.43436625795E+02  0.00000000000E+00 0. -1.
        -13    1    5    5    0    0  0.20655770292E+03  0.18869255225E+03  0.17534289548E+03  0.33017585451E+03  0.00000000000E+00 0.  1.
          1    1    6    6  503    0 -0.89697154696E+02 -0.87926547631E+02  0.48067932909E+03  0.49681915699E+03  0.00000000000E+00 0. -1.
         -1    1    6    6    0  503 -0.28682684071E+03 -0.89765555205E+02  0.10778357500E+04  0.11189537056E+04  0.00000000000E+00 0.  1.
<mgrwt>
<rscale>  0 0.23775548E+04</rscale>
<asrwt>0</asrwt>
<pdfrwt beam="1">  1        1 0.11483602E+00 0.23775548E+04</pdfrwt>
<pdfrwt beam="2">  1       -2 0.29127031E+00 0.23775548E+04</pdfrwt>
<totfact> 0.69812014E-01</totfact>
</mgrwt>
</event>
<event>
12    5  0.5197392E-008  0.2243773E+04  0.7818608E-02  0.8500427E-01
          1   -1    0    0  501    0  0.00000000000E+00  0.00000000000E+00  0.91803600040E+03  0.91803600040E+03  0.00000000000E+00 0. -1.
         -2   -1    0    0    0  501 -0.00000000000E+00 -0.00000000000E+00 -0.13710016058E+04  0.13710016058E+04  0.00000000000E+00 0.  1.
        -24    2    1    2    0    0  0.25111462751E+03  0.43871836913E+02 -0.11108485537E+04  0.11425148513E+04  0.79827200830E+02 0.  0.
        254    2    1    2    0    0 -0.25111462751E+03 -0.43871836913E+02  0.65788294830E+03  0.11465227549E+04  0.90372626363E+03 0.  0.
         23    2    4    4    0    0  0.93823354875E+02 -0.39723695561E+03  0.18834177524E+03  0.45889541260E+03  0.92262422401E+02 0.  0.
         23    2    4    4    0    0 -0.34493798238E+03  0.35336511869E+03  0.46954117306E+03  0.68762734228E+03  0.92267707504E+02 0.  0.
          3    1    3    3  502    0  0.29386236873E+02  0.68097575245E+00 -0.27885340971E+03  0.28039835726E+03  0.00000000000E+00 0. -1.
         -4    1    3    3    0  502  0.22172839064E+03  0.43190861160E+02 -0.83199514398E+03  0.86211649404E+03  0.00000000000E+00 0.  1.
         13    1    5    5    0    0  0.12256954921E+02  0.44230216426E+00  0.82669229911E+01  0.14790895540E+02  0.00000000000E+00 0.  1.
        -13    1    5    5    0    0  0.81566399954E+02 -0.39767925777E+03  0.18007485225E+03  0.44410451706E+03  0.00000000000E+00 0. -1.
          4    1    6    6  503    0 -0.29185562947E+03  0.24300626629E+03  0.34862787143E+03  0.51553190652E+03  0.00000000000E+00 0. -1.
         -4    1    6    6    0  503 -0.53082352914E+02  0.11035885241E+03  0.12091330164E+03  0.17209543576E+03  0.00000000000E+00 0.  1.
<mgrwt>
<rscale>  0 0.22437726E+04</rscale>
<asrwt>0</asrwt>
<pdfrwt beam="1">  1        1 0.14123631E+00 0.22437726E+04</pdfrwt>
<pdfrwt beam="2">  1       -2 0.21092332E+00 0.22437726E+04</pdfrwt>
<totfact> 0.15815687E+00</totfact>
</mgrwt>
</event>
<event>
12    5  0.5197392E-008  0.1372512E+04  0.7818608E-02  0.8973959E-01
         -2   -1    0    0    0  501 -0.00000000000E+00  0.00000000000E+00  0.41660213858E+03  0.41660213858E+03  0.00000000000E+00 0.  1.
          1   -1    0    0  501    0  0.00000000000E+00 -0.00000000000E+00 -0.11304491392E+04  0.11304491392E+04  0.00000000000E+00 0. -1.
        -24    2    1    2    0    0  0.17508227783E+03  0.32575247574E+03 -0.34439305024E+03  0.51155341674E+03  0.79447124970E+02 0.  0.
        254    2    1    2    0    0 -0.17508227783E+03 -0.32575247574E+03 -0.36945395039E+03  0.10354978611E+04  0.89386303163E+03 0.  0.
         23    2    4    4    0    0 -0.17206373134E+03 -0.45336637203E+03 -0.58667017544E+03  0.76641299363E+03  0.89777431091E+02 0.  0.
         23    2    4    4    0    0 -0.30185464932E+01  0.12761389629E+03  0.21721622504E+03  0.26908486742E+03  0.94495287201E+02 0.  0.
          1    1    3    3  502    0  0.17271564666E+03  0.33022258412E+03 -0.33608829981E+03  0.50182964733E+03  0.00000000000E+00 0. -1.
         -2    1    3    3    0  502  0.23666311690E+01 -0.44701083791E+01 -0.83047504267E+01  0.97237694162E+01  0.00000000000E+00 0.  1.
         13    1    5    5    0    0 -0.51763807278E+02 -0.12218982541E+03 -0.10287317357E+03  0.16790692368E+03  0.00000000000E+00 0.  1.
        -13    1    5    5    0    0 -0.12029992406E+03 -0.33117654661E+03 -0.48379700187E+03  0.59850606996E+03  0.00000000000E+00 0. -1.
          2    1    6    6  503    0  0.25961582546E+02  0.10428780165E+03  0.20216179749E+03  0.22895270626E+03  0.00000000000E+00 0. -1.
         -2    1    6    6    0  503 -0.28980129039E+02  0.23326094638E+02  0.15054427558E+02  0.40132161159E+02  0.00000000000E+00 0.  1.
<mgrwt>
<rscale>  0 0.13725123E+04</rscale>
<asrwt>0</asrwt>
<pdfrwt beam="1">  1        1 0.17391525E+00 0.13725123E+04</pdfrwt>
<pdfrwt beam="2">  1       -2 0.64092638E-01 0.13725123E+04</pdfrwt>
<totfact> 0.23193080E+01</totfact>
</mgrwt>
</event>
<event>
12    5  0.5197392E-008  0.1268204E+04  0.7818608E-02  0.9055167E-01
         -2   -1    0    0    0  501 -0.00000000000E+00  0.00000000000E+00  0.36453392955E+03  0.36453392955E+03  0.00000000000E+00 0.  1.
          1   -1    0    0  501    0  0.00000000000E+00 -0.00000000000E+00 -0.11030122847E+04  0.11030122847E+04  0.00000000000E+00 0. -1.
        -24    2    1    2    0    0 -0.68644743607E+02  0.23732416314E+03 -0.39755113275E+03  0.47477145221E+03  0.79537220534E+02 0.  0.
        254    2    1    2    0    0  0.68644743607E+02 -0.23732416314E+03 -0.34092722239E+03  0.99277476202E+03  0.89907480106E+03 0.  0.
         23    2    4    4    0    0  0.34250794742E+03 -0.50112410562E+02 -0.49929717839E+03  0.61425544003E+03  0.90493787201E+02 0.  0.
         23    2    4    4    0    0 -0.27386320382E+03 -0.18721175258E+03  0.15836995600E+03  0.37851932199E+03  0.90258182161E+02 0.  0.
          3    1    3    3  502    0 -0.26310811970E+02  0.20344847681E+03 -0.32143784393E+03  0.38132116261E+03  0.00000000000E+00 0. -1.
         -4    1    3    3    0  502 -0.42333931636E+02  0.33875686332E+02 -0.76113288818E+02  0.93450289603E+02  0.00000000000E+00 0.  1.
         13    1    5    5    0    0  0.28593083506E+03 -0.19698335010E+02 -0.44897686768E+03  0.53265814041E+03  0.00000000000E+00 0.  1.
        -13    1    5    5    0    0  0.56577112360E+02 -0.30414075552E+02 -0.50320310715E+02  0.81597299619E+02  0.00000000000E+00 0. -1.
          1    1    6    6  503    0 -0.17696153664E+03 -0.75959144553E+02  0.62051750677E+02  0.20232547258E+03  0.00000000000E+00 0. -1.
         -1    1    6    6    0  503 -0.96901667176E+02 -0.11125260803E+03  0.96318205320E+02  0.17619384941E+03  0.00000000000E+00 0.  1.
<mgrwt>
<rscale>  0 0.12682041E+04</rscale>
<asrwt>0</asrwt>
<pdfrwt beam="1">  1        1 0.16969420E+00 0.12682041E+04</pdfrwt>
<pdfrwt beam="2">  1       -2 0.56082143E-01 0.12682041E+04</pdfrwt>
<totfact> 0.32513532E+01</totfact>
</mgrwt>
</event>
<event>
12    5  0.5197392E-008  0.1210310E+04  0.7818608E-02  0.9103880E-01
         -2   -1    0    0    0  501 -0.00000000000E+00  0.00000000000E+00  0.50781448973E+03  0.50781448973E+03  0.00000000000E+00 0.  1.
          1   -1    0    0  501    0  0.00000000000E+00 -0.00000000000E+00 -0.72115398830E+03  0.72115398830E+03  0.00000000000E+00 0. -1.
        -24    2    1    2    0    0  0.95655107853E+02 -0.75895911158E+02 -0.28182696689E+03  0.31748831682E+03  0.80388451045E+02 0.  0.
        254    2    1    2    0    0 -0.95655107853E+02  0.75895911158E+02  0.68487468320E+02  0.91148016121E+03  0.90066390067E+03 0.  0.
         23    2    4    4    0    0  0.20149173091E+03  0.28456698021E+03  0.30395926420E+03  0.47140630403E+03  0.90859151104E+02 0.  0.
         23    2    4    4    0    0 -0.29714683876E+03 -0.20867106905E+03 -0.23547179588E+03  0.44007385717E+03  0.79863472683E+02 0.  0.
          1    1    3    3  502    0  0.66600752668E+02 -0.91182140362E+02 -0.20748603606E+03  0.23622086727E+03  0.00000000000E+00 0. -1.
         -2    1    3    3    0  502  0.29054355185E+02  0.15286229204E+02 -0.74340930833E+02  0.81267449545E+02  0.00000000000E+00 0.  1.
         13    1    5    5    0    0 -0.60590335462E+01  0.31943239734E+01 -0.16332138996E+01  0.70415183592E+01  0.00000000000E+00 0. -1.
        -13    1    5    5    0    0  0.20755076445E+03  0.28137265623E+03  0.30559247810E+03  0.46436478567E+03  0.00000000000E+00 0.  1.
          2    1    6    6  503    0 -0.74068359859E+02 -0.13327726739E+02 -0.48031164007E+02  0.89279017401E+02  0.00000000000E+00 0. -1.
         -2    1    6    6    0  503 -0.22307847890E+03 -0.19534334231E+03 -0.18744063188E+03  0.35079483977E+03  0.00000000000E+00 0.  1.
<mgrwt>
<rscale>  0 0.12103098E+04</rscale>
<asrwt>0</asrwt>
<pdfrwt beam="1">  1        1 0.11094677E+00 0.12103098E+04</pdfrwt>
<pdfrwt beam="2">  1       -2 0.78125306E-01 0.12103098E+04</pdfrwt>
<totfact> 0.32878476E+01</totfact>
</mgrwt>
</event>
<event>
12    5  0.5197392E-008  0.1988037E+04  0.7818608E-02  0.8612234E-01
         -2   -1    0    0    0  501 -0.00000000000E+00  0.00000000000E+00  0.69700821997E+03  0.69700821997E+03  0.00000000000E+00 0.  1.
          1   -1    0    0  501    0  0.00000000000E+00 -0.00000000000E+00 -0.14175914583E+04  0.14175914583E+04  0.00000000000E+00 0. -1.
        -24    2    1    2    0    0 -0.30687463327E+03 -0.59121155343E+03 -0.72589761869E+03  0.98845158875E+03  0.80037797438E+02 0.  0.
        254    2    1    2    0    0  0.30687463327E+03  0.59121155343E+03  0.53143803200E+01  0.11261480896E+04  0.90800778385E+03 0.  0.
         23    2    4    4    0    0 -0.48648003425E+02  0.10798989357E+03 -0.37971680045E+03  0.40751624859E+03  0.88635201610E+02 0.  0.
         23    2    4    4    0    0  0.35552263670E+03  0.48322165986E+03  0.38503118077E+03  0.71863184098E+03  0.91012059291E+02 0.  0.
          1    1    3    3  502    0 -0.24105385392E+03 -0.46909651518E+03 -0.52377470573E+03  0.74330239029E+03  0.00000000000E+00 0. -1.
         -2    1    3    3    0  502 -0.65820779352E+02 -0.12211503825E+03 -0.20212291296E+03  0.24514919846E+03  0.00000000000E+00 0.  1.
         13    1    5    5    0    0 -0.48774234377E+02  0.65453365660E+02 -0.12513265130E+03  0.14940297667E+03  0.00000000000E+00 0. -1.
        -13    1    5    5    0    0  0.12623095228E+00  0.42536527911E+02 -0.25458414916E+03  0.25811327192E+03  0.00000000000E+00 0.  1.
          2    1    6    6  503    0  0.10884550710E+03  0.12997140025E+03  0.63510527812E+02  0.18103451726E+03  0.00000000000E+00 0. -1.
         -2    1    6    6    0  503  0.24667712960E+03  0.35325025961E+03  0.32152065296E+03  0.53759732371E+03  0.00000000000E+00 0.  1.
<mgrwt>
<rscale>  0 0.19880371E+04</rscale>
<asrwt>0</asrwt>
<pdfrwt beam="1">  1        1 0.21809099E+00 0.19880371E+04</pdfrwt>
<pdfrwt beam="2">  1       -2 0.10723203E+00 0.19880371E+04</pdfrwt>
<totfact> 0.42525210E+00</totfact>
</mgrwt>
</event>
<event>
12    5  0.5197392E-008  0.2150958E+04  0.7818608E-02  0.8539122E-01
         -2   -1    0    0    0  501 -0.00000000000E+00  0.00000000000E+00  0.25455654051E+04  0.25455654051E+04  0.00000000000E+00 0.  1.
          1   -1    0    0  501    0  0.00000000000E+00 -0.00000000000E+00 -0.45438025624E+03  0.45438025624E+03  0.00000000000E+00 0. -1.
        -24    2    1    2    0    0 -0.12959931542E+03  0.60345717391E+02 -0.35387995671E+03  0.38976117345E+03  0.79026327252E+02 0.  0.
        254    2    1    2    0    0  0.12959931542E+03 -0.60345717391E+02  0.24450651056E+04  0.26101844879E+04  0.90237580982E+03 0.  0.
         23    2    4    4    0    0  0.36550173803E+03 -0.30960882421E+03  0.18872590191E+04  0.19489452158E+04  0.84803919746E+02 0.  0.
         23    2    4    4    0    0 -0.23590242261E+03  0.24926310682E+03  0.55780608651E+03  0.66123927204E+03  0.91146559589E+02 0.  0.
          3    1    3    3  502    0 -0.12816246099E+03  0.37519031768E+02 -0.25040491202E+03  0.28378850244E+03  0.00000000000E+00 0. -1.
         -4    1    3    3    0  502 -0.14368544347E+01  0.22826685622E+02 -0.10347504469E+03  0.10597267101E+03  0.00000000000E+00 0.  1.
         13    1    5    5    0    0  0.84588597753E+02 -0.50609177887E+02  0.27835392611E+03  0.29529210612E+03  0.00000000000E+00 0.  1.
        -13    1    5    5    0    0  0.28091314028E+03 -0.25899964633E+03  0.16089050930E+04  0.16536531097E+04  0.00000000000E+00 0. -1.
          1    1    6    6  503    0 -0.14519763489E+03  0.16787474980E+03  0.27574108843E+03  0.35397377395E+03  0.00000000000E+00 0. -1.
         -1    1    6    6    0  503 -0.90704787721E+02  0.81388357028E+02  0.28206499808E+03  0.30726549809E+03  0.00000000000E+00 0.  1.
<mgrwt>
<rscale>  0 0.21509576E+04</rscale>
<asrwt>0</asrwt>
<pdfrwt beam="1">  1        1 0.69904656E-01 0.21509576E+04</pdfrwt>
<pdfrwt beam="2">  1       -2 0.39162544E+00 0.21509576E+04</pdfrwt>
<totfact> 0.34163928E-01</totfact>
</mgrwt>
</event>
<event>
12    5  0.5197392E-008  0.1472031E+04  0.7818608E-02  0.8903268E-01
          1   -1    0    0  501    0  0.00000000000E+00  0.00000000000E+00  0.15736479580E+04  0.15736479580E+04  0.00000000000E+00 0. -1.
         -2   -1    0    0    0  501 -0.00000000000E+00 -0.00000000000E+00 -0.34424413187E+03  0.34424413187E+03  0.00000000000E+00 0.  1.
        -24    2    1    2    0    0 -0.18884870403E+03 -0.36852579535E+03  0.13171261209E+03  0.44178328265E+03  0.79681627683E+02 0.  0.
        254    2    1    2    0    0  0.18884870403E+03  0.36852579535E+03  0.10976912140E+04  0.14761088072E+04  0.89582147469E+03 0.  0.
         23    2    4    4    0    0  0.43024585180E+03 -0.66683186531E+02  0.31741657166E+03  0.54639869810E+03  0.90775089972E+02 0.  0.
         23    2    4    4    0    0 -0.24139714777E+03  0.43520898188E+03  0.78027464237E+03  0.92971010911E+03  0.88616751232E+02 0.  0.
          3    1    3    3  502    0 -0.24799706843E+02 -0.87921813095E+02  0.58880651991E+02  0.10868395400E+03  0.00000000000E+00 0. -1.
         -4    1    3    3    0  502 -0.16404899719E+03 -0.28060398226E+03  0.72831960103E+02  0.33309932865E+03  0.00000000000E+00 0.  1.
         13    1    5    5    0    0  0.83074351048E+02 -0.26164274832E+02  0.24813665424E+02  0.90562879102E+02  0.00000000000E+00 0. -1.
        -13    1    5    5    0    0  0.34717150076E+03 -0.40518911699E+02  0.29260290624E+03  0.45583581900E+03  0.00000000000E+00 0.  1.
          4    1    6    6  503    0 -0.35489872620E+02  0.10751094068E+03  0.23727826000E+03  0.26290512755E+03  0.00000000000E+00 0. -1.
         -4    1    6    6    0  503 -0.20590727515E+03  0.32769804120E+03  0.54299638237E+03  0.66680498156E+03  0.00000000000E+00 0.  1.
<mgrwt>
<rscale>  0 0.14720314E+04</rscale>
<asrwt>0</asrwt>
<pdfrwt beam="1">  1        1 0.24209968E+00 0.14720314E+04</pdfrwt>
<pdfrwt beam="2">  1       -2 0.52960636E-01 0.14720314E+04</pdfrwt>
<totfact> 0.16644035E+01</totfact>
</mgrwt>
</event>
<event>
12    5  0.5541792E-008  0.1645930E+04  0.7818608E-02  0.8792818E-01
          1   -1    0    0  501    0  0.00000000000E+00  0.00000000000E+00  0.16767905206E+04  0.16767905206E+04  0.00000000000E+00 0. -1.
         -2   -1    0    0    0  501 -0.00000000000E+00 -0.00000000000E+00 -0.40390957340E+03  0.40390957340E+03  0.00000000000E+00 0.  1.
        -24    2    1    2    0    0 -0.21049979825E+02 -0.50361913769E+03  0.79546166456E+03  0.94515385661E+03  0.80505995935E+02 0.  0.
        254    2    1    2    0    0  0.21049979825E+02  0.50361913769E+03  0.47741928263E+03  0.11355462374E+04  0.89858819728E+03 0.  0.
         23    2    4    4    0    0  0.57655069083E+02  0.42438714536E+03 -0.17482679897E+03  0.47160215757E+03  0.91736738796E+02 0.  0.
         23    2    4    4    0    0 -0.36605089258E+02  0.79231992329E+02  0.65224608160E+03  0.66394407981E+03  0.88199483987E+02 0.  0.
          1    1    3    3  502    0 -0.85929679056E+01 -0.48437953715E+03  0.73307552536E+03  0.87869056043E+03  0.00000000000E+00 0. -1.
         -2    1    3    3    0  502 -0.12457011920E+02 -0.19239600542E+02  0.62386139196E+02  0.66463296177E+02  0.00000000000E+00 0.  1.
         13    1    5    5    0    0  0.75794487021E+02  0.35185763692E+03 -0.16585107767E+03  0.39630188101E+03  0.00000000000E+00 0.  1.
        -13    1    5    5    0    0 -0.18139417938E+02  0.72529508441E+02 -0.89757213001E+01  0.75300276564E+02  0.00000000000E+00 0. -1.
          3    1    6    6  503    0  0.14200467830E+00  0.14581305824E+02  0.10660632439E+02  0.18063325520E+02  0.00000000000E+00 0. -1.
         -3    1    6    6    0  503 -0.36747093936E+02  0.64650686505E+02  0.64158544917E+03  0.64588075429E+03  0.00000000000E+00 0.  1.
<mgrwt>
<rscale>  0 0.16459304E+04</rscale>
<asrwt>0</asrwt>
<pdfrwt beam="1">  1        1 0.25796777E+00 0.16459304E+04</pdfrwt>
<pdfrwt beam="2">  1       -2 0.62139935E-01 0.16459304E+04</pdfrwt>
<totfact> 0.99708269E+00</totfact>
</mgrwt>
</event>
<event>
12    5  0.6354883E-008  0.1741651E+04  0.7818608E-02  0.8737959E-01
          1   -1    0    0  501    0  0.00000000000E+00  0.00000000000E+00  0.22032865215E+04  0.22032865215E+04  0.00000000000E+00 0. -1.
         -2   -1    0    0    0  501 -0.00000000000E+00 -0.00000000000E+00 -0.34418455920E+03  0.34418455920E+03  0.00000000000E+00 0.  1.
        -24    2    1    2    0    0  0.44846903596E+03 -0.11410102778E+01  0.13424066778E+04  0.14176217978E+04  0.80436900846E+02 0.  0.
        254    2    1    2    0    0 -0.44846903596E+03  0.11410102778E+01  0.51669528450E+03  0.11298492829E+04  0.89914381877E+03 0.  0.
         23    2    4    4    0    0 -0.25428750807E+03  0.43818969801E+03  0.32049134863E+03  0.60618090730E+03  0.89823380176E+02 0.  0.
         23    2    4    4    0    0 -0.19418152788E+03 -0.43704868773E+03  0.19620393587E+03  0.52366837555E+03  0.83752981339E+02 0.  0.
          1    1    3    3  502    0  0.44541906622E+03 -0.80322093683E+01  0.13335456611E+04  0.14059895772E+04  0.00000000000E+00 0. -1.
         -4    1    3    3    0  502  0.30499697353E+01  0.68911990906E+01  0.88610166762E+01  0.11632220632E+02  0.00000000000E+00 0.  1.
         13    1    5    5    0    0  0.68968438168E+01  0.12629527113E+02  0.37377694615E+01  0.14867492400E+02  0.00000000000E+00 0.  1.
        -13    1    5    5    0    0 -0.26118435189E+03  0.42556017090E+03  0.31675357917E+03  0.59131341490E+03  0.00000000000E+00 0. -1.
          2    1    6    6  503    0 -0.20068596797E+03 -0.43319886072E+03  0.19603976727E+03  0.51610822607E+03  0.00000000000E+00 0. -1.
         -2    1    6    6    0  503  0.65044400857E+01 -0.38498270132E+01  0.16416860503E+00  0.75601494821E+01  0.00000000000E+00 0.  1.
<mgrwt>
<rscale>  0 0.17416512E+04</rscale>
<asrwt>0</asrwt>
<pdfrwt beam="1">  1        1 0.33896715E+00 0.17416512E+04</pdfrwt>
<pdfrwt beam="2">  1       -2 0.52951472E-01 0.17416512E+04</pdfrwt>
<totfact> 0.60737885E+00</totfact>
</mgrwt>
</event>
<event>
12    5  0.5197392E-008  0.1256175E+04  0.7818608E-02  0.9065060E-01
          1   -1    0    0  501    0  0.00000000000E+00  0.00000000000E+00  0.23800589320E+03  0.23800589320E+03  0.00000000000E+00 0. -1.
         -2   -1    0    0    0  501 -0.00000000000E+00 -0.00000000000E+00 -0.16574961412E+04  0.16574961412E+04  0.00000000000E+00 0.  1.
        -24    2    1    2    0    0  0.28062229312E+01 -0.20448030259E+03 -0.68095357588E+03  0.71544263715E+03  0.79626160976E+02 0.  0.
        254    2    1    2    0    0 -0.28062229312E+01  0.20448030259E+03 -0.73853667210E+03  0.11800593972E+04  0.89737600588E+03 0.  0.
         23    2    4    4    0    0 -0.13397636057E+03  0.48537970370E+03 -0.19403535984E+03  0.54681160007E+03  0.88374674816E+02 0.  0.
         23    2    4    4    0    0  0.13117013764E+03 -0.28089940111E+03 -0.54450131226E+03  0.63324779716E+03  0.91711585969E+02 0.  0.
          3    1    3    3  502    0 -0.23367691560E+02 -0.13532338071E+03 -0.34248713078E+03  0.36899309089E+03  0.00000000000E+00 0. -1.
         -4    1    3    3    0  502  0.26173914491E+02 -0.69156921888E+02 -0.33846644511E+03  0.34644954626E+03  0.00000000000E+00 0.  1.
         13    1    5    5    0    0 -0.81435816512E+02  0.40115543544E+03 -0.13357651020E+03  0.43058118825E+03  0.00000000000E+00 0. -1.
        -13    1    5    5    0    0 -0.52540544054E+02  0.84224268262E+02 -0.60458849634E+02  0.11623041182E+03  0.00000000000E+00 0.  1.
          1    1    6    6  503    0  0.50153431067E+02 -0.20430269901E+03 -0.38351833230E+03  0.43742573162E+03  0.00000000000E+00 0. -1.
         -1    1    6    6    0  503  0.81016706568E+02 -0.76596702094E+02 -0.16098297997E+03  0.19582206554E+03  0.00000000000E+00 0.  1.
<mgrwt>
<rscale>  0 0.12561749E+04</rscale>
<asrwt>0</asrwt>
<pdfrwt beam="1">  1        1 0.36616291E-01 0.12561749E+04</pdfrwt>
<pdfrwt beam="2">  1       -2 0.25499941E+00 0.12561749E+04</pdfrwt>
<totfact> 0.61190014E+00</totfact>
</mgrwt>
</event>
<event>
12    5  0.5197392E-008  0.1839069E+04  0.7818608E-02  0.8685795E-01
          1   -1    0    0  501    0  0.00000000000E+00  0.00000000000E+00  0.72614163429E+03  0.72614163429E+03  0.00000000000E+00 0. -1.
         -2   -1    0    0    0  501 -0.00000000000E+00 -0.00000000000E+00 -0.11644330412E+04  0.11644330412E+04  0.00000000000E+00 0.  1.
        -24    2    1    2    0    0  0.28356064092E+03 -0.17641267359E+03 -0.78093527086E+03  0.85296818442E+03  0.78528707363E+02 0.  0.
        254    2    1    2    0    0 -0.28356064092E+03  0.17641267359E+03  0.34264386398E+03  0.10376064910E+04  0.92070317924E+03 0.  0.
         23    2    4    4    0    0 -0.17201411354E+03  0.21689354695E+03 -0.27583857954E+03  0.40146730955E+03  0.91964192524E+02 0.  0.
         23    2    4    4    0    0 -0.11154652737E+03 -0.40480873364E+02  0.61848244352E+03  0.63613918150E+03  0.89839837602E+02 0.  0.
          3    1    3    3  502    0  0.67385942942E+02 -0.64084609958E+02 -0.14826585862E+03  0.17501562036E+03  0.00000000000E+00 0. -1.
         -4    1    3    3    0  502  0.21617469797E+03 -0.11232806363E+03 -0.63266941224E+03  0.67795256405E+03  0.00000000000E+00 0.  1.
         13    1    5    5    0    0 -0.14825918478E+03  0.18082545061E+03 -0.27110983700E+03  0.35802119096E+03  0.00000000000E+00 0.  1.
        -13    1    5    5    0    0 -0.23754928765E+02  0.36068096338E+02 -0.47287425392E+01  0.43446118585E+02  0.00000000000E+00 0. -1.
          3    1    6    6  503    0 -0.46947409141E+02  0.47346828834E+01  0.88220706753E+02  0.10004683677E+03  0.00000000000E+00 0. -1.
         -3    1    6    6    0  503 -0.64599118233E+02 -0.45215556248E+02  0.53026173676E+03  0.53609234473E+03  0.00000000000E+00 0.  1.
<mgrwt>
<rscale>  0 0.18390686E+04</rscale>
<asrwt>0</asrwt>
<pdfrwt beam="1">  1        1 0.11171410E+00 0.18390686E+04</pdfrwt>
<pdfrwt beam="2">  1       -2 0.17914354E+00 0.18390686E+04</pdfrwt>
<totfact> 0.38971658E+00</totfact>
</mgrwt>
</event>
<event>
12    5  0.5197392E-008  0.1466670E+04  0.7818608E-02  0.8906924E-01
          1   -1    0    0  501    0  0.00000000000E+00  0.00000000000E+00  0.79434656578E+03  0.79434656578E+03  0.00000000000E+00 0. -1.
         -2   -1    0    0    0  501 -0.00000000000E+00 -0.00000000000E+00 -0.67700974617E+03  0.67700974617E+03  0.00000000000E+00 0.  1.
        -24    2    1    2    0    0  0.22109664158E+03 -0.35780774067E+03 -0.17384564792E+03  0.46302373100E+03  0.85197194592E+02 0.  0.
        254    2    1    2    0    0 -0.22109664158E+03  0.35780774067E+03  0.29118246753E+03  0.10083325809E+04  0.86892880042E+03 0.  0.
         23    2    4    4    0    0  0.24971973831E+03  0.20827274793E+03  0.36889304247E+03  0.50015618969E+03  0.91305268600E+02 0.  0.
         23    2    4    4    0    0 -0.47081637989E+03  0.14953499273E+03 -0.77710574941E+02  0.50817639126E+03  0.90418657060E+02 0.  0.
          3    1    3    3  502    0  0.16887039938E+03 -0.28575302055E+03 -0.97973742377E+02  0.34607926077E+03  0.00000000000E+00 0. -1.
         -4    1    3    3    0  502  0.52226242201E+02 -0.72054720117E+02 -0.75871905548E+02  0.11694447023E+03  0.00000000000E+00 0.  1.
         13    1    5    5    0    0  0.23801528267E+03  0.16636026287E+03  0.29206674224E+03  0.41186161969E+03  0.00000000000E+00 0. -1.
        -13    1    5    5    0    0  0.11704455636E+02  0.41912485059E+02  0.76826300230E+02  0.88294570006E+02  0.00000000000E+00 0.  1.
          4    1    6    6  503    0 -0.16448068488E+03  0.86218288428E+02 -0.58799906165E+02  0.19479455311E+03  0.00000000000E+00 0.  1.
         -4    1    6    6    0  503 -0.30633569501E+03  0.63316704306E+02 -0.18910668776E+02  0.31338183814E+03  0.00000000000E+00 0. -1.
<mgrwt>
<rscale>  0 0.14666702E+04</rscale>
<asrwt>0</asrwt>
<pdfrwt beam="1">  1        1 0.12220716E+00 0.14666702E+04</pdfrwt>
<pdfrwt beam="2">  1       -2 0.10415535E+00 0.14666702E+04</pdfrwt>
<totfact> 0.14240942E+01</totfact>
</mgrwt>
</event>
<event>
12    5  0.5197392E-008  0.1402306E+04  0.7818608E-02  0.8952151E-01
          1   -1    0    0  501    0  0.00000000000E+00  0.00000000000E+00  0.12356708665E+04  0.12356708665E+04  0.00000000000E+00 0. -1.
         -2   -1    0    0    0  501 -0.00000000000E+00 -0.00000000000E+00 -0.39785322640E+03  0.39785322640E+03  0.00000000000E+00 0.  1.
        -24    2    1    2    0    0 -0.21360738057E+03 -0.21001410550E+03  0.54417567222E+03  0.62627369316E+03  0.79734176877E+02 0.  0.
        254    2    1    2    0    0  0.21360738057E+03  0.21001410550E+03  0.29364196792E+03  0.10072503998E+04  0.91574763172E+03 0.  0.
         23    2    4    4    0    0 -0.74314955561E+02 -0.26421141115E+03  0.33768134394E+03  0.44336798364E+03  0.84947610124E+02 0.  0.
         23    2    4    4    0    0  0.28792233613E+03  0.47422551665E+03 -0.44039376017E+02  0.56388241614E+03  0.90745800545E+02 0.  0.
          3    1    3    3  502    0 -0.17998586079E+03 -0.15960322266E+03  0.48598275136E+03  0.54226131467E+03  0.00000000000E+00 0. -1.
         -2    1    3    3    0  502 -0.33621519773E+02 -0.50410882840E+02  0.58192920859E+02  0.84012378484E+02  0.00000000000E+00 0.  1.
         13    1    5    5    0    0 -0.37558252782E+02 -0.17513576387E+03  0.15518168698E+03  0.23699053592E+03  0.00000000000E+00 0.  1.
        -13    1    5    5    0    0 -0.36756702778E+02 -0.89075647277E+02  0.18249965696E+03  0.20637744772E+03  0.00000000000E+00 0. -1.
          4    1    6    6  503    0  0.10125583500E+03  0.24144192722E+03 -0.44077673731E+02  0.26549913308E+03  0.00000000000E+00 0. -1.
         -4    1    6    6    0  503  0.18666650112E+03  0.23278358942E+03  0.38297713713E-01  0.29838328307E+03  0.00000000000E+00 0.  1.
<mgrwt>
<rscale>  0 0.14023062E+04</rscale>
<asrwt>0</asrwt>
<pdfrwt beam="1">  1        1 0.19010321E+00 0.14023062E+04</pdfrwt>
<pdfrwt beam="2">  1       -2 0.61208189E-01 0.14023062E+04</pdfrwt>
<totfact> 0.21365560E+01</totfact>
</mgrwt>
</event>
<event>
12    5  0.5197392E-008  0.1807011E+04  0.7818608E-02  0.8702580E-01
          1   -1    0    0  501    0  0.00000000000E+00  0.00000000000E+00  0.18923326431E+04  0.18923326431E+04  0.00000000000E+00 0. -1.
         -2   -1    0    0    0  501 -0.00000000000E+00 -0.00000000000E+00 -0.43138410844E+03  0.43138410844E+03  0.00000000000E+00 0.  1.
        -24    2    1    2    0    0  0.38020426429E+03  0.32010802801E+03  0.11442385416E+04  0.12500694607E+04  0.79795890217E+02 0.  0.
        254    2    1    2    0    0 -0.38020426429E+03 -0.32010802801E+03  0.31670999305E+03  0.10736472909E+04  0.89743459563E+03 0.  0.
         23    2    4    4    0    0 -0.17085140905E+03 -0.34942609756E+03  0.59222424651E+03  0.71438759001E+03  0.91275785195E+02 0.  0.
         23    2    4    4    0    0 -0.20935285525E+03  0.29318069556E+02 -0.27551425346E+03  0.35925970092E+03  0.92039456972E+02 0.  0.
          3    1    3    3  502    0  0.31548032460E+03  0.22904648364E+03  0.84307799356E+03  0.92885447197E+03  0.00000000000E+00 0. -1.
         -4    1    3    3    0  502  0.64723939696E+02  0.91061544366E+02  0.30116054809E+03  0.32121498869E+03  0.00000000000E+00 0.  1.
         13    1    5    5    0    0 -0.13998748053E+03 -0.27241401498E+03  0.39060314898E+03  0.49636348602E+03  0.00000000000E+00 0.  1.
        -13    1    5    5    0    0 -0.30863928524E+02 -0.77012082586E+02  0.20162109754E+03  0.21802410399E+03  0.00000000000E+00 0. -1.
          4    1    6    6  503    0 -0.14332490223E+02  0.47896859693E+00  0.60299480551E+01  0.15556669324E+02  0.00000000000E+00 0. -1.
         -4    1    6    6    0  503 -0.19502036502E+03  0.28839100959E+02 -0.28154420152E+03  0.34370303159E+03  0.00000000000E+00 0.  1.
<mgrwt>
<rscale>  0 0.18070110E+04</rscale>
<asrwt>0</asrwt>
<pdfrwt beam="1">  1        1 0.29112809E+00 0.18070110E+04</pdfrwt>
<pdfrwt beam="2">  1       -2 0.66366787E-01 0.18070110E+04</pdfrwt>
<totfact> 0.60942310E+00</totfact>
</mgrwt>
</event>
<event>
12    5  0.5197392E-008  0.2171886E+04  0.7818608E-02  0.8530222E-01
         -2   -1    0    0    0  501 -0.00000000000E+00  0.00000000000E+00  0.16121577986E+04  0.16121577986E+04  0.00000000000E+00 0.  1.
          1   -1    0    0  501    0  0.00000000000E+00 -0.00000000000E+00 -0.73148691994E+03  0.73148691994E+03  0.00000000000E+00 0. -1.
        -24    2    1    2    0    0 -0.53855902736E+03  0.25173168225E+03 -0.35505660373E+03  0.69707999377E+03  0.80253723097E+02 0.  0.
        254    2    1    2    0    0  0.53855902736E+03 -0.25173168225E+03  0.12357274824E+04  0.16465647248E+04  0.91144847158E+03 0.  0.
         23    2    4    4    0    0  0.61994917379E+03  0.12703496095E+03  0.99016304719E+03  0.11788439661E+04  0.93676982003E+02 0.  0.
         23    2    4    4    0    0 -0.81390146433E+02 -0.37876664320E+03  0.24556443524E+03  0.46772075872E+03  0.91500220496E+02 0.  0.
          3    1    3    3  502    0 -0.47860785375E+03  0.24523944502E+03 -0.33473010159E+03  0.63344463371E+03  0.00000000000E+00 0. -1.
         -4    1    3    3    0  502 -0.59951173606E+02  0.64922372288E+01 -0.20326502135E+02  0.63635360060E+02  0.00000000000E+00 0.  1.
         13    1    5    5    0    0  0.47614179495E+03  0.10594287686E+03  0.68605753844E+03  0.84178966976E+03  0.00000000000E+00 0. -1.
        -13    1    5    5    0    0  0.14380737884E+03  0.21092084090E+02  0.30410550874E+03  0.33705429632E+03  0.00000000000E+00 0.  1.
          4    1    6    6  503    0 -0.83585823592E+02 -0.37984616807E+03  0.25021303609E+03  0.46246758235E+03  0.00000000000E+00 0. -1.
         -4    1    6    6    0  503  0.21956771590E+01  0.10795248661E+01 -0.46486008496E+01  0.52531763708E+01  0.00000000000E+00 0.  1.
<mgrwt>
<rscale>  0 0.21718861E+04</rscale>
<asrwt>0</asrwt>
<pdfrwt beam="1">  1        1 0.11253645E+00 0.21718861E+04</pdfrwt>
<pdfrwt beam="2">  1       -2 0.24802428E+00 0.21718861E+04</pdfrwt>
<totfact> 0.13474407E+00</totfact>
</mgrwt>
</event>
<event>
12    5  0.5197392E-008  0.2835626E+04  0.7818608E-02  0.8292292E-01
         -4   -1    0    0    0  501 -0.00000000000E+00  0.00000000000E+00  0.20031668159E+04  0.20031668159E+04  0.00000000000E+00 0.  1.
          1   -1    0    0  501    0  0.00000000000E+00 -0.00000000000E+00 -0.10035082356E+04  0.10035082356E+04  0.00000000000E+00 0. -1.
        -24    2    1    2    0    0  0.81929720012E+03  0.17081766784E+03  0.14684163053E+04  0.16919999461E+04  0.78681598586E+02 0.  0.
        254    2    1    2    0    0 -0.81929720012E+03 -0.17081766784E+03 -0.46875772505E+03  0.13146751054E+04  0.89900514465E+03 0.  0.
         23    2    4    4    0    0 -0.62836991800E+03  0.11101957569E+03  0.91199161291E+02  0.65282332096E+03  0.10337747013E+03 0.  0.
         23    2    4    4    0    0 -0.19092728211E+03 -0.28183724353E+03 -0.55995688634E+03  0.66185178441E+03  0.92793378328E+02 0.  0.
          3    1    3    3  502    0  0.26644647076E+02  0.39038624587E+01  0.81770278150E+02  0.86090392894E+02  0.00000000000E+00 0. -1.
         -4    1    3    3    0  502  0.79265255304E+03  0.16691380538E+03  0.13866460272E+04  0.16059095532E+04  0.00000000000E+00 0.  1.
         13    1    5    5    0    0 -0.23146582007E+02 -0.15447618409E+02  0.80017889223E+01  0.28955514139E+02  0.00000000000E+00 0. -1.
        -13    1    5    5    0    0 -0.60522333600E+03  0.12646719410E+03  0.83197372368E+02  0.62386780682E+03  0.00000000000E+00 0.  1.
          2    1    6    6  503    0 -0.45536632882E+02 -0.14658324006E+03 -0.26597618773E+03  0.30708885301E+03  0.00000000000E+00 0. -1.
         -2    1    6    6    0  503 -0.14539064923E+03 -0.13525400347E+03 -0.29398069861E+03  0.35476293140E+03  0.00000000000E+00 0.  1.
<mgrwt>
<rscale>  0 0.28356265E+04</rscale>
<asrwt>0</asrwt>
<pdfrwt beam="1">  1        1 0.15438588E+00 0.28356265E+04</pdfrwt>
<pdfrwt beam="2">  1       -4 0.30817951E+00 0.28356265E+04</pdfrwt>
<totfact> 0.17081378E-01</totfact>
</mgrwt>
</event>
<event>
12    5  0.5197392E-008  0.1681491E+04  0.7818608E-02  0.8771992E-01
          1   -1    0    0  501    0  0.00000000000E+00  0.00000000000E+00  0.19280455252E+04  0.19280455252E+04  0.00000000000E+00 0. -1.
         -2   -1    0    0    0  501 -0.00000000000E+00 -0.00000000000E+00 -0.36661629151E+03  0.36661629151E+03  0.00000000000E+00 0.  1.
        -24    2    1    2    0    0 -0.23623799465E+03 -0.52361034694E+01 -0.19368978698E+03  0.31473825275E+03  0.75555458219E+02 0.  0.
        254    2    1    2    0    0  0.23623799465E+03  0.52361034694E+01  0.17551190207E+04  0.19799235639E+04  0.88533538023E+03 0.  0.
         23    2    4    4    0    0  0.17169032507E+03 -0.35604378165E+03  0.14127713853E+04  0.14697712919E+04  0.89777063244E+02 0.  0.
         23    2    4    4    0    0  0.64547669572E+02  0.36127988512E+03  0.34234763532E+03  0.51015227205E+03  0.91454252102E+02 0.  0.
          1    1    3    3  502    0 -0.42615992192E+02  0.24276058303E+02 -0.20027666226E+02  0.52976949815E+02  0.00000000000E+00 0. -1.
         -2    1    3    3    0  502 -0.19362200245E+03 -0.29512161773E+02 -0.17366212075E+03  0.26176130293E+03  0.00000000000E+00 0.  1.
         13    1    5    5    0    0 -0.31881721140E+01 -0.10060099653E+02  0.10451851942E+02  0.14852988099E+02  0.00000000000E+00 0. -1.
        -13    1    5    5    0    0  0.17487849719E+03 -0.34598368200E+03  0.14023195334E+04  0.14549183038E+04  0.00000000000E+00 0.  1.
          3    1    6    6  503    0 -0.97699322808E+01  0.71410684002E+01  0.12472786701E+00  0.12102148227E+02  0.00000000000E+00 0. -1.
         -3    1    6    6    0  503  0.74317601853E+02  0.35413881672E+03  0.34222290746E+03  0.49805012382E+03  0.00000000000E+00 0.  1.
<mgrwt>
<rscale>  0 0.16814909E+04</rscale>
<asrwt>0</asrwt>
<pdfrwt beam="1">  1        1 0.29662238E+00 0.16814909E+04</pdfrwt>
<pdfrwt beam="2">  1       -2 0.56402508E-01 0.16814909E+04</pdfrwt>
<totfact> 0.82324574E+00</totfact>
</mgrwt>
</event>
<event>
12    5  0.5197392E-008  0.2130186E+04  0.7818608E-02  0.8548061E-01
          1   -1    0    0  501    0  0.00000000000E+00  0.00000000000E+00  0.12173304802E+04  0.12173304802E+04  0.00000000000E+00 0. -1.
         -2   -1    0    0    0  501 -0.00000000000E+00 -0.00000000000E+00 -0.93189454132E+03  0.93189454132E+03  0.00000000000E+00 0.  1.
        -24    2    1    2    0    0 -0.50189995877E+03 -0.54507324223E+03 -0.32376331548E+03  0.81266846206E+03  0.81233840061E+02 0.  0.
        254    2    1    2    0    0  0.50189995877E+03  0.54507324223E+03  0.60919925439E+03  0.13365565595E+04  0.93072622031E+03 0.  0.
         23    2    4    4    0    0  0.80727403738E+02  0.37381347542E+03 -0.17127539071E+03  0.42893089317E+03  0.91613446235E+02 0.  0.
         23    2    4    4    0    0  0.42117255503E+03  0.17125976681E+03  0.78047464510E+03  0.90762566633E+03  0.89036226841E+02 0.  0.
          3    1    3    3  502    0 -0.19973788326E+03 -0.16001332048E+03 -0.11102557109E+03  0.27897340765E+03  0.00000000000E+00 0. -1.
         -4    1    3    3    0  502 -0.30216207551E+03 -0.38505992175E+03 -0.21273774439E+03  0.53369505441E+03  0.00000000000E+00 0.  1.
         13    1    5    5    0    0  0.70256632989E+02  0.37594722081E+03 -0.16822484499E+03  0.41781802951E+03  0.00000000000E+00 0. -1.
        -13    1    5    5    0    0  0.10470770748E+02 -0.21337453896E+01 -0.30505457226E+01  0.11112863657E+02  0.00000000000E+00 0.  1.
          3    1    6    6  503    0  0.25289991935E+03  0.55992610918E+02  0.42020389204E+03  0.49362420177E+03  0.00000000000E+00 0. -1.
         -3    1    6    6    0  503  0.16827263568E+03  0.11526715589E+03  0.36027075306E+03  0.41400146456E+03  0.00000000000E+00 0.  1.
<mgrwt>
<rscale>  0 0.21301865E+04</rscale>
<asrwt>0</asrwt>
<pdfrwt beam="1">  1        1 0.18728161E+00 0.21301865E+04</pdfrwt>
<pdfrwt beam="2">  1       -2 0.14336839E+00 0.21301865E+04</pdfrwt>
<totfact> 0.28191856E+00</totfact>
</mgrwt>
</event>
<event>
12    5  0.5197392E-008  0.1317961E+04  0.7818608E-02  0.9015442E-01
          1   -1    0    0  501    0  0.00000000000E+00  0.00000000000E+00  0.11170253076E+04  0.11170253076E+04  0.00000000000E+00 0. -1.
         -2   -1    0    0    0  501 -0.00000000000E+00 -0.00000000000E+00 -0.38876024549E+03  0.38876024549E+03  0.00000000000E+00 0.  1.
        -24    2    1    2    0    0 -0.28941651821E+02  0.34090025771E+03  0.28912820312E+03  0.45478595086E+03  0.78641835852E+02 0.  0.
        254    2    1    2    0    0  0.28941651821E+02 -0.34090025771E+03  0.43913685899E+03  0.10509996022E+04  0.89146417652E+03 0.  0.
         23    2    4    4    0    0 -0.31109605802E+03  0.13976777435E+03  0.21970939265E+03  0.41582549438E+03  0.91229581256E+02 0.  0.
         23    2    4    4    0    0  0.34003770984E+03 -0.48066803206E+03  0.21942746634E+03  0.63517410784E+03  0.92899586263E+02 0.  0.
          3    1    3    3  502    0 -0.14085123152E+02  0.15560154547E+03  0.81916104099E+02  0.17640997636E+03  0.00000000000E+00 0. -1.
         -4    1    3    3    0  502 -0.14856528669E+02  0.18529871224E+03  0.20721209902E+03  0.27837597451E+03  0.00000000000E+00 0.  1.
         13    1    5    5    0    0 -0.22707287746E+03  0.14387638624E+03  0.16305939197E+03  0.31440558440E+03  0.00000000000E+00 0.  1.
        -13    1    5    5    0    0 -0.84023180560E+02 -0.41086118832E+01  0.56650000676E+02  0.10141990998E+03  0.00000000000E+00 0. -1.
          3    1    6    6  503    0  0.14355884267E+03 -0.12980325840E+03  0.82187372782E+02  0.21026837957E+03  0.00000000000E+00 0. -1.
         -3    1    6    6    0  503  0.19647886716E+03 -0.35086477366E+03  0.13724009356E+03  0.42490572827E+03  0.00000000000E+00 0.  1.
<mgrwt>
<rscale>  0 0.13179606E+04</rscale>
<asrwt>0</asrwt>
<pdfrwt beam="1">  1        1 0.17185005E+00 0.13179606E+04</pdfrwt>
<pdfrwt beam="2">  1       -2 0.59809269E-01 0.13179606E+04</pdfrwt>
<totfact> 0.27618510E+01</totfact>
</mgrwt>
</event>
<event>
12    5  0.5197392E-008  0.1921975E+04  0.7818608E-02  0.8643995E-01
         -2   -1    0    0    0  501 -0.00000000000E+00  0.00000000000E+00  0.12527657349E+04  0.12527657349E+04  0.00000000000E+00 0.  1.
          1   -1    0    0  501    0  0.00000000000E+00 -0.00000000000E+00 -0.73716650458E+03  0.73716650458E+03  0.00000000000E+00 0. -1.
        -24    2    1    2    0    0  0.57247782267E+03  0.45003166244E+03  0.37825620824E+03  0.82493977072E+03  0.84785090646E+02 0.  0.
        254    2    1    2    0    0 -0.57247782267E+03 -0.45003166244E+03  0.13734302208E+03  0.11649924688E+04  0.89893547705E+03 0.  0.
         23    2    4    4    0    0  0.15791319592E+03 -0.11438100006E+03 -0.19423452100E+03  0.29053039701E+03  0.93065954137E+02 0.  0.
         23    2    4    4    0    0 -0.73039101859E+03 -0.33565066238E+03  0.33157754308E+03  0.87446207175E+03  0.92778449340E+02 0.  0.
          3    1    3    3  502    0  0.64035202207E+02  0.81191474080E+02  0.72862080028E+02  0.12649681929E+03  0.00000000000E+00 0. -1.
         -4    1    3    3    0  502  0.50844262047E+03  0.36884018836E+03  0.30539412821E+03  0.69844295143E+03  0.00000000000E+00 0.  1.
         13    1    5    5    0    0  0.44350074860E+02 -0.28703257599E+02 -0.39881243294E+01  0.52978403832E+02  0.00000000000E+00 0. -1.
        -13    1    5    5    0    0  0.11356312106E+03 -0.85677742463E+02 -0.19024639667E+03  0.23755199318E+03  0.00000000000E+00 0.  1.
          2    1    6    6  503    0 -0.79931319465E+02 -0.53458733049E+02  0.12605384638E+02  0.96983234079E+02  0.00000000000E+00 0. -1.
         -2    1    6    6    0  503 -0.65045969913E+03 -0.28219192933E+03  0.31897215844E+03  0.77747883767E+03  0.00000000000E+00 0.  1.
<mgrwt>
<rscale>  0 0.19219750E+04</rscale>
<asrwt>0</asrwt>
<pdfrwt beam="1">  1        1 0.11341023E+00 0.19219750E+04</pdfrwt>
<pdfrwt beam="2">  1       -2 0.19273319E+00 0.19219750E+04</pdfrwt>
<totfact> 0.30566689E+00</totfact>
</mgrwt>
</event>
<event>
12    5  0.5197392E-008  0.2842836E+04  0.7818608E-02  0.8290092E-01
         -2   -1    0    0    0  501 -0.00000000000E+00  0.00000000000E+00  0.12259467286E+04  0.12259467286E+04  0.00000000000E+00 0.  1.
          1   -1    0    0  501    0  0.00000000000E+00 -0.00000000000E+00 -0.16480556426E+04  0.16480556426E+04  0.00000000000E+00 0. -1.
        -24    2    1    2    0    0  0.64818960255E+03  0.64703012373E+03  0.71049521399E+03  0.11618799055E+04  0.79772951729E+02 0.  0.
        254    2    1    2    0    0 -0.64818960255E+03 -0.64703012373E+03 -0.11326041280E+04  0.17121224657E+04  0.89987414943E+03 0.  0.
         23    2    4    4    0    0 -0.30966989672E+03  0.15022022880E+03 -0.11783755217E+03  0.37459153934E+03  0.89283652315E+02 0.  0.
         23    2    4    4    0    0 -0.33851970583E+03 -0.79725035253E+03 -0.10147665759E+04  0.13375309264E+04  0.95047670252E+02 0.  0.
          3    1    3    3  502    0  0.31993045999E+03  0.28403395192E+03  0.37063645148E+03  0.56604077966E+03  0.00000000000E+00 0. -1.
         -4    1    3    3    0  502  0.32825914256E+03  0.36299617181E+03  0.33985876250E+03  0.59583912583E+03  0.00000000000E+00 0.  1.
         13    1    5    5    0    0 -0.12817703805E+03  0.99976160788E+02 -0.84974487753E+02  0.18342641407E+03  0.00000000000E+00 0.  1.
        -13    1    5    5    0    0 -0.18149285866E+03  0.50244068008E+02 -0.32863064417E+02  0.19116512527E+03  0.00000000000E+00 0. -1.
          1    1    6    6  503    0 -0.26736154506E+02 -0.10415691624E+03 -0.17056539319E+03  0.20163342608E+03  0.00000000000E+00 0. -1.
         -1    1    6    6    0  503 -0.31178355132E+03 -0.69309343629E+03 -0.84420118267E+03  0.11358975003E+04  0.00000000000E+00 0.  1.
<mgrwt>
<rscale>  0 0.28428355E+04</rscale>
<asrwt>0</asrwt>
<pdfrwt beam="1">  1        1 0.25354702E+00 0.28428355E+04</pdfrwt>
<pdfrwt beam="2">  1       -2 0.18860719E+00 0.28428355E+04</pdfrwt>
<totfact> 0.62077819E-01</totfact>
</mgrwt>
</event>
<event>
12    5  0.5197392E-008  0.2029117E+04  0.7818608E-02  0.8593127E-01
          1   -1    0    0  501    0  0.00000000000E+00  0.00000000000E+00  0.14772019318E+04  0.14772019318E+04  0.00000000000E+00 0. -1.
         -2   -1    0    0    0  501 -0.00000000000E+00 -0.00000000000E+00 -0.69680997145E+03  0.69680997145E+03  0.00000000000E+00 0.  1.
        -24    2    1    2    0    0 -0.75904628205E+03 -0.18983253539E+02  0.63104113753E+03  0.99046229439E+03  0.79315932514E+02 0.  0.
        254    2    1    2    0    0  0.75904628205E+03  0.18983253539E+02  0.14935082279E+03  0.11835496088E+04  0.89552910957E+03 0.  0.
         23    2    4    4    0    0  0.84719537228E+03 -0.74640933368E+02 -0.12761432329E+03  0.86494228597E+03  0.92349741722E+02 0.  0.
         23    2    4    4    0    0 -0.88149090228E+02  0.93624186907E+02  0.27696514608E+03  0.31860732287E+03  0.90913054936E+02 0.  0.
          1    1    3    3  502    0 -0.66185970541E+03 -0.94783855401E+01  0.51416289578E+03  0.83815964639E+03  0.00000000000E+00 0. -1.
         -2    1    3    3    0  502 -0.97186576641E+02 -0.95048679986E+01  0.11687824175E+03  0.15230264800E+03  0.00000000000E+00 0.  1.
         13    1    5    5    0    0  0.54584480572E+03 -0.45803018438E+02 -0.12664730130E+03  0.56221348913E+03  0.00000000000E+00 0.  1.
        -13    1    5    5    0    0  0.30135056656E+03 -0.28837914930E+02 -0.96702198645E+00  0.30272879684E+03  0.00000000000E+00 0. -1.
          4    1    6    6  503    0 -0.14243133321E+01 -0.69461358092E+01  0.84362653453E+02  0.84660113210E+02  0.00000000000E+00 0. -1.
         -4    1    6    6    0  503 -0.86724776896E+02  0.10057032272E+03  0.19260249263E+03  0.23394720966E+03  0.00000000000E+00 0.  1.
<mgrwt>
<rscale>  0 0.20291171E+04</rscale>
<asrwt>0</asrwt>
<pdfrwt beam="1">  1        1 0.22726184E+00 0.20291171E+04</pdfrwt>
<pdfrwt beam="2">  1       -2 0.10720153E+00 0.20291171E+04</pdfrwt>
<totfact> 0.38532571E+00</totfact>
</mgrwt>
</event>
<event>
12    5  0.5197392E-008  0.2764045E+04  0.7818608E-02  0.8314519E-01
          1   -1    0    0  501    0  0.00000000000E+00  0.00000000000E+00  0.25319464860E+04  0.25319464860E+04  0.00000000000E+00 0. -1.
         -2   -1    0    0    0  501 -0.00000000000E+00 -0.00000000000E+00 -0.75435496129E+03  0.75435496129E+03  0.00000000000E+00 0.  1.
        -24    2    1    2    0    0  0.95815385996E+03 -0.76616077036E+03  0.96086791343E+03  0.15604128710E+04  0.80994046203E+02 0.  0.
        254    2    1    2    0    0 -0.95815385996E+03  0.76616077036E+03  0.81672361133E+03  0.17258885763E+04  0.89810510255E+03 0.  0.
         23    2    4    4    0    0 -0.38848407260E+03  0.17889692614E+03  0.78868205970E+03  0.90170530901E+03  0.90161456077E+02 0.  0.
         23    2    4    4    0    0 -0.56966978736E+03  0.58726384422E+03  0.28041551633E+02  0.82418326733E+03  0.95337506593E+02 0.  0.
          3    1    3    3  502    0  0.20980320386E+02 -0.21195107863E+02  0.40683261257E+02  0.50443376050E+02  0.00000000000E+00 0. -1.
         -4    1    3    3    0  502  0.93717353958E+03 -0.74496566250E+03  0.92018465217E+03  0.15099694949E+04  0.00000000000E+00 0.  1.
         13    1    5    5    0    0 -0.62309013438E+02  0.59077746114E+02  0.11314866069E+03  0.14203947570E+03  0.00000000000E+00 0. -1.
        -13    1    5    5    0    0 -0.32617505916E+03  0.11981918002E+03  0.67553339901E+03  0.75966583331E+03  0.00000000000E+00 0.  1.
          2    1    6    6  503    0 -0.59976855083E+02  0.31095310106E+02 -0.12481203142E+02  0.68701687666E+02  0.00000000000E+00 0. -1.
         -2    1    6    6    0  503 -0.50969293228E+03  0.55616853412E+03  0.40522754775E+02  0.75548157966E+03  0.00000000000E+00 0.  1.
<mgrwt>
<rscale>  0 0.27640451E+04</rscale>
<asrwt>0</asrwt>
<pdfrwt beam="1">  1        1 0.38953023E+00 0.27640451E+04</pdfrwt>
<pdfrwt beam="2">  1       -2 0.11605461E+00 0.27640451E+04</pdfrwt>
<totfact> 0.56669837E-01</totfact>
</mgrwt>
</event>
<event>
12    5  0.5197392E-008  0.2791431E+04  0.7818608E-02  0.8305934E-01
          1   -1    0    0  501    0  0.00000000000E+00  0.00000000000E+00  0.36912290878E+04  0.36912290878E+04  0.00000000000E+00 0. -1.
         -2   -1    0    0    0  501 -0.00000000000E+00 -0.00000000000E+00 -0.52774330433E+03  0.52774330433E+03  0.00000000000E+00 0.  1.
        -24    2    1    2    0    0 -0.10579726716E+03  0.48069500221E+03 -0.31545435091E+03  0.59007840216E+03  0.80126938713E+02 0.  0.
        254    2    1    2    0    0  0.10579726716E+03 -0.48069500221E+03  0.34789401343E+04  0.36288939899E+04  0.90751660311E+03 0.  0.
         23    2    4    4    0    0 -0.35270132067E+03 -0.40157531233E+03  0.21686726805E+04  0.22355113875E+04  0.93322105530E+02 0.  0.
         23    2    4    4    0    0  0.45849858783E+03 -0.79119689877E+02  0.13102674538E+04  0.13933826024E+04  0.90738061519E+02 0.  0.
          1    1    3    3  502    0 -0.77826070083E+02  0.32301863078E+03 -0.25528768062E+03  0.41901042098E+03  0.00000000000E+00 0. -1.
         -2    1    3    3    0  502 -0.27971197073E+02  0.15767637142E+03 -0.60166670291E+02  0.17106798118E+03  0.00000000000E+00 0.  1.
         13    1    5    5    0    0 -0.50075786907E+02 -0.11426414070E+03  0.54123846461E+03  0.55543042216E+03  0.00000000000E+00 0.  1.
        -13    1    5    5    0    0 -0.30262553376E+03 -0.28731117163E+03  0.16274342159E+04  0.16800809654E+04  0.00000000000E+00 0. -1.
          1    1    6    6  503    0  0.44938435408E+03 -0.64574404882E+02  0.12849412785E+04  0.13627876726E+04  0.00000000000E+00 0. -1.
         -1    1    6    6    0  503  0.91142337449E+01 -0.14545284995E+02  0.25326175273E+02  0.30594929748E+02  0.00000000000E+00 0.  1.
<mgrwt>
<rscale>  0 0.27914308E+04</rscale>
<asrwt>0</asrwt>
<pdfrwt beam="1">  1        1 0.56788138E+00 0.27914308E+04</pdfrwt>
<pdfrwt beam="2">  1       -2 0.81191280E-01 0.27914308E+04</pdfrwt>
<totfact> 0.17875741E-01</totfact>
</mgrwt>
</event>
<event>
12    5  0.5197392E-008  0.2424388E+04  0.7818608E-02  0.8430429E-01
         -2   -1    0    0    0  501 -0.00000000000E+00  0.00000000000E+00  0.57624553763E+03  0.57624553763E+03  0.00000000000E+00 0.  1.
          1   -1    0    0  501    0  0.00000000000E+00 -0.00000000000E+00 -0.25499804057E+04  0.25499804057E+04  0.00000000000E+00 0. -1.
        -24    2    1    2    0    0  0.70187444001E+03  0.13717910457E+03 -0.18449367958E+04  0.19802607780E+04  0.78709162934E+02 0.  0.
        254    2    1    2    0    0 -0.70187444001E+03 -0.13717910457E+03 -0.12879807227E+03  0.11459651653E+04  0.88611589555E+03 0.  0.
         23    2    4    4    0    0  0.15689467870E+03  0.43305889261E+02 -0.18229587713E+03  0.26238706986E+03  0.95518832491E+02 0.  0.
         23    2    4    4    0    0 -0.85876911871E+03 -0.18048499383E+03  0.53497804864E+02  0.88357809542E+03  0.88255330295E+02 0.  0.
          1    1    3    3  502    0  0.66614011692E+03  0.13632528095E+03 -0.16989407505E+04  0.18299527074E+04  0.00000000000E+00 0. -1.
         -2    1    3    3    0  502  0.35734323090E+02  0.85382361824E+00 -0.14599604530E+03  0.15030807066E+03  0.00000000000E+00 0.  1.
         13    1    5    5    0    0  0.76483374849E+02  0.42649485140E+02 -0.34481821630E+02  0.94115255055E+02  0.00000000000E+00 0.  1.
        -13    1    5    5    0    0  0.80411303853E+02  0.65640412017E+00 -0.14781405550E+03  0.16827181481E+03  0.00000000000E+00 0. -1.
          2    1    6    6  503    0 -0.46606106072E+01 -0.62526362757E+01 -0.60175428796E+01  0.98502575568E+01  0.00000000000E+00 0.  1.
         -2    1    6    6    0  503 -0.85410850811E+03 -0.17423235755E+03  0.59515347744E+02  0.87372783786E+03  0.00000000000E+00 0. -1.
<mgrwt>
<rscale>  0 0.24243884E+04</rscale>
<asrwt>0</asrwt>
<pdfrwt beam="1">  1        1 0.39230468E+00 0.24243884E+04</pdfrwt>
<pdfrwt beam="2">  1       -2 0.88653160E-01 0.24243884E+04</pdfrwt>
<totfact> 0.10754238E+00</totfact>
</mgrwt>
</event>
<event>
12    5  0.5197392E-008  0.1157766E+04  0.7818608E-02  0.9150649E-01
          1   -1    0    0  501    0  0.00000000000E+00  0.00000000000E+00  0.10793865243E+04  0.10793865243E+04  0.00000000000E+00 0. -1.
         -2   -1    0    0    0  501 -0.00000000000E+00 -0.00000000000E+00 -0.31045942748E+03  0.31045942748E+03  0.00000000000E+00 0.  1.
        -24    2    1    2    0    0 -0.20978576930E+03  0.11594246019E+02  0.72452225848E+02  0.23627099734E+03  0.80188300951E+02 0.  0.
        254    2    1    2    0    0  0.20978576930E+03 -0.11594246019E+02  0.69647487102E+03  0.11535749545E+04  0.89527282664E+03 0.  0.
         23    2    4    4    0    0 -0.15872340550E+03 -0.23102979332E+03 -0.39252014749E+02  0.29719539531E+03  0.90644897682E+02 0.  0.
         23    2    4    4    0    0  0.36850917480E+03  0.21943554730E+03  0.73572688577E+03  0.85637955918E+03  0.90227089048E+02 0.  0.
          1    1    3    3  502    0  0.39351284180E+00 -0.78945350922E+01  0.15883272591E+02  0.17741389035E+02  0.00000000000E+00 0. -1.
         -2    1    3    3    0  502 -0.21017928214E+03  0.19488781111E+02  0.56568953256E+02  0.21852960830E+03  0.00000000000E+00 0.  1.
         13    1    5    5    0    0 -0.14827353124E+03 -0.18803292569E+03 -0.62120048676E+02  0.24738698764E+03  0.00000000000E+00 0. -1.
        -13    1    5    5    0    0 -0.10449874263E+02 -0.42996867638E+02  0.22868033927E+02  0.49808407669E+02  0.00000000000E+00 0.  1.
          4    1    6    6  503    0  0.19725111132E+03  0.97279962646E+02  0.45711163633E+03  0.50726959313E+03  0.00000000000E+00 0. -1.
         -4    1    6    6    0  503  0.17125806348E+03  0.12215558466E+03  0.27861524944E+03  0.34910996605E+03  0.00000000000E+00 0.  1.
<mgrwt>
<rscale>  0 0.11577663E+04</rscale>
<asrwt>0</asrwt>
<pdfrwt beam="1">  1        1 0.16605946E+00 0.11577663E+04</pdfrwt>
<pdfrwt beam="2">  1       -2 0.47762989E-01 0.11577663E+04</pdfrwt>
<totfact> 0.47503244E+01</totfact>
</mgrwt>
</event>
<event>
12    5  0.5197392E-008  0.1590615E+04  0.7818608E-02  0.8826334E-01
         -2   -1    0    0    0  501 -0.00000000000E+00  0.00000000000E+00  0.95527633064E+03  0.95527633064E+03  0.00000000000E+00 0.  1.
          1   -1    0    0  501    0  0.00000000000E+00 -0.00000000000E+00 -0.66212675660E+03  0.66212675660E+03  0.00000000000E+00 0. -1.
        -24    2    1    2    0    0 -0.28635386590E+03 -0.37550283273E+03 -0.16936860845E+03  0.50824000067E+03  0.81371118068E+02 0.  0.
        254    2    1    2    0    0  0.28635386590E+03  0.37550283273E+03  0.46251818249E+03  0.11091630866E+04  0.89068443883E+03 0.  0.
         23    2    4    4    0    0 -0.64528292293E+02  0.44508489939E+03 -0.66932881337E+02  0.46379798647E+03  0.91455417993E+02 0.  0.
         23    2    4    4    0    0  0.35088215819E+03 -0.69582066660E+02  0.52945106383E+03  0.64536510010E+03  0.90651698832E+02 0.  0.
          3    1    3    3  502    0 -0.21118063655E+03 -0.21819139286E+03 -0.90267722171E+02  0.31678542712E+03  0.00000000000E+00 0. -1.
         -4    1    3    3    0  502 -0.75173229350E+02 -0.15731143986E+03 -0.79100886276E+02  0.19145457355E+03  0.00000000000E+00 0.  1.
         13    1    5    5    0    0 -0.51628557503E+02  0.34760964701E+03 -0.13023740922E+02  0.35166403352E+03  0.00000000000E+00 0.  1.
        -13    1    5    5    0    0 -0.12899734790E+02  0.97475252375E+02 -0.53909140415E+02  0.11213395295E+03  0.00000000000E+00 0. -1.
          1    1    6    6  503    0  0.11381290837E+02 -0.17063011724E+02  0.10592082996E+02  0.23084028513E+02  0.00000000000E+00 0. -1.
         -1    1    6    6    0  503  0.33950086735E+03 -0.52519054936E+02  0.51885898083E+03  0.62228107159E+03  0.00000000000E+00 0.  1.
<mgrwt>
<rscale>  0 0.15906150E+04</rscale>
<asrwt>0</asrwt>
<pdfrwt beam="1">  1        1 0.10186566E+00 0.15906150E+04</pdfrwt>
<pdfrwt beam="2">  1       -2 0.14696559E+00 0.15906150E+04</pdfrwt>
<totfact> 0.78730893E+00</totfact>
</mgrwt>
</event>
<event>
12    5  0.5197392E-008  0.1747869E+04  0.7818608E-02  0.8734524E-01
          1   -1    0    0  501    0  0.00000000000E+00  0.00000000000E+00  0.16316117949E+04  0.16316117949E+04  0.00000000000E+00 0. -1.
         -2   -1    0    0    0  501 -0.00000000000E+00 -0.00000000000E+00 -0.46810262645E+03  0.46810262645E+03  0.00000000000E+00 0.  1.
        -24    2    1    2    0    0 -0.50067352133E+03  0.21517559159E+03  0.31852693496E+02  0.55096044157E+03  0.74621068863E+02 0.  0.
        254    2    1    2    0    0  0.50067352133E+03 -0.21517559159E+03  0.11316564749E+04  0.15487539797E+04  0.90610043725E+03 0.  0.
         23    2    4    4    0    0 -0.93176835665E+02 -0.15039425302E+03 -0.64262523520E+02  0.20848971319E+03  0.89654528781E+02 0.  0.
         23    2    4    4    0    0  0.59385035700E+03 -0.64781338571E+02  0.11959189984E+04  0.13402642666E+04  0.96079056255E+02 0.  0.
          3    1    3    3  502    0 -0.58009198442E+02  0.10519616434E+02  0.22746804008E+02  0.63191348509E+02  0.00000000000E+00 0. -1.
         -4    1    3    3    0  502 -0.44266432289E+03  0.20465597516E+03  0.91058894882E+01  0.48776909307E+03  0.00000000000E+00 0.  1.
         13    1    5    5    0    0 -0.21814541023E+02 -0.19838611117E+02  0.21741315493E+02  0.36635085512E+02  0.00000000000E+00 0. -1.
        -13    1    5    5    0    0 -0.71362294643E+02 -0.13055564191E+03 -0.86003839013E+02  0.17185462768E+03  0.00000000000E+00 0.  1.
          1    1    6    6  503    0  0.45710737600E+03 -0.80143528004E+02  0.85937188109E+03  0.97667300991E+03  0.00000000000E+00 0. -1.
         -1    1    6    6    0  503  0.13674298100E+03  0.15362189433E+02  0.33654711735E+03  0.36359125665E+03  0.00000000000E+00 0.  1.
<mgrwt>
<rscale>  0 0.17478693E+04</rscale>
<asrwt>0</asrwt>
<pdfrwt beam="1">  1        1 0.25101720E+00 0.17478693E+04</pdfrwt>
<pdfrwt beam="2">  1       -2 0.72015790E-01 0.17478693E+04</pdfrwt>
<totfact> 0.77127699E+00</totfact>
</mgrwt>
</event>
<event>
12    5  0.5197392E-008  0.1386560E+04  0.7818608E-02  0.8963605E-01
          1   -1    0    0  501    0  0.00000000000E+00  0.00000000000E+00  0.21759495770E+04  0.21759495770E+04  0.00000000000E+00 0. -1.
         -2   -1    0    0    0  501 -0.00000000000E+00 -0.00000000000E+00 -0.22088626165E+03  0.22088626165E+03  0.00000000000E+00 0.  1.
        -24    2    1    2    0    0  0.38596179517E+03  0.16109217772E+03  0.36287340340E+03  0.56238923547E+03  0.98424327401E+02 0.  0.
        254    2    1    2    0    0 -0.38596179517E+03 -0.16109217772E+03  0.15921899119E+04  0.18344466032E+04  0.80944945927E+03 0.  0.
         23    2    4    4    0    0 -0.33710750045E+03 -0.74209390136E+02  0.16493503191E+04  0.16875244914E+04  0.90741023925E+02 0.  0.
         23    2    4    4    0    0 -0.48854294721E+02 -0.86882787582E+02 -0.57160407198E+02  0.14692211175E+03  0.91561093698E+02 0.  0.
          3    1    3    3  502    0  0.20021049742E+02  0.14355442770E+02 -0.26196050597E+01  0.24774654398E+02  0.00000000000E+00 0. -1.
         -4    1    3    3    0  502  0.36594074543E+03  0.14673673495E+03  0.36549300846E+03  0.53761458107E+03  0.00000000000E+00 0.  1.
         13    1    5    5    0    0 -0.10361370731E+03  0.15226561813E+02  0.57528110780E+03  0.58473583909E+03  0.00000000000E+00 0.  1.
        -13    1    5    5    0    0 -0.23349379314E+03 -0.89435951949E+02  0.10740692113E+04  0.11027886523E+04  0.00000000000E+00 0. -1.
          1    1    6    6  503    0 -0.43122867371E+02 -0.97971281807E+02 -0.70873862307E+02  0.12837857340E+03  0.00000000000E+00 0. -1.
         -1    1    6    6    0  503 -0.57314273502E+01  0.11088494225E+02  0.13713455108E+02  0.18543538353E+02  0.00000000000E+00 0.  1.
<mgrwt>
<rscale>  0 0.13865603E+04</rscale>
<asrwt>0</asrwt>
<pdfrwt beam="1">  1        1 0.33476146E+00 0.13865603E+04</pdfrwt>
<pdfrwt beam="2">  1       -2 0.33982503E-01 0.13865603E+04</pdfrwt>
<totfact> 0.15740654E+01</totfact>
</mgrwt>
</event>
<event>
12    5  0.5197392E-008  0.1227647E+04  0.7818608E-02  0.9088996E-01
          1   -1    0    0  501    0  0.00000000000E+00  0.00000000000E+00  0.38545243437E+03  0.38545243437E+03  0.00000000000E+00 0. -1.
         -2   -1    0    0    0  501 -0.00000000000E+00 -0.00000000000E+00 -0.97749799738E+03  0.97749799738E+03  0.00000000000E+00 0.  1.
        -24    2    1    2    0    0 -0.21781320362E+03  0.14877622961E+03 -0.26732793397E+03  0.38380370962E+03  0.79146099487E+02 0.  0.
        254    2    1    2    0    0  0.21781320362E+03 -0.14877622961E+03 -0.32471762904E+03  0.97914672214E+03  0.88527385971E+03 0.  0.
         23    2    4    4    0    0  0.40870567913E+02  0.50556839308E+02 -0.58485416167E+03  0.59548464017E+03  0.91220441466E+02 0.  0.
         23    2    4    4    0    0  0.17694263571E+03 -0.19933306892E+03  0.26013653262E+03  0.38366208196E+03  0.92104336684E+02 0.  0.
          1    1    3    3  502    0 -0.69954400594E+02  0.50067069145E+02 -0.39070883216E+02  0.94482080261E+02  0.00000000000E+00 0. -1.
         -2    1    3    3    0  502 -0.14785880303E+03  0.98709160466E+02 -0.22825705076E+03  0.28932162935E+03  0.00000000000E+00 0.  1.
         13    1    5    5    0    0  0.57758097052E+02  0.20971865563E+01 -0.37612056505E+03  0.38053524859E+03  0.00000000000E+00 0. -1.
        -13    1    5    5    0    0 -0.16887529139E+02  0.48459652752E+02 -0.20873359662E+03  0.21494939158E+03  0.00000000000E+00 0.  1.
          1    1    6    6  503    0  0.14312119634E+03 -0.18221893487E+03  0.17467043997E+03  0.29016750277E+03  0.00000000000E+00 0. -1.
         -1    1    6    6    0  503  0.33821439373E+02 -0.17114134054E+02  0.85466092651E+02  0.93494579194E+02  0.00000000000E+00 0.  1.
<mgrwt>
<rscale>  0 0.12276465E+04</rscale>
<asrwt>0</asrwt>
<pdfrwt beam="1">  1        1 0.59300375E-01 0.12276465E+04</pdfrwt>
<pdfrwt beam="2">  1       -2 0.15038431E+00 0.12276465E+04</pdfrwt>
<totfact> 0.16169183E+01</totfact>
</mgrwt>
</event>
<event>
12    5  0.5197392E-008  0.2125374E+04  0.7818608E-02  0.8550148E-01
          1   -1    0    0  501    0  0.00000000000E+00  0.00000000000E+00  0.20125670186E+04  0.20125670186E+04  0.00000000000E+00 0. -1.
         -2   -1    0    0    0  501 -0.00000000000E+00 -0.00000000000E+00 -0.56112573800E+03  0.56112573800E+03  0.00000000000E+00 0.  1.
        -24    2    1    2    0    0 -0.31292163550E+02 -0.72628342389E+03  0.13783090404E+02  0.73125522361E+03  0.77957790864E+02 0.  0.
        254    2    1    2    0    0  0.31292163550E+02  0.72628342389E+03  0.14376581902E+04  0.18424375330E+04  0.89400681194E+03 0.  0.
         23    2    4    4    0    0  0.27737849798E+03  0.59605823834E+03  0.13971282841E+04  0.15468331184E+04  0.92200864777E+02 0.  0.
         23    2    4    4    0    0 -0.24608633443E+03  0.13022518555E+03  0.40529906109E+02  0.29560441455E+03  0.90676422866E+02 0.  0.
          3    1    3    3  502    0 -0.19082239399E+02 -0.18195543863E+03 -0.28461504843E+02  0.18515391102E+03  0.00000000000E+00 0. -1.
         -4    1    3    3    0  502 -0.12209924152E+02 -0.54432798526E+03  0.42244595247E+02  0.54610131259E+03  0.00000000000E+00 0.  1.
         13    1    5    5    0    0  0.57292406191E+02  0.86991644691E+02  0.29853727152E+03  0.31618739465E+03  0.00000000000E+00 0. -1.
        -13    1    5    5    0    0  0.22008609179E+03  0.50906659365E+03  0.10985910126E+04  0.12306457238E+04  0.00000000000E+00 0.  1.
          3    1    6    6  503    0 -0.10426895567E+03  0.99311960052E+02  0.43510846947E+02  0.15042630863E+03  0.00000000000E+00 0. -1.
         -3    1    6    6    0  503 -0.14181737876E+03  0.30913225502E+02 -0.29809408377E+01  0.14517810592E+03  0.00000000000E+00 0.  1.
<mgrwt>
<rscale>  0 0.21253735E+04</rscale>
<asrwt>0</asrwt>
<pdfrwt beam="1">  1        1 0.30962569E+00 0.21253735E+04</pdfrwt>
<pdfrwt beam="2">  1       -2 0.86327038E-01 0.21253735E+04</pdfrwt>
<totfact> 0.27390907E+00</totfact>
</mgrwt>
</event>
<event>
12    5  0.5197392E-008  0.2418000E+04  0.7818608E-02  0.8432795E-01
          1   -1    0    0  501    0  0.00000000000E+00  0.00000000000E+00  0.85174208920E+03  0.85174208920E+03  0.00000000000E+00 0. -1.
         -2   -1    0    0    0  501 -0.00000000000E+00 -0.00000000000E+00 -0.17161082138E+04  0.17161082138E+04  0.00000000000E+00 0.  1.
        -24    2    1    2    0    0  0.59693618849E+03  0.18822163695E+03 -0.12580258865E+04  0.14075524609E+04  0.82550599293E+02 0.  0.
        254    2    1    2    0    0 -0.59693618849E+03 -0.18822163695E+03  0.39365976187E+03  0.11602978421E+04  0.89418279815E+03 0.  0.
         23    2    4    4    0    0 -0.76155808224E+03  0.36469288036E+02  0.15672725423E+03  0.78381930793E+03  0.92241821684E+02 0.  0.
         23    2    4    4    0    0  0.16462189375E+03 -0.22469092498E+03  0.23693250764E+03  0.37647853416E+03  0.89513651665E+02 0.  0.
          1    1    3    3  502    0  0.30607285503E+02 -0.52394507955E+01 -0.41932806203E+02  0.52178712197E+02  0.00000000000E+00 0. -1.
         -2    1    3    3    0  502  0.56632890299E+03  0.19346108774E+03 -0.12160930803E+04  0.13553737487E+04  0.00000000000E+00 0.  1.
         13    1    5    5    0    0 -0.12686759539E+02 -0.10852530366E+02  0.92927650029E+01  0.19107243767E+02  0.00000000000E+00 0.  1.
        -13    1    5    5    0    0 -0.74887132270E+03  0.47321818403E+02  0.14743448923E+03  0.76471206417E+03  0.00000000000E+00 0. -1.
          4    1    6    6  503    0  0.12599466219E+03 -0.17392251484E+03  0.12735860624E+03  0.24968762615E+03  0.00000000000E+00 0. -1.
         -4    1    6    6    0  503  0.38627231561E+02 -0.50768410147E+02  0.10957390140E+03  0.12679090801E+03  0.00000000000E+00 0.  1.
<mgrwt>
<rscale>  0 0.24180005E+04</rscale>
<asrwt>0</asrwt>
<pdfrwt beam="1">  1        1 0.13103724E+00 0.24180005E+04</pdfrwt>
<pdfrwt beam="2">  1       -2 0.26401665E+00 0.24180005E+04</pdfrwt>
<totfact> 0.82551184E-01</totfact>
</mgrwt>
</event>
<event>
12    5  0.5197392E-008  0.1394428E+04  0.7818608E-02  0.8957861E-01
          1   -1    0    0  501    0  0.00000000000E+00  0.00000000000E+00  0.24254348645E+04  0.24254348645E+04  0.00000000000E+00 0. -1.
         -2   -1    0    0    0  501 -0.00000000000E+00 -0.00000000000E+00 -0.20042082600E+03  0.20042082600E+03  0.00000000000E+00 0.  1.
        -24    2    1    2    0    0 -0.14936346903E+03 -0.36501403810E+02  0.13439210038E+04  0.13549480609E+04  0.78222661734E+02 0.  0.
        254    2    1    2    0    0  0.14936346903E+03  0.36501403810E+02  0.88109303466E+03  0.12709076296E+04  0.90290612406E+03 0.  0.
         23    2    4    4    0    0  0.38441167217E+03 -0.26302884738E+02  0.92553669177E+03  0.10071786990E+04  0.96574263744E+02 0.  0.
         23    2    4    4    0    0 -0.23504820314E+03  0.62804288547E+02 -0.44443657111E+02  0.26372893062E+03  0.91573324328E+02 0.  0.
          3    1    3    3  502    0 -0.75869995627E+02 -0.37712521156E+02  0.98139865232E+03  0.98504913850E+03  0.00000000000E+00 0. -1.
         -4    1    3    3    0  502 -0.73493473406E+02  0.12111173468E+01  0.36252235153E+03  0.36989892240E+03  0.00000000000E+00 0.  1.
         13    1    5    5    0    0  0.31209532412E+03 -0.99240445896E+01  0.82607134310E+03  0.88311711675E+03  0.00000000000E+00 0.  1.
        -13    1    5    5    0    0  0.72316348052E+02 -0.16378840148E+02  0.99465348668E+02  0.12406158223E+03  0.00000000000E+00 0. -1.
          2    1    6    6  503    0 -0.41983877585E+01  0.71071579550E+01  0.16596290464E+02  0.18535776518E+02  0.00000000000E+00 0. -1.
         -2    1    6    6    0  503 -0.23084981538E+03  0.55697130592E+02 -0.61039947574E+02  0.24519315410E+03  0.00000000000E+00 0.  1.
<mgrwt>
<rscale>  0 0.13944284E+04</rscale>
<asrwt>0</asrwt>
<pdfrwt beam="1">  1        1 0.37314380E+00 0.13944284E+04</pdfrwt>
<pdfrwt beam="2">  1       -2 0.30833975E-01 0.13944284E+04</pdfrwt>
<totfact> 0.12769153E+01</totfact>
</mgrwt>
</event>
<event>
12    5  0.5197392E-008  0.1850560E+04  0.7818608E-02  0.8679865E-01
         -2   -1    0    0    0  501 -0.00000000000E+00  0.00000000000E+00  0.19586943338E+04  0.19586943338E+04  0.00000000000E+00 0.  1.
          1   -1    0    0  501    0  0.00000000000E+00 -0.00000000000E+00 -0.43709887174E+03  0.43709887174E+03  0.00000000000E+00 0. -1.
        -24    2    1    2    0    0 -0.48921337185E+03 -0.52691440713E+03  0.60576756476E+03  0.94366256465E+03  0.81093635748E+02 0.  0.
        254    2    1    2    0    0  0.48921337185E+03  0.52691440713E+03  0.91582789726E+03  0.14521306409E+04  0.86774082828E+03 0.  0.
         23    2    4    4    0    0 -0.91256388023E+02  0.30939356212E+03 -0.81623525710E+01  0.33540905909E+03  0.91545116100E+02 0.  0.
         23    2    4    4    0    0  0.58046975987E+03  0.21752084501E+03  0.92399024983E+03  0.11167215818E+04  0.95124388305E+02 0.  0.
          3    1    3    3  502    0 -0.39398741068E+03 -0.42698668357E+03  0.44539065295E+03  0.73206320865E+03  0.00000000000E+00 0. -1.
         -4    1    3    3    0  502 -0.95225961169E+02 -0.99927723564E+02  0.16037691181E+03  0.21159935600E+03  0.00000000000E+00 0.  1.
         13    1    5    5    0    0 -0.46763252709E+02  0.18423108769E+03  0.39771165786E+02  0.19418970390E+03  0.00000000000E+00 0. -1.
        -13    1    5    5    0    0 -0.44493135315E+02  0.12516247444E+03 -0.47933518357E+02  0.14121935519E+03  0.00000000000E+00 0.  1.
          3    1    6    6  503    0  0.50255538625E+03  0.15377363773E+03  0.75231130900E+03  0.91770395747E+03  0.00000000000E+00 0. -1.
         -3    1    6    6    0  503  0.77914373618E+02  0.63747207282E+02  0.17167894084E+03  0.19901762429E+03  0.00000000000E+00 0.  1.
<mgrwt>
<rscale>  0 0.18505600E+04</rscale>
<asrwt>0</asrwt>
<pdfrwt beam="1">  1        1 0.67245981E-01 0.18505600E+04</pdfrwt>
<pdfrwt beam="2">  1       -2 0.30133758E+00 0.18505600E+04</pdfrwt>
<totfact> 0.13675996E+00</totfact>
</mgrwt>
</event>
<event>
12    5  0.5197392E-008  0.1990721E+04  0.7818608E-02  0.8610971E-01
          1   -1    0    0  501    0  0.00000000000E+00  0.00000000000E+00  0.32370746865E+04  0.32370746865E+04  0.00000000000E+00 0. -1.
         -2   -1    0    0    0  501 -0.00000000000E+00 -0.00000000000E+00 -0.30606093235E+03  0.30606093235E+03  0.00000000000E+00 0.  1.
        -24    2    1    2    0    0 -0.32597328403E+03  0.20644440146E+03 -0.56054661236E+02  0.39891844014E+03  0.84355936611E+02 0.  0.
        254    2    1    2    0    0  0.32597328403E+03 -0.20644440146E+03  0.29870684154E+04  0.31442171788E+04  0.90257746258E+03 0.  0.
         23    2    4    4    0    0 -0.23654345842E+03 -0.22990543619E+03  0.17364378024E+04  0.17698407240E+04  0.91162653598E+02 0.  0.
         23    2    4    4    0    0  0.56251674244E+03  0.23461034730E+02  0.12506306130E+04  0.13743764547E+04  0.88646508476E+02 0.  0.
          3    1    3    3  502    0 -0.12845496162E+02 -0.66933401150E+01 -0.94125669346E+01  0.17274373790E+02  0.00000000000E+00 0. -1.
         -4    1    3    3    0  502 -0.31312778786E+03  0.21313774158E+03 -0.46642094301E+02  0.38164406635E+03  0.00000000000E+00 0.  1.
         13    1    5    5    0    0 -0.23172718012E+03 -0.18910724601E+03  0.15824015322E+04  0.16104203320E+04  0.00000000000E+00 0.  1.
        -13    1    5    5    0    0 -0.48162783014E+01 -0.40798190186E+02  0.15403627018E+03  0.15942039202E+03  0.00000000000E+00 0. -1.
          4    1    6    6  503    0  0.31853294298E+03 -0.30466192222E+02  0.71385442745E+03  0.78229122980E+03  0.00000000000E+00 0.  1.
         -4    1    6    6    0  503  0.24398379947E+03  0.53927226952E+02  0.53677618555E+03  0.59208522493E+03  0.00000000000E+00 0. -1.
<mgrwt>
<rscale>  0 0.19907206E+04</rscale>
<asrwt>0</asrwt>
<pdfrwt beam="1">  1        1 0.49801147E+00 0.19907206E+04</pdfrwt>
<pdfrwt beam="2">  1       -2 0.47086300E-01 0.19907206E+04</pdfrwt>
<totfact> 0.13941992E+00</totfact>
</mgrwt>
</event>
<event>
12    5  0.5197392E-008  0.1831334E+04  0.7818608E-02  0.8689811E-01
         -2   -1    0    0    0  501 -0.00000000000E+00  0.00000000000E+00  0.15841062564E+04  0.15841062564E+04  0.00000000000E+00 0.  1.
          1   -1    0    0  501    0  0.00000000000E+00 -0.00000000000E+00 -0.52928672020E+03  0.52928672020E+03  0.00000000000E+00 0. -1.
        -24    2    1    2    0    0  0.53527842511E+03 -0.40947642990E+03  0.43334297339E+03  0.80525861990E+03  0.80382667884E+02 0.  0.
        254    2    1    2    0    0 -0.53527842511E+03  0.40947642990E+03  0.62147656276E+03  0.13081343567E+04  0.93316045672E+03 0.  0.
         23    2    4    4    0    0 -0.37846637593E+03  0.69280958078E+03  0.54264598388E+03  0.96242604269E+03  0.92613772713E+02 0.  0.
         23    2    4    4    0    0 -0.15681204918E+03 -0.28333315087E+03  0.78830578884E+02  0.34570831398E+03  0.91827474290E+02 0.  0.
          3    1    3    3  502    0  0.43771881171E+03 -0.29331156577E+03  0.34254944973E+03  0.62846603587E+03  0.00000000000E+00 0. -1.
         -4    1    3    3    0  502  0.97559613400E+02 -0.11616486414E+03  0.90793523666E+02  0.17679258402E+03  0.00000000000E+00 0.  1.
         13    1    5    5    0    0 -0.31203444627E+03  0.61609182533E+03  0.49866552337E+03  0.85182271459E+03  0.00000000000E+00 0. -1.
        -13    1    5    5    0    0 -0.66431929658E+02  0.76717755442E+02  0.43980460512E+02  0.11060332809E+03  0.00000000000E+00 0.  1.
          3    1    6    6  503    0 -0.23551199351E+02 -0.20168497344E+02 -0.17239157176E+02  0.35476975860E+02  0.00000000000E+00 0. -1.
         -3    1    6    6    0  503 -0.13326084983E+03 -0.26316465353E+03  0.96069736060E+02  0.31023133812E+03  0.00000000000E+00 0.  1.
<mgrwt>
<rscale>  0 0.18313344E+04</rscale>
<asrwt>0</asrwt>
<pdfrwt beam="1">  1        1 0.81428727E-01 0.18313344E+04</pdfrwt>
<pdfrwt beam="2">  1       -2 0.24370865E+00 0.18313344E+04</pdfrwt>
<totfact> 0.23691057E+00</totfact>
</mgrwt>
</event>
<event>
12    5  0.5197392E-008  0.1426687E+04  0.7818608E-02  0.8934725E-01
          1   -1    0    0  501    0  0.00000000000E+00  0.00000000000E+00  0.12021232034E+04  0.12021232034E+04  0.00000000000E+00 0. -1.
         -2   -1    0    0    0  501 -0.00000000000E+00 -0.00000000000E+00 -0.42329988153E+03  0.42329988153E+03  0.00000000000E+00 0.  1.
        -24    2    1    2    0    0  0.28073011857E+03  0.29286911078E+03  0.35927168098E+03  0.54761046912E+03  0.78862979938E+02 0.  0.
        254    2    1    2    0    0 -0.28073011857E+03 -0.29286911078E+03  0.41955164085E+03  0.10778126158E+04  0.90613174532E+03 0.  0.
         23    2    4    4    0    0 -0.51763359697E+03 -0.13134327880E+01  0.25780575052E+02  0.52615976990E+03  0.90736980260E+02 0.  0.
         23    2    4    4    0    0  0.23690347840E+03 -0.29155567799E+03  0.39377106580E+03  0.55165284589E+03  0.90206644251E+02 0.  0.
          1    1    3    3  502    0  0.18997397006E+03  0.22243625775E+03  0.29730621131E+03  0.41708390205E+03  0.00000000000E+00 0. -1.
         -2    1    3    3    0  502  0.90756148512E+02  0.70432853031E+02  0.61965469668E+02  0.13052656707E+03  0.00000000000E+00 0.  1.
         13    1    5    5    0    0 -0.84024797867E+02  0.23175601420E+02  0.28962734331E+02  0.91848326809E+02  0.00000000000E+00 0.  1.
        -13    1    5    5    0    0 -0.43360879911E+03 -0.24489034208E+02 -0.31821592791E+01  0.43431144309E+03  0.00000000000E+00 0. -1.
          4    1    6    6  503    0  0.73321375415E+02 -0.77517064164E+02  0.17344315522E+03  0.20363557504E+03  0.00000000000E+00 0. -1.
         -4    1    6    6    0  503  0.16358210298E+03 -0.21403861383E+03  0.22032791057E+03  0.34801727084E+03  0.00000000000E+00 0.  1.
<mgrwt>
<rscale>  0 0.14266865E+04</rscale>
<asrwt>0</asrwt>
<pdfrwt beam="1">  1        1 0.18494203E+00 0.14266865E+04</pdfrwt>
<pdfrwt beam="2">  1       -2 0.65123059E-01 0.14266865E+04</pdfrwt>
<totfact> 0.19756556E+01</totfact>
</mgrwt>
</event>
<event>
12    5  0.5197392E-008  0.1751931E+04  0.7818608E-02  0.8732288E-01
          1   -1    0    0  501    0  0.00000000000E+00  0.00000000000E+00  0.10286188073E+04  0.10286188073E+04  0.00000000000E+00 0. -1.
         -2   -1    0    0    0  501 -0.00000000000E+00 -0.00000000000E+00 -0.74596694397E+03  0.74596694397E+03  0.00000000000E+00 0.  1.
        -24    2    1    2    0    0  0.17857712547E+03 -0.27736255165E+03  0.65903903272E+03  0.74132655136E+03  0.80080174226E+02 0.  0.
        254    2    1    2    0    0 -0.17857712547E+03  0.27736255165E+03 -0.37638716935E+03  0.10332591999E+04  0.90395657983E+03 0.  0.
         23    2    4    4    0    0 -0.11145699566E+02  0.30266655424E+03 -0.63623523594E+03  0.71014957502E+03  0.88237598448E+02 0.  0.
         23    2    4    4    0    0 -0.16743142591E+03 -0.25304002592E+02  0.25984806659E+03  0.32310962492E+03  0.90582763693E+02 0.  0.
          3    1    3    3  502    0  0.11138287591E+03 -0.13236341902E+03  0.26907940324E+03  0.31989052031E+03  0.00000000000E+00 0. -1.
         -4    1    3    3    0  502  0.67194249563E+02 -0.14499913263E+03  0.38995962948E+03  0.42143603105E+03  0.00000000000E+00 0.  1.
         13    1    5    5    0    0 -0.47556728976E+02  0.15820733435E+03 -0.36639199721E+03  0.40191329753E+03  0.00000000000E+00 0. -1.
        -13    1    5    5    0    0  0.36411029410E+02  0.14445921989E+03 -0.26984323873E+03  0.30823627749E+03  0.00000000000E+00 0.  1.
          1    1    6    6  503    0 -0.17767778661E+02 -0.57483369644E+01  0.10582492705E+03  0.10746000429E+03  0.00000000000E+00 0. -1.
         -1    1    6    6    0  503 -0.14966364725E+03 -0.19555665627E+02  0.15402313953E+03  0.21564962063E+03  0.00000000000E+00 0.  1.
<mgrwt>
<rscale>  0 0.17519311E+04</rscale>
<asrwt>0</asrwt>
<pdfrwt beam="1">  1        1 0.15824905E+00 0.17519311E+04</pdfrwt>
<pdfrwt beam="2">  1       -2 0.11476415E+00 0.17519311E+04</pdfrwt>
<totfact> 0.70758532E+00</totfact>
</mgrwt>
</event>
<event>
12    5  0.5197392E-008  0.2383448E+04  0.7818608E-02  0.8445726E-01
          1   -1    0    0  501    0  0.00000000000E+00  0.00000000000E+00  0.64000661935E+03  0.64000661935E+03  0.00000000000E+00 0. -1.
         -2   -1    0    0    0  501 -0.00000000000E+00 -0.00000000000E+00 -0.22190491749E+04  0.22190491749E+04  0.00000000000E+00 0.  1.
        -24    2    1    2    0    0 -0.59975543234E+03 -0.65108394603E+03 -0.72315661383E+02  0.89168984357E+03  0.79147576375E+02 0.  0.
        254    2    1    2    0    0  0.59975543234E+03  0.65108394603E+03 -0.15067268941E+04  0.19673659506E+04  0.90370679252E+03 0.  0.
         23    2    4    4    0    0  0.33778425858E+03  0.46980173004E+03 -0.15263035222E+04  0.16346959610E+04  0.88411379839E+02 0.  0.
         23    2    4    4    0    0  0.26197117377E+03  0.18128221599E+03  0.19576628079E+02  0.33266998965E+03  0.93776009330E+02 0.  0.
          1    1    3    3  502    0 -0.33447779564E+03 -0.30768867455E+03 -0.49510860917E+02  0.45716412979E+03  0.00000000000E+00 0. -1.
         -2    1    3    3    0  502 -0.26527763671E+03 -0.34339527148E+03 -0.22804800466E+02  0.43452571378E+03  0.00000000000E+00 0.  1.
         13    1    5    5    0    0  0.12522901465E+03  0.24888417500E+03 -0.70748786642E+03  0.76037143542E+03  0.00000000000E+00 0.  1.
        -13    1    5    5    0    0  0.21255524393E+03  0.22091755504E+03 -0.81881565578E+03  0.87432452556E+03  0.00000000000E+00 0. -1.
          2    1    6    6  503    0  0.10520036922E+03  0.22190237051E+02  0.19755564835E+02  0.10931517117E+03  0.00000000000E+00 0.  1.
         -2    1    6    6    0  503  0.15677080454E+03  0.15909197894E+03 -0.17893675591E+00  0.22335481848E+03  0.00000000000E+00 0. -1.
<mgrwt>
<rscale>  0 0.23834481E+04</rscale>
<asrwt>0</asrwt>
<pdfrwt beam="1">  1        1 0.98462556E-01 0.23834481E+04</pdfrwt>
<pdfrwt beam="2">  1       -2 0.34139218E+00 0.23834481E+04</pdfrwt>
<totfact> 0.43222105E-01</totfact>
</mgrwt>
</event>
<event>
12    5  0.5197392E-008  0.3186713E+04  0.7818608E-02  0.8192335E-01
          1   -1    0    0  501    0  0.00000000000E+00  0.00000000000E+00  0.19917853886E+04  0.19917853886E+04  0.00000000000E+00 0. -1.
         -2   -1    0    0    0  501 -0.00000000000E+00 -0.00000000000E+00 -0.12746279282E+04  0.12746279282E+04  0.00000000000E+00 0.  1.
        -24    2    1    2    0    0  0.94168850247E+02  0.14542570557E+04  0.45123254672E+03  0.15277897492E+04  0.82458171094E+02 0.  0.
        254    2    1    2    0    0 -0.94168850247E+02 -0.14542570557E+04  0.26592491369E+03  0.17386235677E+04  0.91014531471E+03 0.  0.
         23    2    4    4    0    0 -0.38265136401E+03 -0.12801607511E+04  0.33952381728E+03  0.13815804512E+04  0.90854308751E+02 0.  0.
         23    2    4    4    0    0  0.28848251377E+03 -0.17409630462E+03 -0.73598903595E+02  0.35704311654E+03  0.92365060622E+02 0.  0.
          1    1    3    3  502    0  0.34985424202E+01  0.19683659583E+03  0.33497606865E+02  0.19969720810E+03  0.00000000000E+00 0. -1.
         -2    1    3    3    0  502  0.90670307827E+02  0.12574204599E+04  0.41773493985E+03  0.13280925411E+04  0.00000000000E+00 0.  1.
         13    1    5    5    0    0 -0.13955500193E+03 -0.32929591343E+03  0.82616797288E+02  0.36706529713E+03  0.00000000000E+00 0. -1.
        -13    1    5    5    0    0 -0.24309636208E+03 -0.95086483769E+03  0.25690702000E+03  0.10145151540E+04  0.00000000000E+00 0.  1.
          1    1    6    6  503    0  0.14919184941E+03 -0.97948684834E+02  0.78044796771E+01  0.17864227577E+03  0.00000000000E+00 0. -1.
         -1    1    6    6    0  503  0.13929066436E+03 -0.76147619786E+02 -0.81403383272E+02  0.17840084076E+03  0.00000000000E+00 0.  1.
<mgrwt>
<rscale>  0 0.31867132E+04</rscale>
<asrwt>0</asrwt>
<pdfrwt beam="1">  1        1 0.30642852E+00 0.31867132E+04</pdfrwt>
<pdfrwt beam="2">  1       -2 0.19609660E+00 0.31867132E+04</pdfrwt>
<totfact> 0.31372661E-01</totfact>
</mgrwt>
</event>
<event>
12    5  0.5197392E-008  0.2931574E+04  0.7818608E-02  0.8263545E-01
          1   -1    0    0  501    0  0.00000000000E+00  0.00000000000E+00  0.14763886253E+04  0.14763886253E+04  0.00000000000E+00 0. -1.
         -2   -1    0    0    0  501 -0.00000000000E+00 -0.00000000000E+00 -0.14552618467E+04  0.14552618467E+04  0.00000000000E+00 0.  1.
        -24    2    1    2    0    0 -0.47295914324E+03 -0.93022356006E+03  0.76752723729E+03  0.12978579763E+04  0.79567856151E+02 0.  0.
        254    2    1    2    0    0  0.47295914324E+03  0.93022356006E+03 -0.74640045867E+03  0.16337924958E+04  0.10115127541E+04 0.  0.
         23    2    4    4    0    0  0.27788936176E+03  0.18572768428E+03 -0.78443526928E+03  0.85778241590E+03  0.93459677114E+02 0.  0.
         23    2    4    4    0    0  0.19506978149E+03  0.74449587577E+03  0.38034810616E+02  0.77601007988E+03  0.91753302708E+02 0.  0.
          3    1    3    3  502    0 -0.37648598579E+03 -0.78553388018E+03  0.66566309948E+03  0.10963177169E+04  0.00000000000E+00 0. -1.
         -4    1    3    3    0  502 -0.96473157449E+02 -0.14468967988E+03  0.10186413781E+03  0.20154025936E+03  0.00000000000E+00 0.  1.
         13    1    5    5    0    0  0.22794020246E+03  0.16485406365E+03 -0.55715160959E+03  0.62414062059E+03  0.00000000000E+00 0.  1.
        -13    1    5    5    0    0  0.49949159293E+02  0.20873620631E+02 -0.22728365970E+03  0.23364179531E+03  0.00000000000E+00 0. -1.
          1    1    6    6  503    0  0.14091765736E+03  0.55342262406E+03 -0.11991151726E+02  0.57120764587E+03  0.00000000000E+00 0. -1.
         -1    1    6    6    0  503  0.54152124125E+02  0.19107325171E+03  0.50025962341E+02  0.20480243400E+03  0.00000000000E+00 0.  1.
<mgrwt>
<rscale>  0 0.29315743E+04</rscale>
<asrwt>0</asrwt>
<pdfrwt beam="1">  1        1 0.22713671E+00 0.29315743E+04</pdfrwt>
<pdfrwt beam="2">  1       -2 0.22388644E+00 0.29315743E+04</pdfrwt>
<totfact> 0.47703561E-01</totfact>
</mgrwt>
</event>
<event>
12    5  0.5197392E-008  0.1643745E+04  0.7818608E-02  0.8794116E-01
          1   -1    0    0  501    0  0.00000000000E+00  0.00000000000E+00  0.94976447056E+03  0.94976447056E+03  0.00000000000E+00 0. -1.
         -2   -1    0    0    0  501 -0.00000000000E+00 -0.00000000000E+00 -0.71120161562E+03  0.71120161562E+03  0.00000000000E+00 0.  1.
        -24    2    1    2    0    0 -0.12685246072E+03 -0.32983838072E+03 -0.37042050941E+03  0.51817615124E+03  0.80064135191E+02 0.  0.
        254    2    1    2    0    0  0.12685246072E+03  0.32983838072E+03  0.60898336435E+03  0.11427899349E+04  0.90012398766E+03 0.  0.
         23    2    4    4    0    0 -0.30295281311E+02  0.22281525126E+03 -0.19642020966E+03  0.31035165234E+03  0.84692438158E+02 0.  0.
         23    2    4    4    0    0  0.15714774203E+03  0.10702312946E+03  0.80540357401E+03  0.83243828260E+03  0.90162155295E+02 0.  0.
          3    1    3    3  502    0 -0.60159388683E+02 -0.15962312660E+03 -0.23630466888E+03  0.29144226037E+03  0.00000000000E+00 0. -1.
         -4    1    3    3    0  502 -0.66693072039E+02 -0.17021525412E+03 -0.13411584052E+03  0.22673389088E+03  0.00000000000E+00 0.  1.
         13    1    5    5    0    0 -0.17448780664E+02  0.20601362404E+03 -0.20139125067E+03  0.28862520521E+03  0.00000000000E+00 0. -1.
        -13    1    5    5    0    0 -0.12846500646E+02  0.16801627223E+02  0.49710410061E+01  0.21726447130E+02  0.00000000000E+00 0.  1.
          3    1    6    6  503    0  0.54394582007E+02  0.57343730966E+02  0.50379440617E+03  0.50995674103E+03  0.00000000000E+00 0. -1.
         -3    1    6    6    0  503  0.10275316003E+03  0.49679398490E+02  0.30160916784E+03  0.32248154157E+03  0.00000000000E+00 0.  1.
<mgrwt>
<rscale>  0 0.16437445E+04</rscale>
<asrwt>0</asrwt>
<pdfrwt beam="1">  1        1 0.14611761E+00 0.16437445E+04</pdfrwt>
<pdfrwt beam="2">  1       -2 0.10941563E+00 0.16437445E+04</pdfrwt>
<totfact> 0.92481559E+00</totfact>
</mgrwt>
</event>
<event>
12    5  0.5197392E-008  0.1731793E+04  0.7818608E-02  0.8743437E-01
          1   -1    0    0  501    0  0.00000000000E+00  0.00000000000E+00  0.12149598882E+04  0.12149598882E+04  0.00000000000E+00 0. -1.
         -2   -1    0    0    0  501 -0.00000000000E+00 -0.00000000000E+00 -0.61712061097E+03  0.61712061097E+03  0.00000000000E+00 0.  1.
        -24    2    1    2    0    0 -0.58345340743E+03 -0.83865013763E+02  0.45899866547E+03  0.75138128329E+03  0.80267296020E+02 0.  0.
        254    2    1    2    0    0  0.58345340743E+03  0.83865013763E+02  0.13884061178E+03  0.10806992159E+04  0.89508818594E+03 0.  0.
         23    2    4    4    0    0 -0.14038765205E+03  0.12458509015E+03  0.26708564564E+03  0.33914486151E+03  0.91947579876E+02 0.  0.
         23    2    4    4    0    0  0.72384105947E+03 -0.40720076385E+02 -0.12824503386E+03  0.74155435439E+03  0.88611894292E+02 0.  0.
          1    1    3    3  502    0 -0.45239246767E+03 -0.30937293519E+02  0.35563715044E+03  0.57627583995E+03  0.00000000000E+00 0. -1.
         -2    1    3    3    0  502 -0.13106093976E+03 -0.52927720244E+02  0.10336151503E+03  0.17510544334E+03  0.00000000000E+00 0.  1.
         13    1    5    5    0    0 -0.13288024821E+03  0.90568934053E+02  0.16128003469E+03  0.22775236941E+03  0.00000000000E+00 0. -1.
        -13    1    5    5    0    0 -0.75074038337E+01  0.34016156095E+02  0.10580561095E+03  0.11139249210E+03  0.00000000000E+00 0.  1.
          3    1    6    6  503    0  0.29095708558E+03  0.84017368341E-01 -0.10747879371E+02  0.29115554197E+03  0.00000000000E+00 0.  1.
         -3    1    6    6    0  503  0.43288397390E+03 -0.40804093753E+02 -0.11749715449E+03  0.45039881243E+03  0.00000000000E+00 0. -1.
<mgrwt>
<rscale>  0 0.17317930E+04</rscale>
<asrwt>0</asrwt>
<pdfrwt beam="1">  1        1 0.18691691E+00 0.17317930E+04</pdfrwt>
<pdfrwt beam="2">  1       -2 0.94941633E-01 0.17317930E+04</pdfrwt>
<totfact> 0.80963066E+00</totfact>
</mgrwt>
</event>
<event>
12    5  0.5197392E-008  0.2402261E+04  0.7818608E-02  0.8438658E-01
          1   -1    0    0  501    0  0.00000000000E+00  0.00000000000E+00  0.10915325097E+04  0.10915325097E+04  0.00000000000E+00 0. -1.
         -2   -1    0    0    0  501 -0.00000000000E+00 -0.00000000000E+00 -0.13217324905E+04  0.13217324905E+04  0.00000000000E+00 0.  1.
        -24    2    1    2    0    0  0.82126253918E+03 -0.27665893609E+03  0.46546843058E+03  0.98697452464E+03  0.80284040974E+02 0.  0.
        254    2    1    2    0    0 -0.82126253918E+03  0.27665893609E+03 -0.69566841128E+03  0.14262904756E+04  0.89405685336E+03 0.  0.
         23    2    4    4    0    0 -0.45063141498E+03  0.33142869025E+03 -0.84079606330E+03  0.10139941703E+04  0.91282575261E+02 0.  0.
         23    2    4    4    0    0 -0.37063112420E+03 -0.54769754157E+02  0.14512765202E+03  0.41229630521E+03  0.92515143176E+02 0.  0.
          3    1    3    3  502    0  0.42685964159E+03 -0.15367344919E+03  0.19931620253E+03  0.49553166517E+03  0.00000000000E+00 0. -1.
         -4    1    3    3    0  502  0.39440289760E+03 -0.12298548691E+03  0.26615222805E+03  0.49144285946E+03  0.00000000000E+00 0.  1.
         13    1    5    5    0    0 -0.56589206850E+01  0.18286106131E+02 -0.12139582477E+02  0.22666594881E+02  0.00000000000E+00 0. -1.
        -13    1    5    5    0    0 -0.44497249430E+03  0.31314258412E+03 -0.82865648082E+03  0.99132757547E+03  0.00000000000E+00 0.  1.
          3    1    6    6  503    0 -0.87767756911E+01  0.69599734169E+01  0.22740481023E+02  0.25349605493E+02  0.00000000000E+00 0. -1.
         -3    1    6    6    0  503 -0.36185434851E+03 -0.61729727574E+02  0.12238717100E+03  0.38694669972E+03  0.00000000000E+00 0.  1.
<mgrwt>
<rscale>  0 0.24022606E+04</rscale>
<asrwt>0</asrwt>
<pdfrwt beam="1">  1        1 0.16792808E+00 0.24022606E+04</pdfrwt>
<pdfrwt beam="2">  1       -2 0.20334346E+00 0.24022606E+04</pdfrwt>
<totfact> 0.12786400E+00</totfact>
</mgrwt>
</event>
<event>
12    5  0.5197392E-008  0.3235769E+04  0.7818608E-02  0.8179434E-01
          1   -1    0    0  501    0  0.00000000000E+00  0.00000000000E+00  0.86472611597E+03  0.86472611597E+03  0.00000000000E+00 0. -1.
         -2   -1    0    0    0  501 -0.00000000000E+00 -0.00000000000E+00 -0.30270283304E+04  0.30270283304E+04  0.00000000000E+00 0.  1.
        -24    2    1    2    0    0 -0.11671367472E+03  0.44369293821E+03  0.70873930542E+03  0.84802877940E+03  0.79723913286E+02 0.  0.
        254    2    1    2    0    0  0.11671367472E+03 -0.44369293821E+03 -0.28710415198E+04  0.30437256669E+04  0.90050042852E+03 0.  0.
         23    2    4    4    0    0  0.34717442173E+03  0.56250844881E+02 -0.56993288548E+03  0.67591934705E+03  0.91374138099E+02 0.  0.
         23    2    4    4    0    0 -0.23046074701E+03 -0.49994378309E+03 -0.23011086343E+04  0.23678063199E+04  0.91377673953E+02 0.  0.
          1    1    3    3  502    0 -0.79065032572E+02  0.23670021219E+03  0.44981614807E+03  0.51440532354E+03  0.00000000000E+00 0. -1.
         -2    1    3    3    0  502 -0.37648642149E+02  0.20699272602E+03  0.25892315735E+03  0.33362345585E+03  0.00000000000E+00 0.  1.
         13    1    5    5    0    0  0.17802988133E+03  0.74443927266E+02 -0.28939676566E+03  0.34783189176E+03  0.00000000000E+00 0. -1.
        -13    1    5    5    0    0  0.16914454040E+03 -0.18193082384E+02 -0.28053611982E+03  0.32808745529E+03  0.00000000000E+00 0.  1.
          2    1    6    6  503    0 -0.58283365785E+02 -0.76552228830E+02 -0.53063111505E+03  0.53928339000E+03  0.00000000000E+00 0.  1.
         -2    1    6    6    0  503 -0.17217738122E+03 -0.42339155426E+03 -0.17704775193E+04  0.18285229299E+04  0.00000000000E+00 0. -1.
<mgrwt>
<rscale>  0 0.32357691E+04</rscale>
<asrwt>0</asrwt>
<pdfrwt beam="1">  1        1 0.13303479E+00 0.32357691E+04</pdfrwt>
<pdfrwt beam="2">  1       -2 0.46569667E+00 0.32357691E+04</pdfrwt>
<totfact> 0.38904849E-02</totfact>
</mgrwt>
</event>
<event>
12    5  0.5197392E-008  0.1375193E+04  0.7818608E-02  0.8971973E-01
          3   -1    0    0  501    0  0.00000000000E+00  0.00000000000E+00  0.40308679144E+04  0.40308679144E+04  0.00000000000E+00 0. -1.
         -4   -1    0    0    0  501 -0.00000000000E+00 -0.00000000000E+00 -0.11729211277E+03  0.11729211277E+03  0.00000000000E+00 0.  1.
        -24    2    1    2    0    0 -0.23731376665E+03 -0.13278502805E+03  0.19319526545E+04  0.19518690109E+04  0.58325714025E+02 0.  0.
        254    2    1    2    0    0  0.23731376665E+03  0.13278502805E+03  0.19816231471E+04  0.21962910162E+04  0.90714620840E+03 0.  0.
         23    2    4    4    0    0 -0.11342896026E+03  0.16772375556E+03  0.44553891453E+02  0.22531541644E+03  0.88230382740E+02 0.  0.
         23    2    4    4    0    0  0.35074272691E+03 -0.34938727509E+02  0.19370692556E+04  0.19709755998E+04  0.90919407721E+02 0.  0.
          3    1    3    3  502    0 -0.20618113347E+03 -0.89490821346E+02  0.15498991276E+04  0.15661119285E+04  0.00000000000E+00 0. -1.
         -4    1    3    3    0  502 -0.31132633175E+02 -0.43294206703E+02  0.38205352697E+03  0.38575708244E+03  0.00000000000E+00 0.  1.
         13    1    5    5    0    0 -0.33552780183E+02  0.14291495178E+01 -0.58074103694E+01  0.34081630559E+02  0.00000000000E+00 0. -1.
        -13    1    5    5    0    0 -0.79876180081E+02  0.16629460604E+03  0.50361301823E+02  0.19123378588E+03  0.00000000000E+00 0.  1.
          1    1    6    6  503    0  0.11236381690E+03  0.25554564028E+02  0.50867041054E+03  0.52155944019E+03  0.00000000000E+00 0. -1.
         -1    1    6    6    0  503  0.23837891001E+03 -0.60493291538E+02  0.14283988451E+04  0.14494161596E+04  0.00000000000E+00 0.  1.
<mgrwt>
<rscale>  0 0.13751931E+04</rscale>
<asrwt>0</asrwt>
<pdfrwt beam="1">  1        3 0.62013342E+00 0.13751931E+04</pdfrwt>
<pdfrwt beam="2">  1       -4 0.18044944E-01 0.13751931E+04</pdfrwt>
<totfact> 0.57734245E-02</totfact>
</mgrwt>
</event>
<event>
12    5  0.5197392E-008  0.1378021E+04  0.7818608E-02  0.8969883E-01
         -4   -1    0    0    0  501 -0.00000000000E+00  0.00000000000E+00  0.41552135046E+03  0.41552135046E+03  0.00000000000E+00 0.  1.
          3   -1    0    0  501    0  0.00000000000E+00 -0.00000000000E+00 -0.11425059571E+04  0.11425059571E+04  0.00000000000E+00 0. -1.
        -24    2    1    2    0    0  0.26112990095E+03  0.26334578194E+03 -0.90182672794E+02  0.38999030130E+03  0.80122996688E+02 0.  0.
        254    2    1    2    0    0 -0.26112990095E+03 -0.26334578194E+03 -0.63680193389E+03  0.11680370063E+04  0.90623061030E+03 0.  0.
         23    2    4    4    0    0 -0.36235213166E+03 -0.14718723415E+03  0.96818530281E+02  0.41283601287E+03  0.89981089685E+02 0.  0.
         23    2    4    4    0    0  0.10122223071E+03 -0.11615854779E+03 -0.73362046417E+03  0.75520099343E+03  0.91601347242E+02 0.  0.
          3    1    3    3  502    0  0.38265168293E+02  0.23077952438E+02 -0.36941475940E+02  0.57978337660E+02  0.00000000000E+00 0. -1.
         -4    1    3    3    0  502  0.22286473265E+03  0.24026782950E+03 -0.53241196854E+02  0.33201196364E+03  0.00000000000E+00 0.  1.
         13    1    5    5    0    0 -0.36509157436E+03 -0.14704821082E+03  0.87606686467E+02  0.40322446043E+03  0.00000000000E+00 0. -1.
        -13    1    5    5    0    0  0.27394427032E+01 -0.13902332970E+00  0.92118438144E+01  0.96115524381E+01  0.00000000000E+00 0.  1.
          2    1    6    6  503    0  0.11795904566E+03 -0.91012255777E+02 -0.61661232413E+03  0.63435662322E+03  0.00000000000E+00 0. -1.
         -2    1    6    6    0  503 -0.16736814943E+02 -0.25146292013E+02 -0.11700814004E+03  0.12084437021E+03  0.00000000000E+00 0.  1.
<mgrwt>
<rscale>  0 0.13780212E+04</rscale>
<asrwt>0</asrwt>
<pdfrwt beam="1">  1        3 0.17577015E+00 0.13780212E+04</pdfrwt>
<pdfrwt beam="2">  1       -4 0.63926362E-01 0.13780212E+04</pdfrwt>
<totfact> 0.10825799E+00</totfact>
</mgrwt>
</event>
<event>
12    5  0.5197392E-008  0.1596919E+04  0.7818608E-02  0.8822443E-01
         -2   -1    0    0    0  501 -0.00000000000E+00  0.00000000000E+00  0.25117584273E+04  0.25117584273E+04  0.00000000000E+00 0.  1.
          1   -1    0    0  501    0  0.00000000000E+00 -0.00000000000E+00 -0.25382111000E+03  0.25382111000E+03  0.00000000000E+00 0. -1.
        -24    2    1    2    0    0  0.45391519110E+03 -0.22363209906E+03  0.41207160622E+03  0.65650054924E+03  0.71691324825E+02 0.  0.
        254    2    1    2    0    0 -0.45391519110E+03  0.22363209906E+03  0.18458657111E+04  0.21090789881E+04  0.88597044993E+03 0.  0.
         23    2    4    4    0    0 -0.51143505106E+02 -0.14949563685E+03  0.13544022310E+04  0.13666208929E+04  0.91009109992E+02 0.  0.
         23    2    4    4    0    0 -0.40277168600E+03  0.37312773591E+03  0.49146348009E+03  0.74245809515E+03  0.90875367668E+02 0.  0.
          3    1    3    3  502    0  0.21682294731E+03 -0.13822918710E+03  0.17963061823E+03  0.31366647519E+03  0.00000000000E+00 0. -1.
         -4    1    3    3    0  502  0.23709224379E+03 -0.85402911956E+02  0.23244098799E+03  0.34283407405E+03  0.00000000000E+00 0.  1.
         13    1    5    5    0    0  0.11192269140E+02 -0.84603279385E+02  0.47296337701E+03  0.48060101723E+03  0.00000000000E+00 0. -1.
        -13    1    5    5    0    0 -0.62335774246E+02 -0.64892357462E+02  0.88143885401E+03  0.88601987572E+03  0.00000000000E+00 0.  1.
          4    1    6    6  503    0 -0.45167597610E+02  0.76424643074E+02  0.10940970874E+03  0.14089472066E+03  0.00000000000E+00 0. -1.
         -4    1    6    6    0  503 -0.35760408839E+03  0.29670309283E+03  0.38205377135E+03  0.60156337449E+03  0.00000000000E+00 0.  1.
<mgrwt>
<rscale>  0 0.15969187E+04</rscale>
<asrwt>0</asrwt>
<pdfrwt beam="1">  1        1 0.39049403E-01 0.15969187E+04</pdfrwt>
<pdfrwt beam="2">  1       -2 0.38642436E+00 0.15969187E+04</pdfrwt>
<totfact> 0.83742293E-01</totfact>
</mgrwt>
</event>
<event>
12    5  0.5197392E-008  0.3758815E+04  0.7818608E-02  0.8055051E-01
         -2   -1    0    0    0  501 -0.00000000000E+00  0.00000000000E+00  0.19327688960E+04  0.19327688960E+04  0.00000000000E+00 0.  1.
          1   -1    0    0  501    0  0.00000000000E+00 -0.00000000000E+00 -0.18275189849E+04  0.18275189849E+04  0.00000000000E+00 0. -1.
        -24    2    1    2    0    0  0.11628734252E+04 -0.56429687458E+03 -0.11626588807E+04  0.17399718478E+04  0.70857551857E+02 0.  0.
        254    2    1    2    0    0 -0.11628734252E+04  0.56429687458E+03  0.12679087918E+04  0.20203160331E+04  0.89631389780E+03 0.  0.
         23    2    4    4    0    0 -0.10811212753E+04  0.10119214890E+03  0.94602864852E+03  0.14430786980E+04  0.91885046449E+02 0.  0.
         23    2    4    4    0    0 -0.81752149909E+02  0.46310472569E+03  0.32188014328E+03  0.57723733511E+03  0.91906003237E+02 0.  0.
          1    1    3    3  502    0  0.72714448143E+03 -0.36540940144E+03 -0.77491148817E+03  0.11237219149E+04  0.00000000000E+00 0. -1.
         -2    1    3    3    0  502  0.43572894378E+03 -0.19888747314E+03 -0.38774739251E+03  0.61624993292E+03  0.00000000000E+00 0.  1.
         13    1    5    5    0    0 -0.77163211814E+03  0.54059933314E+02  0.62265029878E+03  0.99299143838E+03  0.00000000000E+00 0.  1.
        -13    1    5    5    0    0 -0.30948915717E+03  0.47132215583E+02  0.32337834974E+03  0.45008725957E+03  0.00000000000E+00 0. -1.
          2    1    6    6  503    0 -0.14567515348E+02  0.27512990941E+03  0.14935237963E+03  0.31339242629E+03  0.00000000000E+00 0. -1.
         -2    1    6    6    0  503 -0.67184634562E+02  0.18797481628E+03  0.17252776366E+03  0.26384490881E+03  0.00000000000E+00 0.  1.
<mgrwt>
<rscale>  0 0.37588146E+04</rscale>
<asrwt>0</asrwt>
<pdfrwt beam="1">  1        1 0.28115677E+00 0.37588146E+04</pdfrwt>
<pdfrwt beam="2">  1       -2 0.29734906E+00 0.37588146E+04</pdfrwt>
<totfact> 0.90330898E-02</totfact>
</mgrwt>
</event>
<event>
12    5  0.5197392E-008  0.1558749E+04  0.7818608E-02  0.8846299E-01
          1   -1    0    0  501    0  0.00000000000E+00  0.00000000000E+00  0.25080210554E+04  0.25080210554E+04  0.00000000000E+00 0. -1.
         -2   -1    0    0    0  501 -0.00000000000E+00 -0.00000000000E+00 -0.24219270362E+03  0.24219270362E+03  0.00000000000E+00 0.  1.
        -24    2    1    2    0    0  0.30881110491E+03 -0.30995367508E+03  0.12183930347E+04  0.12973866522E+04  0.85410532015E+02 0.  0.
        254    2    1    2    0    0 -0.30881110491E+03  0.30995367508E+03  0.10474353171E+04  0.14528271069E+04  0.90672502985E+03 0.  0.
         23    2    4    4    0    0 -0.10527502773E+03 -0.30410853717E+03  0.49289667447E+03  0.59592718388E+03  0.92829106104E+02 0.  0.
         23    2    4    4    0    0 -0.20353607717E+03  0.61406221225E+03  0.55453864260E+03  0.85689992297E+03  0.90912246884E+02 0.  0.
          3    1    3    3  502    0  0.14353710510E+03 -0.15775215816E+03  0.71491637423E+03  0.74605232128E+03  0.00000000000E+00 0. -1.
         -4    1    3    3    0  502  0.16527399981E+03 -0.15220151692E+03  0.50347666047E+03  0.55133433088E+03  0.00000000000E+00 0.  1.
         13    1    5    5    0    0  0.15920153602E-02 -0.10683389746E+02 -0.21556827684E+01  0.10898705758E+02  0.00000000000E+00 0. -1.
        -13    1    5    5    0    0 -0.10527661975E+03 -0.29342514742E+03  0.49505235724E+03  0.58502847812E+03  0.00000000000E+00 0.  1.
          3    1    6    6  503    0 -0.40485807826E+02  0.93791063327E+02  0.48717995030E+02  0.11317821007E+03  0.00000000000E+00 0. -1.
         -3    1    6    6    0  503 -0.16305026935E+03  0.52027114892E+03  0.50582064757E+03  0.74372171290E+03  0.00000000000E+00 0.  1.
<mgrwt>
<rscale>  0 0.15587487E+04</rscale>
<asrwt>0</asrwt>
<pdfrwt beam="1">  1        1 0.38584938E+00 0.15587487E+04</pdfrwt>
<pdfrwt beam="2">  1       -2 0.37260418E-01 0.15587487E+04</pdfrwt>
<totfact> 0.76961884E+00</totfact>
</mgrwt>
</event>
<event>
12    5  0.5197392E-008  0.2429160E+04  0.7818608E-02  0.8428667E-01
          1   -1    0    0  501    0  0.00000000000E+00  0.00000000000E+00  0.12760794149E+04  0.12760794149E+04  0.00000000000E+00 0. -1.
         -2   -1    0    0    0  501 -0.00000000000E+00 -0.00000000000E+00 -0.11560440617E+04  0.11560440617E+04  0.00000000000E+00 0.  1.
        -24    2    1    2    0    0 -0.64499444985E+03  0.72374533963E+03  0.44146593628E+03  0.10686235572E+04  0.85082178736E+02 0.  0.
        254    2    1    2    0    0  0.64499444985E+03 -0.72374533963E+03 -0.32143058306E+03  0.13634999193E+04  0.90332123484E+03 0.  0.
         23    2    4    4    0    0  0.58146802058E+03 -0.18987153832E+03 -0.49427841267E+03  0.79160775032E+03  0.90418035370E+02 0.  0.
         23    2    4    4    0    0  0.63526429273E+02 -0.53387380131E+03  0.17284782961E+03  0.57189216901E+03  0.90152303553E+02 0.  0.
          1    1    3    3  502    0 -0.57239128031E+03  0.59743627879E+03  0.38082949343E+03  0.91081995370E+03  0.00000000000E+00 0. -1.
         -2    1    3    3    0  502 -0.72603169543E+02  0.12630906084E+03  0.60636442854E+02  0.15780360351E+03  0.00000000000E+00 0.  1.
         13    1    5    5    0    0  0.56544218843E+03 -0.19948809664E+03 -0.48084706902E+03  0.76859239714E+03  0.00000000000E+00 0.  1.
        -13    1    5    5    0    0  0.16025832145E+02  0.96165583156E+01 -0.13431343648E+02  0.23015353180E+02  0.00000000000E+00 0. -1.
          4    1    6    6  503    0  0.24326532512E+02 -0.83209279093E+02  0.60704440629E+02  0.10583285607E+03  0.00000000000E+00 0. -1.
         -4    1    6    6    0  503  0.39199896761E+02 -0.45066452221E+03  0.11214338898E+03  0.46605931294E+03  0.00000000000E+00 0.  1.
<mgrwt>
<rscale>  0 0.24291595E+04</rscale>
<asrwt>0</asrwt>
<pdfrwt beam="1">  1        1 0.19631991E+00 0.24291595E+04</pdfrwt>
<pdfrwt beam="2">  1       -2 0.17785293E+00 0.24291595E+04</pdfrwt>
<totfact> 0.13852312E+00</totfact>
</mgrwt>
</event>
<event>
12    5  0.5197392E-008  0.2315345E+04  0.7818608E-02  0.8471895E-01
          1   -1    0    0  501    0  0.00000000000E+00  0.00000000000E+00  0.18086096949E+04  0.18086096949E+04  0.00000000000E+00 0. -1.
         -4   -1    0    0    0  501 -0.00000000000E+00 -0.00000000000E+00 -0.74101439439E+03  0.74101439439E+03  0.00000000000E+00 0.  1.
        -24    2    1    2    0    0  0.38164710379E+03 -0.89409738353E+03  0.30922430169E+03  0.10232668418E+04  0.79941964062E+02 0.  0.
        254    2    1    2    0    0 -0.38164710379E+03  0.89409738353E+03  0.75837099878E+03  0.15263572475E+04  0.89976398691E+03 0.  0.
         23    2    4    4    0    0 -0.73713488671E+02  0.34874886559E+03 -0.16749355218E+03  0.40492994291E+03  0.94099516380E+02 0.  0.
         23    2    4    4    0    0 -0.30793361512E+03  0.54534851794E+03  0.92586455096E+03  0.11214273046E+04  0.90254725096E+02 0.  0.
          3    1    3    3  502    0  0.24554664916E+02 -0.39105198106E+02 -0.88058951028E+00  0.46183585027E+02  0.00000000000E+00 0. -1.
         -4    1    3    3    0  502  0.35709243887E+03 -0.85499218542E+03  0.31010489120E+03  0.97708325673E+03  0.00000000000E+00 0.  1.
         13    1    5    5    0    0 -0.18026777806E+02  0.17568544318E+03 -0.35181671287E+02  0.18007800992E+03  0.00000000000E+00 0. -1.
        -13    1    5    5    0    0 -0.55686710865E+02  0.17306342241E+03 -0.13231188090E+03  0.22485193299E+03  0.00000000000E+00 0.  1.
          4    1    6    6  503    0 -0.27362913440E+02  0.11659508058E+02  0.40291372993E+02  0.50080613991E+02  0.00000000000E+00 0. -1.
         -4    1    6    6    0  503 -0.28057070168E+03  0.53368900988E+03  0.88557317797E+03  0.10713466906E+04  0.00000000000E+00 0.  1.
<mgrwt>
<rscale>  0 0.23153452E+04</rscale>
<asrwt>0</asrwt>
<pdfrwt beam="1">  1        1 0.27824764E+00 0.23153452E+04</pdfrwt>
<pdfrwt beam="2">  1       -4 0.11400222E+00 0.23153452E+04</pdfrwt>
<totfact> 0.10692477E+00</totfact>
</mgrwt>
</event>
<event>
12    5  0.5197392E-008  0.3060159E+04  0.7818608E-02  0.8226758E-01
         -2   -1    0    0    0  501 -0.00000000000E+00  0.00000000000E+00  0.12997838892E+04  0.12997838892E+04  0.00000000000E+00 0.  1.
          1   -1    0    0  501    0  0.00000000000E+00 -0.00000000000E+00 -0.18011785586E+04  0.18011785586E+04  0.00000000000E+00 0. -1.
        -24    2    1    2    0    0  0.20164846515E+03 -0.10113055746E+04  0.70460315101E+03  0.12514896059E+04  0.79746877170E+02 0.  0.
        254    2    1    2    0    0 -0.20164846515E+03  0.10113055746E+04 -0.12059978205E+04  0.18494728420E+04  0.95011472013E+03 0.  0.
         23    2    4    4    0    0 -0.36164597928E+03  0.10562846248E+04 -0.72812639588E+03  0.13359733769E+04  0.90176452496E+02 0.  0.
         23    2    4    4    0    0  0.15999751413E+03 -0.44979050197E+02 -0.47787142460E+03  0.51349946502E+03  0.87739857761E+02 0.  0.
          3    1    3    3  502    0  0.60620208412E+02 -0.46939848927E+03  0.29488034270E+03  0.55764161242E+03  0.00000000000E+00 0. -1.
         -4    1    3    3    0  502  0.14102825673E+03 -0.54190708535E+03  0.40972280831E+03  0.69384799344E+03  0.00000000000E+00 0.  1.
         13    1    5    5    0    0 -0.34128091154E+03  0.10362817532E+04 -0.70268700172E+03  0.12977370901E+04  0.00000000000E+00 0. -1.
        -13    1    5    5    0    0 -0.20365067738E+02  0.20002871572E+02 -0.25439394160E+02  0.38236286827E+02  0.00000000000E+00 0.  1.
          1    1    6    6  503    0  0.10941052571E+03  0.75894777232E+01 -0.22487216350E+03  0.25019143316E+03  0.00000000000E+00 0. -1.
         -1    1    6    6    0  503  0.50586988423E+02 -0.52568527920E+02 -0.25299926110E+03  0.26330803186E+03  0.00000000000E+00 0.  1.
<mgrwt>
<rscale>  0 0.30601587E+04</rscale>
<asrwt>0</asrwt>
<pdfrwt beam="1">  1        1 0.27710439E+00 0.30601587E+04</pdfrwt>
<pdfrwt beam="2">  1       -2 0.19996675E+00 0.30601587E+04</pdfrwt>
<totfact> 0.40267382E-01</totfact>
</mgrwt>
</event>
<event>
12    5  0.5197392E-008  0.3064882E+04  0.7818608E-02  0.8225442E-01
          1   -1    0    0  501    0  0.00000000000E+00  0.00000000000E+00  0.23208864033E+04  0.23208864033E+04  0.00000000000E+00 0. -1.
         -2   -1    0    0    0  501 -0.00000000000E+00 -0.00000000000E+00 -0.10118441959E+04  0.10118441959E+04  0.00000000000E+00 0.  1.
        -24    2    1    2    0    0  0.96770791153E+03  0.51014435654E+02 -0.49761100706E+03  0.10926478894E+04  0.84862365987E+02 0.  0.
        254    2    1    2    0    0 -0.96770791153E+03 -0.51014435654E+02  0.18066532145E+04  0.22400827098E+04  0.90272566973E+03 0.  0.
         23    2    4    4    0    0 -0.71763836703E+02  0.25749514432E+03  0.82803775084E+03  0.87488502864E+03  0.91233211691E+02 0.  0.
         23    2    4    4    0    0 -0.89594407483E+03 -0.30850957997E+03  0.97861546366E+03  0.13651976812E+04  0.90457376108E+02 0.  0.
          1    1    3    3  502    0  0.22307762193E+03  0.19162149282E+02 -0.76562421021E+02  0.23662759282E+03  0.00000000000E+00 0. -1.
         -2    1    3    3    0  502  0.74463028960E+03  0.31852286372E+02 -0.42104858604E+03  0.85602029658E+03  0.00000000000E+00 0.  1.
         13    1    5    5    0    0 -0.72464821478E+02  0.26410421618E+03  0.81959550187E+03  0.86414059853E+03  0.00000000000E+00 0. -1.
        -13    1    5    5    0    0  0.70098477460E+00 -0.66090718633E+01  0.84422489765E+01  0.10744430107E+02  0.00000000000E+00 0.  1.
          1    1    6    6  503    0 -0.51307414584E+03 -0.15625959750E+03  0.61102222271E+03  0.81302539787E+03  0.00000000000E+00 0. -1.
         -1    1    6    6    0  503 -0.38286992899E+03 -0.15224998247E+03  0.36759324095E+03  0.55217228333E+03  0.00000000000E+00 0.  1.
<mgrwt>
<rscale>  0 0.30648820E+04</rscale>
<asrwt>0</asrwt>
<pdfrwt beam="1">  1        1 0.35705945E+00 0.30648820E+04</pdfrwt>
<pdfrwt beam="2">  1       -2 0.15566834E+00 0.30648820E+04</pdfrwt>
<totfact> 0.36372477E-01</totfact>
</mgrwt>
</event>
<event>
12    5  0.5197392E-008  0.1882855E+04  0.7818608E-02  0.8663438E-01
          1   -1    0    0  501    0  0.00000000000E+00  0.00000000000E+00  0.17523424516E+04  0.17523424516E+04  0.00000000000E+00 0. -1.
         -2   -1    0    0    0  501 -0.00000000000E+00 -0.00000000000E+00 -0.50577221692E+03  0.50577221692E+03  0.00000000000E+00 0.  1.
        -24    2    1    2    0    0 -0.15834813214E+03 -0.13839982957E+03 -0.34932384265E+03  0.41542691830E+03  0.79521906587E+02 0.  0.
        254    2    1    2    0    0  0.15834813214E+03  0.13839982957E+03  0.15958940773E+04  0.18426877502E+04  0.89687880727E+03 0.  0.
         23    2    4    4    0    0 -0.26784204281E+03  0.16661163754E+03  0.21061688714E+03  0.39020665281E+03  0.91667666574E+02 0.  0.
         23    2    4    4    0    0  0.42619017495E+03 -0.28211807971E+02  0.13852771902E+04  0.14524810974E+04  0.90964131822E+02 0.  0.
          3    1    3    3  502    0 -0.32281324876E+02 -0.33079013882E+02 -0.15094227994E+03  0.15786030841E+03  0.00000000000E+00 0. -1.
         -4    1    3    3    0  502 -0.12606680727E+03 -0.10532081569E+03 -0.19838156271E+03  0.25756660990E+03  0.00000000000E+00 0.  1.
         13    1    5    5    0    0 -0.18844928074E+03  0.64696988158E+02  0.12446076621E+03  0.23492406010E+03  0.00000000000E+00 0.  1.
        -13    1    5    5    0    0 -0.79392762069E+02  0.10191464938E+03  0.86156120929E+02  0.15528259272E+03  0.00000000000E+00 0. -1.
          4    1    6    6  503    0  0.21395400256E+03 -0.48271174088E+02  0.80262642598E+03  0.83205504694E+03  0.00000000000E+00 0. -1.
         -4    1    6    6    0  503  0.21223617238E+03  0.20059366117E+02  0.58265076421E+03  0.62042605045E+03  0.00000000000E+00 0.  1.
<mgrwt>
<rscale>  0 0.18828554E+04</rscale>
<asrwt>0</asrwt>
<pdfrwt beam="1">  1        1 0.26959114E+00 0.18828554E+04</pdfrwt>
<pdfrwt beam="2">  1       -2 0.77811111E-01 0.18828554E+04</pdfrwt>
<totfact> 0.53121323E+00</totfact>
</mgrwt>
</event>
<event>
12    5  0.5197392E-008  0.1246621E+04  0.7818608E-02  0.9073000E-01
         -2   -1    0    0    0  501 -0.00000000000E+00  0.00000000000E+00  0.74968233511E+03  0.74968233511E+03  0.00000000000E+00 0.  1.
          1   -1    0    0  501    0  0.00000000000E+00 -0.00000000000E+00 -0.51824098878E+03  0.51824098878E+03  0.00000000000E+00 0. -1.
        -24    2    1    2    0    0  0.14774973253E+03  0.35982628207E+02  0.30487415387E+03  0.34990611361E+03  0.79757793627E+02 0.  0.
        254    2    1    2    0    0 -0.14774973253E+03 -0.35982628207E+02 -0.73432807544E+02  0.91801721028E+03  0.90235164329E+03 0.  0.
         23    2    4    4    0    0 -0.34617533118E+03 -0.34475167401E+03  0.91492668071E+02  0.50471369926E+03  0.87600988946E+02 0.  0.
         23    2    4    4    0    0  0.19842559865E+03  0.30876904580E+03 -0.16492547562E+03  0.41330351102E+03  0.94383991589E+02 0.  0.
          1    1    3    3  502    0 -0.68175305455E+01  0.13943934163E+02  0.24936882446E+02  0.29372778704E+02  0.00000000000E+00 0. -1.
         -2    1    3    3    0  502  0.15456726307E+03  0.22038694044E+02  0.27993727143E+03  0.32053333490E+03  0.00000000000E+00 0.  1.
         13    1    5    5    0    0 -0.28036645388E+03 -0.24003372117E+03  0.41865449386E+02  0.37144885464E+03  0.00000000000E+00 0. -1.
        -13    1    5    5    0    0 -0.65808877297E+02 -0.10471795284E+03  0.49627218685E+02  0.13326484462E+03  0.00000000000E+00 0.  1.
          3    1    6    6  503    0  0.17561127008E+03  0.30980922936E+03 -0.15582567456E+03  0.38871933014E+03  0.00000000000E+00 0. -1.
         -3    1    6    6    0  503  0.22814328575E+02 -0.10401835572E+01 -0.90998010572E+01  0.24584180878E+02  0.00000000000E+00 0.  1.
<mgrwt>
<rscale>  0 0.12466212E+04</rscale>
<asrwt>0</asrwt>
<pdfrwt beam="1">  1        1 0.79729383E-01 0.12466212E+04</pdfrwt>
<pdfrwt beam="2">  1       -2 0.11533574E+00 0.12466212E+04</pdfrwt>
<totfact> 0.21295266E+01</totfact>
</mgrwt>
</event>
<event>
12    5  0.5197392E-008  0.1941245E+04  0.7818608E-02  0.8634594E-01
         -2   -1    0    0    0  501 -0.00000000000E+00  0.00000000000E+00  0.67944789608E+03  0.67944789608E+03  0.00000000000E+00 0.  1.
          1   -1    0    0  501    0  0.00000000000E+00 -0.00000000000E+00 -0.13865788451E+04  0.13865788451E+04  0.00000000000E+00 0. -1.
        -24    2    1    2    0    0  0.61071388315E+02 -0.22215073910E+03  0.49055676276E+03  0.54953127248E+03  0.90873629808E+02 0.  0.
        254    2    1    2    0    0 -0.61071388315E+02  0.22215073910E+03 -0.11976877118E+04  0.15164954687E+04  0.90123359141E+03 0.  0.
         23    2    4    4    0    0  0.63183889890E+02 -0.83705755816E+02 -0.11616703220E+04  0.11704463073E+04  0.97302434879E+02 0.  0.
         23    2    4    4    0    0 -0.12425527820E+03  0.30585649491E+03 -0.36017389782E+02  0.34604916137E+03  0.97289259807E+02 0.  0.
          3    1    3    3  502    0  0.76339752688E+02 -0.14702522643E+03  0.27855083747E+03  0.32409064180E+03  0.00000000000E+00 0. -1.
         -4    1    3    3    0  502 -0.15268364374E+02 -0.75125512663E+02  0.21200592529E+03  0.22544063068E+03  0.00000000000E+00 0.  1.
         13    1    5    5    0    0  0.82490673858E+02 -0.69494205792E+02 -0.71061621351E+03  0.71875556264E+03  0.00000000000E+00 0.  1.
        -13    1    5    5    0    0 -0.19306783968E+02 -0.14211550024E+02 -0.45105410849E+03  0.45169074470E+03  0.00000000000E+00 0. -1.
          1    1    6    6  503    0 -0.84616446245E+01 -0.54471369133E+01 -0.77596076126E+01  0.12707566274E+02  0.00000000000E+00 0. -1.
         -1    1    6    6    0  503 -0.11579363358E+03  0.31130363183E+03 -0.28257782169E+02  0.33334159509E+03  0.00000000000E+00 0.  1.
<mgrwt>
<rscale>  0 0.19412450E+04</rscale>
<asrwt>0</asrwt>
<pdfrwt beam="1">  1        1 0.21331982E+00 0.19412450E+04</pdfrwt>
<pdfrwt beam="2">  1       -2 0.10453045E+00 0.19412450E+04</pdfrwt>
<totfact> 0.47733058E+00</totfact>
</mgrwt>
</event>
<event>
12    5  0.5197392E-008  0.1501928E+04  0.7818608E-02  0.8883172E-01
          1   -1    0    0  501    0  0.00000000000E+00  0.00000000000E+00  0.25554243408E+04  0.25554243408E+04  0.00000000000E+00 0. -1.
         -2   -1    0    0    0  501 -0.00000000000E+00 -0.00000000000E+00 -0.22068628894E+03  0.22068628894E+03  0.00000000000E+00 0.  1.
        -24    2    1    2    0    0  0.19102392409E+03 -0.10116117316E+03  0.15304687692E+04  0.15478406629E+04  0.82172632671E+02 0.  0.
        254    2    1    2    0    0 -0.19102392409E+03  0.10116117316E+03  0.80426928267E+03  0.12282699669E+04  0.90281465983E+03 0.  0.
         23    2    4    4    0    0 -0.40074798483E+03  0.37346659411E+03  0.37317275896E+03  0.66916573015E+03  0.91916386532E+02 0.  0.
         23    2    4    4    0    0  0.20972406074E+03 -0.27230542096E+03  0.43109652372E+03  0.55910423675E+03  0.92838089485E+02 0.  0.
          1    1    3    3  502    0  0.19321969354E+03 -0.91499195670E+02  0.15104406089E+04  0.15254955869E+04  0.00000000000E+00 0. -1.
         -2    1    3    3    0  502 -0.21957694492E+01 -0.96619774874E+01  0.20028160328E+02  0.22345075935E+02  0.00000000000E+00 0.  1.
         13    1    5    5    0    0 -0.30944948442E+03  0.28727454613E+03  0.23807703395E+03  0.48473324866E+03  0.00000000000E+00 0.  1.
        -13    1    5    5    0    0 -0.91298500408E+02  0.86192047978E+02  0.13509572500E+03  0.18443248148E+03  0.00000000000E+00 0. -1.
          3    1    6    6  503    0  0.16492894751E+03 -0.14010715471E+03  0.25812815582E+03  0.33684078933E+03  0.00000000000E+00 0. -1.
         -3    1    6    6    0  503  0.44795113222E+02 -0.13219826625E+03  0.17296836790E+03  0.22226344742E+03  0.00000000000E+00 0.  1.
<mgrwt>
<rscale>  0 0.15019282E+04</rscale>
<asrwt>0</asrwt>
<pdfrwt beam="1">  1        1 0.39314219E+00 0.15019282E+04</pdfrwt>
<pdfrwt beam="2">  1       -2 0.33951739E-01 0.15019282E+04</pdfrwt>
<totfact> 0.85729899E+00</totfact>
</mgrwt>
</event>
<event>
12    5  0.5197392E-008  0.1404727E+04  0.7818608E-02  0.8950404E-01
          1   -1    0    0  501    0  0.00000000000E+00  0.00000000000E+00  0.16875746198E+04  0.16875746198E+04  0.00000000000E+00 0. -1.
         -2   -1    0    0    0  501 -0.00000000000E+00 -0.00000000000E+00 -0.29232153776E+03  0.29232153776E+03  0.00000000000E+00 0.  1.
        -24    2    1    2    0    0 -0.14925469951E+02  0.85157871710E+02 -0.13085695717E+03  0.17597386763E+03  0.79803672103E+02 0.  0.
        254    2    1    2    0    0  0.14925469951E+02 -0.85157871710E+02  0.15261100392E+04  0.18039222900E+04  0.95794005219E+03 0.  0.
         23    2    4    4    0    0  0.19057642134E+03 -0.20123144034E+03  0.15453883095E+04  0.15733874840E+04  0.10251674243E+03 0.  0.
         23    2    4    4    0    0 -0.17565095139E+03  0.11607356863E+03 -0.19278270285E+02  0.23053480601E+03  0.91914716003E+02 0.  0.
          3    1    3    3  502    0 -0.24491609545E+02  0.87414475843E+02 -0.70818976602E+02  0.11513668821E+03  0.00000000000E+00 0. -1.
         -4    1    3    3    0  502  0.95661395945E+01 -0.22566041329E+01 -0.60037980569E+02  0.60837179420E+02  0.00000000000E+00 0.  1.
         13    1    5    5    0    0  0.29801498078E+02 -0.97840971076E+02  0.45316066462E+03  0.46455954717E+03  0.00000000000E+00 0.  1.
        -13    1    5    5    0    0  0.16077492326E+03 -0.10339046927E+03  0.10922276449E+04  0.11088279368E+04  0.00000000000E+00 0. -1.
          4    1    6    6  503    0 -0.18145765378E+03  0.12406073891E+03 -0.19309253113E+02  0.22065990644E+03  0.00000000000E+00 0. -1.
         -4    1    6    6    0  503  0.58067023924E+01 -0.79871702719E+01  0.30982828217E-01  0.98748995722E+01  0.00000000000E+00 0.  1.
<mgrwt>
<rscale>  0 0.14047269E+04</rscale>
<asrwt>0</asrwt>
<pdfrwt beam="1">  1        1 0.25962686E+00 0.14047269E+04</pdfrwt>
<pdfrwt beam="2">  1       -2 0.44972545E-01 0.14047269E+04</pdfrwt>
<totfact> 0.19497027E+01</totfact>
</mgrwt>
</event>
<event>
12    5  0.5197392E-008  0.1980478E+04  0.7818608E-02  0.8615803E-01
          1   -1    0    0  501    0  0.00000000000E+00  0.00000000000E+00  0.58794911722E+03  0.58794911722E+03  0.00000000000E+00 0. -1.
         -2   -1    0    0    0  501 -0.00000000000E+00 -0.00000000000E+00 -0.16677851867E+04  0.16677851867E+04  0.00000000000E+00 0.  1.
        -24    2    1    2    0    0  0.70330156188E+03  0.72724914549E+02 -0.81851126740E+03  0.10846230980E+04  0.80774808304E+02 0.  0.
        254    2    1    2    0    0 -0.70330156188E+03 -0.72724914549E+02 -0.26132480208E+03  0.11711112060E+04  0.89626380291E+03 0.  0.
         23    2    4    4    0    0 -0.61168370563E+03  0.12660983315E+03  0.19186486448E+03  0.65958911780E+03  0.89770109269E+02 0.  0.
         23    2    4    4    0    0 -0.91617856245E+02 -0.19933474770E+03 -0.45318966655E+03  0.51152208815E+03  0.90254083426E+02 0.  0.
          3    1    3    3  502    0  0.15804947666E+03  0.19360860302E+02 -0.13583635536E+03  0.20929881849E+03  0.00000000000E+00 0. -1.
         -4    1    3    3    0  502  0.54525208522E+03  0.53364054247E+02 -0.68267491204E+03  0.87532427948E+03  0.00000000000E+00 0.  1.
         13    1    5    5    0    0 -0.29847794891E+03  0.38339120051E+02  0.13251264224E+03  0.32881389031E+03  0.00000000000E+00 0.  1.
        -13    1    5    5    0    0 -0.31320575672E+03  0.88270713101E+02  0.59352222239E+02  0.33077522749E+03  0.00000000000E+00 0. -1.
          1    1    6    6  503    0 -0.15636824895E+02 -0.51713389563E+02 -0.43143104612E+02  0.69138357143E+02  0.00000000000E+00 0. -1.
         -1    1    6    6    0  503 -0.75981031351E+02 -0.14762135814E+03 -0.41004656194E+03  0.44238373101E+03  0.00000000000E+00 0.  1.
<mgrwt>
<rscale>  0 0.19804775E+04</rscale>
<asrwt>0</asrwt>
<pdfrwt beam="1">  1        1 0.90453712E-01 0.19804775E+04</pdfrwt>
<pdfrwt beam="2">  1       -2 0.25658233E+00 0.19804775E+04</pdfrwt>
<totfact> 0.16799359E+00</totfact>
</mgrwt>
</event>
<event>
12    5  0.5197392E-008  0.1401830E+04  0.7818608E-02  0.8952495E-01
         -2   -1    0    0    0  501 -0.00000000000E+00  0.00000000000E+00  0.15045380113E+04  0.15045380113E+04  0.00000000000E+00 0.  1.
          1   -1    0    0  501    0  0.00000000000E+00 -0.00000000000E+00 -0.32653356867E+03  0.32653356867E+03  0.00000000000E+00 0. -1.
        -24    2    1    2    0    0 -0.84817363606E+02  0.28457561560E+03  0.71335830094E+03  0.77671037883E+03  0.78877632397E+02 0.  0.
        254    2    1    2    0    0  0.84817363606E+02 -0.28457561560E+03  0.46464614168E+03  0.10543612011E+04  0.89866803622E+03 0.  0.
         23    2    4    4    0    0  0.16852335816E+03  0.28351441929E+03  0.63778301503E+02  0.34854920568E+03  0.92942610488E+02 0.  0.
         23    2    4    4    0    0 -0.83705994557E+02 -0.56809003489E+03  0.40086784018E+03  0.70581199546E+03  0.87991854030E+02 0.  0.
          1    1    3    3  502    0 -0.41787087103E+02  0.14794854721E+03  0.26896844494E+03  0.30980470887E+03  0.00000000000E+00 0. -1.
         -2    1    3    3    0  502 -0.43030276503E+02  0.13662706839E+03  0.44438985601E+03  0.46690566995E+03  0.00000000000E+00 0.  1.
         13    1    5    5    0    0  0.34518971632E+02  0.97557200720E+02  0.59352010705E+02  0.11929638716E+03  0.00000000000E+00 0.  1.
        -13    1    5    5    0    0  0.13400438653E+03  0.18595721857E+03  0.44262907974E+01  0.22925281852E+03  0.00000000000E+00 0. -1.
          1    1    6    6  503    0 -0.91214645005E+02 -0.56527289096E+03  0.39234739311E+03  0.69411096347E+03  0.00000000000E+00 0. -1.
         -1    1    6    6    0  503  0.75086504476E+01 -0.28171439265E+01  0.85204470673E+01  0.11701031992E+02  0.00000000000E+00 0.  1.
<mgrwt>
<rscale>  0 0.14018305E+04</rscale>
<asrwt>0</asrwt>
<pdfrwt beam="1">  1        1 0.50235934E-01 0.14018305E+04</pdfrwt>
<pdfrwt beam="2">  1       -2 0.23146738E+00 0.14018305E+04</pdfrwt>
<totfact> 0.55930826E+00</totfact>
</mgrwt>
</event>
<event>
12    5  0.5197392E-008  0.1544946E+04  0.7818608E-02  0.8855103E-01
         -4   -1    0    0    0  501 -0.00000000000E+00  0.00000000000E+00  0.81367798230E+03  0.81367798230E+03  0.00000000000E+00 0.  1.
          1   -1    0    0  501    0  0.00000000000E+00 -0.00000000000E+00 -0.73335449041E+03  0.73335449041E+03  0.00000000000E+00 0. -1.
        -24    2    1    2    0    0  0.26155562127E+03  0.39474216019E+03 -0.14951213140E+03  0.50310949922E+03  0.80824344889E+02 0.  0.
        254    2    1    2    0    0 -0.26155562127E+03 -0.39474216019E+03  0.22983562329E+03  0.10439229735E+04  0.90150876024E+03 0.  0.
         23    2    4    4    0    0 -0.25485500433E+03 -0.42901543616E+02 -0.29681897659E+03  0.40385364267E+03  0.90579490803E+02 0.  0.
         23    2    4    4    0    0 -0.67006169429E+01 -0.35184061657E+03  0.52665459988E+03  0.64006933081E+03  0.92124714030E+02 0.  0.
          1    1    3    3  502    0  0.81752515503E+01  0.43790933159E+02  0.17469852765E+01  0.44581751002E+02  0.00000000000E+00 0. -1.
         -2    1    3    3    0  502  0.25338036972E+03  0.35095122703E+03 -0.15125911668E+03  0.45852774822E+03  0.00000000000E+00 0.  1.
         13    1    5    5    0    0  0.58092371424E+01 -0.61399327137E+01 -0.21445214950E+01  0.87203774201E+01  0.00000000000E+00 0.  1.
        -13    1    5    5    0    0 -0.26066424147E+03 -0.36761610903E+02 -0.29467445510E+03  0.39513326525E+03  0.00000000000E+00 0. -1.
          4    1    6    6  503    0  0.34926280922E+02 -0.63981754584E+02  0.10312874093E+03  0.12628953727E+03  0.00000000000E+00 0.  1.
         -4    1    6    6    0  503 -0.41626897865E+02 -0.28785886198E+03  0.42352585895E+03  0.51377979354E+03  0.00000000000E+00 0. -1.
<mgrwt>
<rscale>  0 0.15449458E+04</rscale>
<asrwt>0</asrwt>
<pdfrwt beam="1">  1        1 0.11282377E+00 0.15449458E+04</pdfrwt>
<pdfrwt beam="2">  1       -4 0.12518123E+00 0.15449458E+04</pdfrwt>
<totfact> 0.56193062E+00</totfact>
</mgrwt>
</event>
<event>
12    5  0.5197392E-008  0.1706150E+04  0.7818608E-02  0.8757865E-01
         -2   -1    0    0    0  501 -0.00000000000E+00  0.00000000000E+00  0.75638367185E+03  0.75638367185E+03  0.00000000000E+00 0.  1.
          1   -1    0    0  501    0  0.00000000000E+00 -0.00000000000E+00 -0.96212669230E+03  0.96212669230E+03  0.00000000000E+00 0. -1.
        -24    2    1    2    0    0 -0.49591754597E+03 -0.70364198795E+01  0.27869544529E+03  0.57448208412E+03  0.79842282935E+02 0.  0.
        254    2    1    2    0    0  0.49591754597E+03  0.70364198795E+01 -0.48443846574E+03  0.11440282800E+04  0.91001997497E+03 0.  0.
         23    2    4    4    0    0 -0.35418428161E+02  0.30830519809E+02 -0.58653664202E+03  0.59495019529E+03  0.87951784702E+02 0.  0.
         23    2    4    4    0    0  0.53133597413E+03 -0.23794099929E+02  0.10209817629E+03  0.54907808475E+03  0.90435772561E+02 0.  0.
          3    1    3    3  502    0 -0.24460342011E+03  0.33340438522E+02  0.11956141662E+03  0.27429427685E+03  0.00000000000E+00 0. -1.
         -4    1    3    3    0  502 -0.25131412586E+03 -0.40376858401E+02  0.15913402867E+03  0.30018780727E+03  0.00000000000E+00 0.  1.
         13    1    5    5    0    0 -0.59428165698E+02  0.71380044139E+01 -0.26640114400E+03  0.27304253791E+03  0.00000000000E+00 0. -1.
        -13    1    5    5    0    0  0.24009737537E+02  0.23692515395E+02 -0.32013549803E+03  0.32190765738E+03  0.00000000000E+00 0.  1.
          1    1    6    6  503    0  0.43655882241E+03 -0.35515631523E+02  0.11464937948E+03  0.45275760150E+03  0.00000000000E+00 0. -1.
         -1    1    6    6    0  503  0.94777151721E+02  0.11721531594E+02 -0.12551203196E+02  0.96320483247E+02  0.00000000000E+00 0.  1.
<mgrwt>
<rscale>  0 0.17061500E+04</rscale>
<asrwt>0</asrwt>
<pdfrwt beam="1">  1        1 0.14801949E+00 0.17061500E+04</pdfrwt>
<pdfrwt beam="2">  1       -2 0.11636672E+00 0.17061500E+04</pdfrwt>
<totfact> 0.77407995E+00</totfact>
</mgrwt>
</event>
<event>
12    5  0.5197392E-008  0.1308111E+04  0.7818608E-02  0.9023157E-01
          1   -1    0    0  501    0  0.00000000000E+00  0.00000000000E+00  0.88696691342E+03  0.88696691342E+03  0.00000000000E+00 0. -1.
         -2   -1    0    0    0  501 -0.00000000000E+00 -0.00000000000E+00 -0.48230528872E+03  0.48230528872E+03  0.00000000000E+00 0.  1.
        -24    2    1    2    0    0  0.25865858961E+03 -0.40945280074E+02  0.34651455987E+03  0.44198221615E+03  0.81823940561E+02 0.  0.
        254    2    1    2    0    0 -0.25865858961E+03  0.40945280074E+02  0.58147064828E+02  0.92728998600E+03  0.88764004813E+03 0.  0.
         23    2    4    4    0    0  0.11336564856E+03  0.30860805342E+03 -0.19838801150E+03  0.39430429499E+03  0.89595608322E+02 0.  0.
         23    2    4    4    0    0 -0.37202423818E+03 -0.26766277335E+03  0.25653507633E+03  0.53298569101E+03  0.90653777653E+02 0.  0.
          1    1    3    3  502    0  0.18816640834E+03  0.66055953665E+01  0.22030089976E+03  0.28979771834E+03  0.00000000000E+00 0. -1.
         -2    1    3    3    0  502  0.70492181267E+02 -0.47550875440E+02  0.12621366011E+03  0.15218449781E+03  0.00000000000E+00 0.  1.
         13    1    5    5    0    0  0.31666705065E+02  0.74339488712E+02 -0.72825993591E+01  0.81130611024E+02  0.00000000000E+00 0.  1.
        -13    1    5    5    0    0  0.81698943499E+02  0.23426856471E+03 -0.19110541215E+03  0.31317368397E+03  0.00000000000E+00 0. -1.
          3    1    6    6  503    0 -0.94217750994E+02 -0.55025911376E+02  0.10602668824E+03  0.15213971916E+03  0.00000000000E+00 0. -1.
         -3    1    6    6    0  503 -0.27780648718E+03 -0.21263686197E+03  0.15050838809E+03  0.38084597185E+03  0.00000000000E+00 0.  1.
<mgrwt>
<rscale>  0 0.13081114E+04</rscale>
<asrwt>0</asrwt>
<pdfrwt beam="1">  1        1 0.13645645E+00 0.13081114E+04</pdfrwt>
<pdfrwt beam="2">  1       -2 0.74200814E-01 0.13081114E+04</pdfrwt>
<totfact> 0.26250490E+01</totfact>
</mgrwt>
</event>
<event>
12    5  0.5197392E-008  0.1777025E+04  0.7818608E-02  0.8718614E-01
          1   -1    0    0  501    0  0.00000000000E+00  0.00000000000E+00  0.27731566690E+04  0.27731566690E+04  0.00000000000E+00 0. -1.
         -2   -1    0    0    0  501 -0.00000000000E+00 -0.00000000000E+00 -0.28467704867E+03  0.28467704867E+03  0.00000000000E+00 0.  1.
        -24    2    1    2    0    0  0.14990221597E+03 -0.33387152133E+03  0.19957630523E+04  0.20305920961E+04  0.79329898413E+02 0.  0.
        254    2    1    2    0    0 -0.14990221597E+03  0.33387152133E+03  0.49271656800E+03  0.10272416215E+04  0.82372013786E+03 0.  0.
         23    2    4    4    0    0 -0.39452492786E+03  0.43844725175E+03  0.43884805091E+03  0.74059817596E+03  0.89510531173E+02 0.  0.
         23    2    4    4    0    0  0.24462271189E+03 -0.10457573042E+03  0.53868517091E+02  0.28664344557E+03  0.92121078961E+02 0.  0.
          1    1    3    3  502    0  0.14472494081E+03 -0.25439921040E+03  0.16517297273E+04  0.16774609858E+04  0.00000000000E+00 0. -1.
         -2    1    3    3    0  502  0.51772751563E+01 -0.79472310928E+02  0.34403332501E+03  0.35313111035E+03  0.00000000000E+00 0.  1.
         13    1    5    5    0    0 -0.34493106493E+03  0.37347884277E+03  0.33671817817E+03  0.60978932187E+03  0.00000000000E+00 0.  1.
        -13    1    5    5    0    0 -0.49593862927E+02  0.64968408973E+02  0.10212987274E+03  0.13080885410E+03  0.00000000000E+00 0. -1.
          2    1    6    6  503    0  0.15257953847E+03 -0.46049555053E+02  0.74013116566E+02  0.17572426840E+03  0.00000000000E+00 0.  1.
         -2    1    6    6    0  503  0.92043173418E+02 -0.58526175366E+02 -0.20144599475E+02  0.11091917717E+03  0.00000000000E+00 0. -1.
<mgrwt>
<rscale>  0 0.17770245E+04</rscale>
<asrwt>0</asrwt>
<pdfrwt beam="1">  1        1 0.42663947E+00 0.17770245E+04</pdfrwt>
<pdfrwt beam="2">  1       -2 0.43796471E-01 0.17770245E+04</pdfrwt>
<totfact> 0.35833332E+00</totfact>
</mgrwt>
</event>
<event>
12    5  0.5197392E-008  0.1893230E+04  0.7818608E-02  0.8658234E-01
          1   -1    0    0  501    0  0.00000000000E+00  0.00000000000E+00  0.13073154053E+04  0.13073154053E+04  0.00000000000E+00 0. -1.
         -2   -1    0    0    0  501 -0.00000000000E+00 -0.00000000000E+00 -0.68543481404E+03  0.68543481404E+03  0.00000000000E+00 0.  1.
        -24    2    1    2    0    0  0.16329686325E+03 -0.21404733429E+03  0.94525515371E+03  0.98620584137E+03  0.81317458601E+02 0.  0.
        254    2    1    2    0    0 -0.16329686325E+03  0.21404733429E+03 -0.32337456247E+03  0.10065443780E+04  0.91437320076E+03 0.  0.
         23    2    4    4    0    0 -0.48445036933E+03  0.32608278616E+03 -0.27117230260E+03  0.65039902059E+03  0.91990893599E+02 0.  0.
         23    2    4    4    0    0  0.32115350609E+03 -0.11203545187E+03 -0.52202259876E+02  0.35614535737E+03  0.91776482222E+02 0.  0.
          1    1    3    3  502    0  0.80020529616E+02 -0.13921649412E+03  0.67169756278E+03  0.69062445166E+03  0.00000000000E+00 0. -1.
         -2    1    3    3    0  502  0.83276333630E+02 -0.74830840174E+02  0.27355759094E+03  0.29558138971E+03  0.00000000000E+00 0.  1.
         13    1    5    5    0    0 -0.47525382363E+03  0.29645921710E+03 -0.25800877928E+03  0.61670316560E+03  0.00000000000E+00 0. -1.
        -13    1    5    5    0    0 -0.91965457000E+01  0.29623569063E+02 -0.13163523321E+02  0.33695854983E+02  0.00000000000E+00 0.  1.
          3    1    6    6  503    0  0.31192853781E+03 -0.94094859372E+02 -0.65031172687E+02  0.33223833114E+03  0.00000000000E+00 0. -1.
         -3    1    6    6    0  503  0.92249682807E+01 -0.17940592500E+02  0.12828912811E+02  0.23907026225E+02  0.00000000000E+00 0.  1.
<mgrwt>
<rscale>  0 0.18932295E+04</rscale>
<asrwt>0</asrwt>
<pdfrwt beam="1">  1        1 0.20112545E+00 0.18932295E+04</pdfrwt>
<pdfrwt beam="2">  1       -2 0.10545151E+00 0.18932295E+04</pdfrwt>
<totfact> 0.53407719E+00</totfact>
</mgrwt>
</event>
<event>
12    5  0.5197392E-008  0.1303726E+04  0.7818608E-02  0.9026615E-01
          1   -1    0    0  501    0  0.00000000000E+00  0.00000000000E+00  0.18108307491E+04  0.18108307491E+04  0.00000000000E+00 0. -1.
         -2   -1    0    0    0  501 -0.00000000000E+00 -0.00000000000E+00 -0.23465779701E+03  0.23465779701E+03  0.00000000000E+00 0.  1.
        -24    2    1    2    0    0  0.26237176773E+03 -0.11630249953E+03  0.10716136964E+03  0.31612132653E+03  0.77999474648E+02 0.  0.
        254    2    1    2    0    0 -0.26237176773E+03  0.11630249953E+03  0.14690115824E+04  0.17293672196E+04  0.86622787701E+03 0.  0.
         23    2    4    4    0    0  0.24494988137E+03 -0.13216551423E+03  0.78945726065E+03  0.84206872452E+03  0.91481161381E+02 0.  0.
         23    2    4    4    0    0 -0.50732164910E+03  0.24846801376E+03  0.67955432179E+03  0.88729849506E+03  0.79955822521E+02 0.  0.
          1    1    3    3  502    0  0.88327387341E+02 -0.78990295222E+01  0.10061633641E+02  0.89248857098E+02  0.00000000000E+00 0. -1.
         -2    1    3    3    0  502  0.17404438039E+03 -0.10840347001E+03  0.97099736000E+02  0.22687246943E+03  0.00000000000E+00 0.  1.
         13    1    5    5    0    0  0.12196978840E+02 -0.23000413724E+02  0.16053122617E+03  0.16262859497E+03  0.00000000000E+00 0.  1.
        -13    1    5    5    0    0  0.23275290253E+03 -0.10916510051E+03  0.62892603448E+03  0.67944012956E+03  0.00000000000E+00 0. -1.
          1    1    6    6  503    0 -0.45438808353E+03  0.24634865690E+03  0.60308903782E+03  0.79427487607E+03  0.00000000000E+00 0. -1.
         -1    1    6    6    0  503 -0.52933565571E+02  0.21193568655E+01  0.76465283967E+02  0.93023618989E+02  0.00000000000E+00 0.  1.
<mgrwt>
<rscale>  0 0.13037263E+04</rscale>
<asrwt>0</asrwt>
<pdfrwt beam="1">  1        1 0.27858934E+00 0.13037263E+04</pdfrwt>
<pdfrwt beam="2">  1       -2 0.36101201E-01 0.13037263E+04</pdfrwt>
<totfact> 0.24941327E+01</totfact>
</mgrwt>
</event>
<event>
12    5  0.5197392E-008  0.2582893E+04  0.7818608E-02  0.8374035E-01
         -2   -1    0    0    0  501 -0.00000000000E+00  0.00000000000E+00  0.19136064690E+04  0.19136064690E+04  0.00000000000E+00 0.  1.
          1   -1    0    0  501    0  0.00000000000E+00 -0.00000000000E+00 -0.87156606818E+03  0.87156606818E+03  0.00000000000E+00 0. -1.
        -24    2    1    2    0    0 -0.53628945977E+03 -0.79738376603E+03 -0.17828648594E+03  0.98067065419E+03  0.80632536450E+02 0.  0.
        254    2    1    2    0    0  0.53628945977E+03  0.79738376603E+03  0.12203268867E+04  0.18045018830E+04  0.91847813263E+03 0.  0.
         23    2    4    4    0    0 -0.10821949064E+03  0.17174102816E+03  0.75890826102E+03  0.79079939972E+03  0.90639412198E+02 0.  0.
         23    2    4    4    0    0  0.64450895041E+03  0.62564273788E+03  0.46141862571E+03  0.10137024832E+04  0.88684574471E+02 0.  0.
          3    1    3    3  502    0 -0.38215183969E+03 -0.61833361308E+03 -0.15528470082E+03  0.74329659218E+03  0.00000000000E+00 0. -1.
         -4    1    3    3    0  502 -0.15413762008E+03 -0.17905015296E+03 -0.23001785115E+02  0.23737406201E+03  0.00000000000E+00 0.  1.
         13    1    5    5    0    0 -0.82236281773E+02  0.15939101792E+03  0.51784027604E+03  0.54802085190E+03  0.00000000000E+00 0. -1.
        -13    1    5    5    0    0 -0.25983208865E+02  0.12350010236E+02  0.24106798498E+03  0.24277854782E+03  0.00000000000E+00 0.  1.
          3    1    6    6  503    0  0.32251802792E+03  0.26852019703E+03  0.24944932454E+03  0.48820686196E+03  0.00000000000E+00 0. -1.
         -3    1    6    6    0  503  0.32199092249E+03  0.35712254084E+03  0.21196930117E+03  0.52549562128E+03  0.00000000000E+00 0.  1.
<mgrwt>
<rscale>  0 0.25828933E+04</rscale>
<asrwt>0</asrwt>
<pdfrwt beam="1">  1        1 0.13408709E+00 0.25828933E+04</pdfrwt>
<pdfrwt beam="2">  1       -2 0.29440100E+00 0.25828933E+04</pdfrwt>
<totfact> 0.51108621E-01</totfact>
</mgrwt>
</event>
<event>
12    5  0.5197392E-008  0.1553124E+04  0.7818608E-02  0.8849875E-01
          1   -1    0    0  501    0  0.00000000000E+00  0.00000000000E+00  0.32307563523E+04  0.32307563523E+04  0.00000000000E+00 0. -1.
         -2   -1    0    0    0  501 -0.00000000000E+00 -0.00000000000E+00 -0.18665871267E+03  0.18665871267E+03  0.00000000000E+00 0.  1.
        -24    2    1    2    0    0  0.25107065010E+03  0.42735198216E+03  0.74669749288E+03  0.89983288590E+03  0.80472906491E+02 0.  0.
        254    2    1    2    0    0 -0.25107065010E+03 -0.42735198216E+03  0.22974001468E+04  0.25175821791E+04  0.90250008650E+03 0.  0.
         23    2    4    4    0    0 -0.53763112366E+03 -0.33390789623E+03  0.19350764229E+04  0.20379168483E+04  0.89680599331E+02 0.  0.
         23    2    4    4    0    0  0.28656047356E+03 -0.93444085924E+02  0.36232372389E+03  0.47966533080E+03  0.89172004998E+02 0.  0.
          1    1    3    3  502    0  0.47888095419E+02  0.12684628461E+03  0.15643380285E+03  0.20701397121E+03  0.00000000000E+00 0. -1.
         -2    1    3    3    0  502  0.20318255468E+03  0.30050569755E+03  0.59026369004E+03  0.69281891470E+03  0.00000000000E+00 0.  1.
         13    1    5    5    0    0 -0.66154798785E+02 -0.62834008365E+02  0.20530993991E+03  0.22467029495E+03  0.00000000000E+00 0. -1.
        -13    1    5    5    0    0 -0.47147632488E+03 -0.27107388787E+03  0.17297664830E+04  0.18132465534E+04  0.00000000000E+00 0.  1.
          1    1    6    6  503    0  0.17041772477E+03 -0.45273203879E+02  0.27464837183E+03  0.32637952150E+03  0.00000000000E+00 0. -1.
         -1    1    6    6    0  503  0.11614274879E+03 -0.48170882045E+02  0.87675352059E+02  0.15328580930E+03  0.00000000000E+00 0.  1.
<mgrwt>
<rscale>  0 0.15531244E+04</rscale>
<asrwt>0</asrwt>
<pdfrwt beam="1">  1        1 0.49703940E+00 0.15531244E+04</pdfrwt>
<pdfrwt beam="2">  1       -2 0.28716727E-01 0.15531244E+04</pdfrwt>
<totfact> 0.38212109E+00</totfact>
</mgrwt>
</event>
<event>
12    5  0.5197392E-008  0.1515621E+04  0.7818608E-02  0.8874131E-01
          1   -1    0    0  501    0  0.00000000000E+00  0.00000000000E+00  0.91006513573E+03  0.91006513573E+03  0.00000000000E+00 0. -1.
         -2   -1    0    0    0  501 -0.00000000000E+00 -0.00000000000E+00 -0.63102847857E+03  0.63102847857E+03  0.00000000000E+00 0.  1.
        -24    2    1    2    0    0 -0.34504765656E+03 -0.25792844443E+03  0.31552342871E+03  0.53975185629E+03  0.78689672445E+02 0.  0.
        254    2    1    2    0    0  0.34504765656E+03  0.25792844443E+03 -0.36486771554E+02  0.10013417580E+04  0.90319934904E+03 0.  0.
         23    2    4    4    0    0  0.59998157419E+02  0.32478591661E+03  0.36160853823E+03  0.49804568909E+03  0.90570983080E+02 0.  0.
         23    2    4    4    0    0  0.28504949914E+03 -0.66857472176E+02 -0.39809530979E+03  0.50329606893E+03  0.95414457883E+02 0.  0.
          3    1    3    3  502    0 -0.34340958176E+03 -0.23861835070E+03  0.29671714968E+03  0.51274742813E+03  0.00000000000E+00 0. -1.
         -4    1    3    3    0  502 -0.16380747979E+01 -0.19310093731E+02  0.18806279031E+02  0.27004428154E+02  0.00000000000E+00 0.  1.
         13    1    5    5    0    0 -0.20328946432E+02  0.10489497815E+03  0.13570785640E+03  0.17272187120E+03  0.00000000000E+00 0. -1.
        -13    1    5    5    0    0  0.80327103851E+02  0.21989093846E+03  0.22590068183E+03  0.32532381789E+03  0.00000000000E+00 0.  1.
          1    1    6    6  503    0  0.28526204637E+03 -0.53235278163E+02 -0.35735378236E+03  0.46033700233E+03  0.00000000000E+00 0.  1.
         -1    1    6    6    0  503 -0.21254723054E+00 -0.13622194013E+02 -0.40741527427E+02  0.42959066600E+02  0.00000000000E+00 0. -1.
<mgrwt>
<rscale>  0 0.15156213E+04</rscale>
<asrwt>0</asrwt>
<pdfrwt beam="1">  1        1 0.14001002E+00 0.15156213E+04</pdfrwt>
<pdfrwt beam="2">  1       -2 0.97081305E-01 0.15156213E+04</pdfrwt>
<totfact> 0.13392022E+01</totfact>
</mgrwt>
</event>
<event>
12    5  0.5197392E-008  0.1639694E+04  0.7818608E-02  0.8796527E-01
         -2   -1    0    0    0  501 -0.00000000000E+00  0.00000000000E+00  0.17623483815E+03  0.17623483815E+03  0.00000000000E+00 0.  1.
          1   -1    0    0  501    0  0.00000000000E+00 -0.00000000000E+00 -0.38139386797E+04  0.38139386797E+04  0.00000000000E+00 0. -1.
        -24    2    1    2    0    0  0.42072752542E+03  0.19244729617E+03 -0.20625265108E+04  0.21162502147E+04  0.10223380513E+03 0.  0.
        254    2    1    2    0    0 -0.42072752542E+03 -0.19244729617E+03 -0.15751773308E+04  0.18739233032E+04  0.90352493627E+03 0.  0.
         23    2    4    4    0    0 -0.71713757498E+01  0.30297576457E+03 -0.27421469181E+03  0.41878936835E+03  0.91351493108E+02 0.  0.
         23    2    4    4    0    0 -0.41355614967E+03 -0.49542306074E+03 -0.13009626390E+04  0.14551339349E+04  0.91860123808E+02 0.  0.
          1    1    3    3  502    0  0.27869211955E+03  0.13367563941E+03 -0.15757930187E+04  0.16058213200E+04  0.00000000000E+00 0. -1.
         -2    1    3    3    0  502  0.14203540587E+03  0.58771656756E+02 -0.48673349207E+03  0.51042889462E+03  0.00000000000E+00 0.  1.
         13    1    5    5    0    0  0.38049679109E+02  0.10202418537E+03 -0.74865098291E+02  0.13214195179E+03  0.00000000000E+00 0. -1.
        -13    1    5    5    0    0 -0.45221054859E+02  0.20095157920E+03 -0.19934959352E+03  0.28664741656E+03  0.00000000000E+00 0.  1.
          2    1    6    6  503    0 -0.16863654489E+03 -0.26787283112E+03 -0.59239596364E+03  0.67165997027E+03  0.00000000000E+00 0.  1.
         -2    1    6    6    0  503 -0.24491960478E+03 -0.22755022962E+03 -0.70856667536E+03  0.78347396462E+03  0.00000000000E+00 0. -1.
<mgrwt>
<rscale>  0 0.16396937E+04</rscale>
<asrwt>0</asrwt>
<pdfrwt beam="1">  1        1 0.58675976E+00 0.16396937E+04</pdfrwt>
<pdfrwt beam="2">  1       -2 0.27113054E-01 0.16396937E+04</pdfrwt>
<totfact> 0.14599305E+00</totfact>
</mgrwt>
</event>
<event>
12    5  0.5197392E-008  0.1737044E+04  0.7818608E-02  0.8740514E-01
         -2   -1    0    0    0  501 -0.00000000000E+00  0.00000000000E+00  0.13281370015E+04  0.13281370015E+04  0.00000000000E+00 0.  1.
          1   -1    0    0  501    0  0.00000000000E+00 -0.00000000000E+00 -0.56796141108E+03  0.56796141108E+03  0.00000000000E+00 0. -1.
        -24    2    1    2    0    0  0.54398846417E+03  0.23586753078E+03  0.81784131295E+02  0.60428482124E+03  0.83153832274E+02 0.  0.
        254    2    1    2    0    0 -0.54398846417E+03 -0.23586753078E+03  0.67839145907E+03  0.12918135913E+04  0.92574858450E+03 0.  0.
         23    2    4    4    0    0 -0.49924878282E+03 -0.55828790422E+03  0.53619271107E+03  0.92575100171E+03  0.92615131658E+02 0.  0.
         23    2    4    4    0    0 -0.44739681350E+02  0.32242037344E+03  0.14219874800E+03  0.36606258960E+03  0.88457895455E+02 0.  0.
          3    1    3    3  502    0  0.48657143650E+03  0.21035568653E+03  0.98726944644E+02  0.53921080041E+03  0.00000000000E+00 0. -1.
         -4    1    3    3    0  502  0.57417027664E+02  0.25511844241E+02 -0.16942813349E+02  0.65074020827E+02  0.00000000000E+00 0.  1.
         13    1    5    5    0    0 -0.46907609459E+03 -0.49886466204E+03  0.46210382812E+03  0.82609822752E+03  0.00000000000E+00 0.  1.
        -13    1    5    5    0    0 -0.30172688224E+02 -0.59423242185E+02  0.74088882950E+02  0.99652774187E+02  0.00000000000E+00 0. -1.
          2    1    6    6  503    0  0.23025423476E+02  0.35291551231E+02  0.14101638666E+02  0.44435570522E+02  0.00000000000E+00 0. -1.
         -2    1    6    6    0  503 -0.67765104826E+02  0.28712882221E+03  0.12809710934E+03  0.32162701907E+03  0.00000000000E+00 0.  1.
<mgrwt>
<rscale>  0 0.17370441E+04</rscale>
<asrwt>0</asrwt>
<pdfrwt beam="1">  1        1 0.87378679E-01 0.17370441E+04</pdfrwt>
<pdfrwt beam="2">  1       -2 0.20432877E+00 0.17370441E+04</pdfrwt>
<totfact> 0.38309585E+00</totfact>
</mgrwt>
</event>
<event>
12    5  0.5197392E-008  0.1482739E+04  0.7818608E-02  0.8896013E-01
          1   -1    0    0  501    0  0.00000000000E+00  0.00000000000E+00  0.12202491556E+04  0.12202491556E+04  0.00000000000E+00 0. -1.
         -2   -1    0    0    0  501 -0.00000000000E+00 -0.00000000000E+00 -0.45042360657E+03  0.45042360657E+03  0.00000000000E+00 0.  1.
        -24    2    1    2    0    0 -0.30612669859E+02 -0.48425369082E+02 -0.27529792628E+03  0.29242193960E+03  0.80246436790E+02 0.  0.
        254    2    1    2    0    0  0.30612669859E+02  0.48425369082E+02  0.10451234753E+04  0.13782508226E+04  0.89666610249E+03 0.  0.
         23    2    4    4    0    0 -0.11754206597E+03  0.33713528177E+03  0.96271190466E+03  0.10314465731E+04  0.97936133286E+02 0.  0.
         23    2    4    4    0    0  0.14815473583E+03 -0.28870991269E+03  0.82411570672E+02  0.34680424954E+03  0.90433849213E+02 0.  0.
          3    1    3    3  502    0  0.19730025265E+01 -0.61700175892E+02 -0.14818751350E+03  0.16053144116E+03  0.00000000000E+00 0. -1.
         -4    1    3    3    0  502 -0.32585672385E+02  0.13274806810E+02 -0.12711041278E+03  0.13189049844E+03  0.00000000000E+00 0.  1.
         13    1    5    5    0    0 -0.39446020838E+02  0.23935780045E+03  0.57625428302E+03  0.62523367144E+03  0.00000000000E+00 0. -1.
        -13    1    5    5    0    0 -0.78096045136E+02  0.97777481323E+02  0.38645762164E+03  0.40621290162E+03  0.00000000000E+00 0.  1.
          3    1    6    6  503    0  0.63551872862E+02 -0.21234250926E+03  0.68465564959E+02  0.23198214451E+03  0.00000000000E+00 0. -1.
         -3    1    6    6    0  503  0.84602862971E+02 -0.76367403423E+02  0.13946005713E+02  0.11482210503E+03  0.00000000000E+00 0.  1.
<mgrwt>
<rscale>  0 0.14827394E+04</rscale>
<asrwt>0</asrwt>
<pdfrwt beam="1">  1        1 0.18773064E+00 0.14827394E+04</pdfrwt>
<pdfrwt beam="2">  1       -2 0.69295940E-01 0.14827394E+04</pdfrwt>
<totfact> 0.16676045E+01</totfact>
</mgrwt>
</event>
<event>
12    5  0.5197392E-008  0.2165701E+04  0.7818608E-02  0.8532841E-01
          1   -1    0    0  501    0  0.00000000000E+00  0.00000000000E+00  0.82887377737E+03  0.82887377737E+03  0.00000000000E+00 0. -1.
         -2   -1    0    0    0  501 -0.00000000000E+00 -0.00000000000E+00 -0.14146489234E+04  0.14146489234E+04  0.00000000000E+00 0.  1.
        -24    2    1    2    0    0  0.85374734761E+03 -0.21966769979E+03 -0.12841675224E+03  0.89446463740E+03  0.80235237997E+02 0.  0.
        254    2    1    2    0    0 -0.85374734761E+03  0.21966769979E+03 -0.45735839375E+03  0.13490580633E+04  0.91304026530E+03 0.  0.
         23    2    4    4    0    0 -0.33394693436E+03 -0.30840010148E+03  0.17314117959E+02  0.46421881193E+03  0.92564297147E+02 0.  0.
         23    2    4    4    0    0 -0.51980041325E+03  0.52806780127E+03 -0.47467251171E+03  0.88483925141E+03  0.92619841972E+02 0.  0.
          3    1    3    3  502    0  0.48875260520E+03 -0.14572567040E+03 -0.39207332411E+02  0.51151959397E+03  0.00000000000E+00 0. -1.
         -4    1    3    3    0  502  0.36499474241E+03 -0.73942029390E+02 -0.89209419831E+02  0.38294504343E+03  0.00000000000E+00 0.  1.
         13    1    5    5    0    0 -0.13832872242E+02 -0.19502049893E+02  0.22720042434E+02  0.32983005210E+02  0.00000000000E+00 0.  1.
        -13    1    5    5    0    0 -0.32011406212E+03 -0.28889805159E+03 -0.54059244749E+01  0.43123580672E+03  0.00000000000E+00 0. -1.
          4    1    6    6  503    0 -0.36454894284E+03  0.40056005033E+03 -0.38685536058E+03  0.66558347009E+03  0.00000000000E+00 0. -1.
         -4    1    6    6    0  503 -0.15525147040E+03  0.12750775094E+03 -0.87817151123E+02  0.21925578132E+03  0.00000000000E+00 0.  1.
<mgrwt>
<rscale>  0 0.21657012E+04</rscale>
<asrwt>0</asrwt>
<pdfrwt beam="1">  1        1 0.12751904E+00 0.21657012E+04</pdfrwt>
<pdfrwt beam="2">  1       -2 0.21763829E+00 0.21657012E+04</pdfrwt>
<totfact> 0.17109767E+00</totfact>
</mgrwt>
</event>
<event>
12    5  0.5197392E-008  0.2028841E+04  0.7818608E-02  0.8593254E-01
          1   -1    0    0  501    0  0.00000000000E+00  0.00000000000E+00  0.31330142065E+04  0.31330142065E+04  0.00000000000E+00 0. -1.
         -2   -1    0    0    0  501 -0.00000000000E+00 -0.00000000000E+00 -0.32845331566E+03  0.32845331566E+03  0.00000000000E+00 0.  1.
        -24    2    1    2    0    0 -0.53594507100E+03  0.34902223812E+03  0.19895424094E+04  0.20912711922E+04  0.77990761611E+02 0.  0.
        254    2    1    2    0    0  0.53594507100E+03 -0.34902223812E+03  0.81501848150E+03  0.13701963300E+04  0.89673252180E+03 0.  0.
         23    2    4    4    0    0  0.95606329309E+02  0.52961697815E+02 -0.16569246879E+03  0.21864561989E+03  0.91686428891E+02 0.  0.
         23    2    4    4    0    0  0.44033874169E+03 -0.40198393593E+03  0.98071095029E+03  0.11515507101E+04  0.93732479416E+02 0.  0.
          3    1    3    3  502    0 -0.19101757784E+03  0.16289399433E+03  0.84311216483E+03  0.87969329366E+03  0.00000000000E+00 0. -1.
         -4    1    3    3    0  502 -0.34492749316E+03  0.18612824378E+03  0.11464302445E+04  0.12115778985E+04  0.00000000000E+00 0.  1.
         13    1    5    5    0    0  0.10385063134E+03  0.38477417544E+02 -0.16860647367E+03  0.20172656804E+03  0.00000000000E+00 0. -1.
        -13    1    5    5    0    0 -0.82443020342E+01  0.14484280272E+02  0.29140048748E+01  0.16919051848E+02  0.00000000000E+00 0.  1.
          3    1    6    6  503    0  0.40349466288E+03 -0.39688408248E+03  0.92958908245E+03  0.10883293528E+04  0.00000000000E+00 0. -1.
         -3    1    6    6    0  503  0.36844078812E+02 -0.50998534471E+01  0.51121867842E+02  0.63221357312E+02  0.00000000000E+00 0.  1.
<mgrwt>
<rscale>  0 0.20288410E+04</rscale>
<asrwt>0</asrwt>
<pdfrwt beam="1">  1        1 0.48200217E+00 0.20288410E+04</pdfrwt>
<pdfrwt beam="2">  1       -2 0.50531281E-01 0.20288410E+04</pdfrwt>
<totfact> 0.14394375E+00</totfact>
</mgrwt>
</event>
<event>
12    5  0.5197392E-008  0.1905944E+04  0.7818608E-02  0.8651903E-01
          1   -1    0    0  501    0  0.00000000000E+00  0.00000000000E+00  0.14897323728E+04  0.14897323728E+04  0.00000000000E+00 0. -1.
         -2   -1    0    0    0  501 -0.00000000000E+00 -0.00000000000E+00 -0.60961005537E+03  0.60961005537E+03  0.00000000000E+00 0.  1.
        -24    2    1    2    0    0 -0.65951634699E+03 -0.29482606630E+03  0.16417741398E+03  0.74515227516E+03  0.80084134418E+02 0.  0.
        254    2    1    2    0    0  0.65951634699E+03  0.29482606630E+03  0.71594490348E+03  0.13541901530E+04  0.89407474210E+03 0.  0.
         23    2    4    4    0    0 -0.12784748903E+03  0.10680162784E+03  0.46214160991E+03  0.49979083259E+03  0.92002394340E+02 0.  0.
         23    2    4    4    0    0  0.78736383603E+03  0.18802443846E+03  0.25380329357E+03  0.85439932046E+03  0.10142527903E+03 0.  0.
          3    1    3    3  502    0 -0.16172615573E+03 -0.41804526253E+02  0.57416458983E+02  0.17663413493E+03  0.00000000000E+00 0. -1.
         -4    1    3    3    0  502 -0.49779019127E+03 -0.25302154005E+03  0.10676095499E+03  0.56851814022E+03  0.00000000000E+00 0.  1.
         13    1    5    5    0    0 -0.13782286818E+03  0.11310861183E+03  0.42733100824E+03  0.46303400703E+03  0.00000000000E+00 0.  1.
        -13    1    5    5    0    0  0.99753791498E+01 -0.63069839864E+01  0.34810601678E+02  0.36756825562E+02  0.00000000000E+00 0. -1.
          1    1    6    6  503    0  0.28090497293E+03  0.18466394547E+02  0.97319048550E+02  0.29785837029E+03  0.00000000000E+00 0. -1.
         -1    1    6    6    0  503  0.50645886310E+03  0.16955804392E+03  0.15648424502E+03  0.55654095016E+03  0.00000000000E+00 0.  1.
<mgrwt>
<rscale>  0 0.19059442E+04</rscale>
<asrwt>0</asrwt>
<pdfrwt beam="1">  1        1 0.22918960E+00 0.19059442E+04</pdfrwt>
<pdfrwt beam="2">  1       -2 0.93786163E-01 0.19059442E+04</pdfrwt>
<totfact> 0.52417653E+00</totfact>
</mgrwt>
</event>
<event>
12    5  0.5197392E-008  0.1189371E+04  0.7818608E-02  0.9122211E-01
          1   -1    0    0  501    0  0.00000000000E+00  0.00000000000E+00  0.16346716328E+04  0.16346716328E+04  0.00000000000E+00 0. -1.
         -2   -1    0    0    0  501 -0.00000000000E+00 -0.00000000000E+00 -0.21634359300E+03  0.21634359300E+03  0.00000000000E+00 0.  1.
        -24    2    1    2    0    0 -0.95769717078E+02 -0.13181543747E+03  0.13837760394E+02  0.17769247978E+03  0.69541250299E+02 0.  0.
        254    2    1    2    0    0  0.95769717078E+02  0.13181543747E+03  0.14044902794E+04  0.16733227460E+04  0.89491279974E+03 0.  0.
         23    2    4    4    0    0 -0.36832644286E+03  0.14372592463E+03  0.86722037642E+03  0.95749488694E+03  0.91672063988E+02 0.  0.
         23    2    4    4    0    0  0.46409615994E+03 -0.11910487158E+02  0.53726990295E+03  0.71582785905E+03  0.90683349070E+02 0.  0.
          3    1    3    3  502    0 -0.20790018980E+02  0.38303435082E+01 -0.45257142865E+01  0.21618938697E+02  0.00000000000E+00 0. -1.
         -4    1    3    3    0  502 -0.74979698098E+02 -0.13564578098E+03  0.18363474680E+02  0.15607354108E+03  0.00000000000E+00 0.  1.
         13    1    5    5    0    0 -0.36438653359E+03  0.12273706148E+03  0.82041679452E+03  0.90604947374E+03  0.00000000000E+00 0.  1.
        -13    1    5    5    0    0 -0.39399092712E+01  0.20988863145E+02  0.46803581892E+02  0.51445413198E+02  0.00000000000E+00 0. -1.
          3    1    6    6  503    0  0.40279964106E+03  0.18930999113E+02  0.47591459091E+03  0.62377931307E+03  0.00000000000E+00 0.  1.
         -3    1    6    6    0  503  0.61296518882E+02 -0.30841486271E+02  0.61355312034E+02  0.92048545981E+02  0.00000000000E+00 0. -1.
<mgrwt>
<rscale>  0 0.11893708E+04</rscale>
<asrwt>0</asrwt>
<pdfrwt beam="1">  1        1 0.25148794E+00 0.11893708E+04</pdfrwt>
<pdfrwt beam="2">  1       -2 0.33283631E-01 0.11893708E+04</pdfrwt>
<totfact> 0.38726464E+01</totfact>
</mgrwt>
</event>
<event>
12    5  0.5197392E-008  0.1444653E+04  0.7818608E-02  0.8922116E-01
          1   -1    0    0  501    0  0.00000000000E+00  0.00000000000E+00  0.34877416042E+03  0.34877416042E+03  0.00000000000E+00 0. -1.
         -2   -1    0    0    0  501 -0.00000000000E+00 -0.00000000000E+00 -0.14959702091E+04  0.14959702091E+04  0.00000000000E+00 0.  1.
        -24    2    1    2    0    0 -0.97489649667E+02 -0.24688604539E+03  0.86984330668E+02  0.29061602035E+03  0.80215000485E+02 0.  0.
        254    2    1    2    0    0  0.97489649667E+02  0.24688604539E+03 -0.12341803794E+04  0.15541283492E+04  0.90645284806E+03 0.  0.
         23    2    4    4    0    0  0.10849789225E+03  0.12969017816E+03 -0.13511532618E+04  0.13650608082E+04  0.95835997280E+02 0.  0.
         23    2    4    4    0    0 -0.11008242582E+02  0.11719586723E+03  0.11697288239E+03  0.18906754099E+03  0.90597059228E+02 0.  0.
          1    1    3    3  502    0 -0.87609246501E+02 -0.23479320255E+03  0.57297372154E+02  0.25707239621E+03  0.00000000000E+00 0. -1.
         -2    1    3    3    0  502 -0.98804031657E+01 -0.12092842834E+02  0.29686958515E+02  0.33543624139E+02  0.00000000000E+00 0.  1.
         13    1    5    5    0    0  0.88806317804E+02  0.11169991996E+03 -0.12956147388E+04  0.13034496483E+04  0.00000000000E+00 0. -1.
        -13    1    5    5    0    0  0.19691574445E+02  0.17990258199E+02 -0.55538522992E+02  0.61611159949E+02  0.00000000000E+00 0.  1.
          2    1    6    6  503    0 -0.42562521571E+02  0.98546133941E+02  0.10587000942E+03  0.15076925301E+03  0.00000000000E+00 0. -1.
         -2    1    6    6    0  503  0.31554278989E+02  0.18649733288E+02  0.11102872969E+02  0.38298287982E+02  0.00000000000E+00 0.  1.
<mgrwt>
<rscale>  0 0.14446533E+04</rscale>
<asrwt>0</asrwt>
<pdfrwt beam="1">  1        1 0.53657564E-01 0.14446533E+04</pdfrwt>
<pdfrwt beam="2">  1       -2 0.23014926E+00 0.14446533E+04</pdfrwt>
<totfact> 0.52101066E+00</totfact>
</mgrwt>
</event>
<event>
12    5  0.5197392E-008  0.1885641E+04  0.7818608E-02  0.8662037E-01
          1   -1    0    0  501    0  0.00000000000E+00  0.00000000000E+00  0.20538561313E+04  0.20538561313E+04  0.00000000000E+00 0. -1.
         -2   -1    0    0    0  501 -0.00000000000E+00 -0.00000000000E+00 -0.43280061197E+03  0.43280061197E+03  0.00000000000E+00 0.  1.
        -24    2    1    2    0    0 -0.48194868258E+03  0.33373912710E+03  0.76050668749E+02  0.59654190957E+03  0.80138680177E+02 0.  0.
        254    2    1    2    0    0  0.48194868258E+03 -0.33373912710E+03  0.15450048506E+04  0.18901148337E+04  0.91751717077E+03 0.  0.
         23    2    4    4    0    0  0.35831851117E+03 -0.15926358453E+02  0.14870528307E+04  0.15325660003E+04  0.93736970885E+02 0.  0.
         23    2    4    4    0    0  0.12363017141E+03 -0.31781276865E+03  0.57952019909E+02  0.35754883340E+03  0.90517161133E+02 0.  0.
          1    1    3    3  502    0 -0.72841960603E+02  0.88144692954E+02  0.20245527549E+02  0.11612630841E+03  0.00000000000E+00 0. -1.
         -2    1    3    3    0  502 -0.40910672197E+03  0.24559443414E+03  0.55805141200E+02  0.48041560115E+03  0.00000000000E+00 0.  1.
         13    1    5    5    0    0  0.39617408189E+02  0.25887077293E+02  0.24967389437E+03  0.25411952568E+03  0.00000000000E+00 0.  1.
        -13    1    5    5    0    0  0.31870110298E+03 -0.41813435746E+02  0.12373789363E+04  0.12784464746E+04  0.00000000000E+00 0. -1.
          1    1    6    6  503    0  0.30726000449E+02 -0.20041923548E+03  0.25430576329E+02  0.20434938529E+03  0.00000000000E+00 0. -1.
         -1    1    6    6    0  503  0.92904170962E+02 -0.11739353316E+03  0.32521443579E+02  0.15319944812E+03  0.00000000000E+00 0.  1.
<mgrwt>
<rscale>  0 0.18856407E+04</rscale>
<asrwt>0</asrwt>
<pdfrwt beam="1">  1        1 0.31597786E+00 0.18856407E+04</pdfrwt>
<pdfrwt beam="2">  1       -2 0.66584711E-01 0.18856407E+04</pdfrwt>
<totfact> 0.46707862E+00</totfact>
</mgrwt>
</event>
<event>
12    5  0.5197392E-008  0.1469783E+04  0.7818608E-02  0.8904799E-01
         -2   -1    0    0    0  501 -0.00000000000E+00  0.00000000000E+00  0.10862530387E+04  0.10862530387E+04  0.00000000000E+00 0.  1.
          1   -1    0    0  501    0  0.00000000000E+00 -0.00000000000E+00 -0.49718201621E+03  0.49718201621E+03  0.00000000000E+00 0. -1.
        -24    2    1    2    0    0 -0.10324275670E+03  0.38591987550E+03  0.41210725720E+03  0.57936947166E+03  0.79015037414E+02 0.  0.
        254    2    1    2    0    0  0.10324275670E+03 -0.38591987550E+03  0.17696376529E+03  0.10040655833E+04  0.90401233627E+03 0.  0.
         23    2    4    4    0    0 -0.36251396000E+03 -0.10199465716E+03 -0.79666511105E+02  0.39506784482E+03  0.88952615079E+02 0.  0.
         23    2    4    4    0    0  0.46575671671E+03 -0.28392521834E+03  0.25663027639E+03  0.60899773844E+03  0.86465587914E+02 0.  0.
          3    1    3    3  502    0 -0.74787109137E+02  0.20118254934E+03  0.17177656903E+03  0.27490856575E+03  0.00000000000E+00 0. -1.
         -4    1    3    3    0  502 -0.28455647566E+02  0.18473732616E+03  0.24033068816E+03  0.30446090591E+03  0.00000000000E+00 0.  1.
         13    1    5    5    0    0 -0.26582358891E+03 -0.48581512086E+02 -0.88251335950E+02  0.28427212672E+03  0.00000000000E+00 0. -1.
        -13    1    5    5    0    0 -0.96690371098E+02 -0.53413145078E+02  0.85848248453E+01  0.11079571809E+03  0.00000000000E+00 0.  1.
          3    1    6    6  503    0  0.20796777850E+03 -0.12494052964E+03  0.16184323730E+03  0.29164013150E+03  0.00000000000E+00 0. -1.
         -3    1    6    6    0  503  0.25778893820E+03 -0.15898468870E+03  0.94787039097E+02  0.31735760694E+03  0.00000000000E+00 0.  1.
<mgrwt>
<rscale>  0 0.14697829E+04</rscale>
<asrwt>0</asrwt>
<pdfrwt beam="1">  1        1 0.76489541E-01 0.14697829E+04</pdfrwt>
<pdfrwt beam="2">  1       -2 0.16711585E+00 0.14697829E+04</pdfrwt>
<totfact> 0.84588667E+00</totfact>
</mgrwt>
</event>
<event>
12    5  0.5197392E-008  0.1531329E+04  0.7818608E-02  0.8863883E-01
          1   -1    0    0  501    0  0.00000000000E+00  0.00000000000E+00  0.62622608628E+03  0.62622608628E+03  0.00000000000E+00 0. -1.
         -2   -1    0    0    0  501 -0.00000000000E+00 -0.00000000000E+00 -0.93615067933E+03  0.93615067933E+03  0.00000000000E+00 0.  1.
        -24    2    1    2    0    0  0.25741634179E+03 -0.21546175596E+03 -0.48277932324E+03  0.59297405732E+03  0.76520692626E+02 0.  0.
        254    2    1    2    0    0 -0.25741634179E+03  0.21546175596E+03  0.17285473020E+03  0.96940270829E+03  0.89284708197E+03 0.  0.
         23    2    4    4    0    0  0.19815433674E+03  0.22079245487E+03  0.35392936158E+03  0.47096110898E+03  0.92325098905E+02 0.  0.
         23    2    4    4    0    0 -0.45557067854E+03 -0.53306989079E+01 -0.18107463138E+03  0.49844159930E+03  0.89905207271E+02 0.  0.
          1    1    3    3  502    0  0.48268924331E+02 -0.65933032705E+02 -0.75025439643E+02  0.11093182795E+03  0.00000000000E+00 0. -1.
         -2    1    3    3    0  502  0.20914741746E+03 -0.14952872326E+03 -0.40775388360E+03  0.48204222938E+03  0.00000000000E+00 0.  1.
         13    1    5    5    0    0  0.20656703069E+03  0.20080753394E+03  0.31883541214E+03  0.42970876637E+03  0.00000000000E+00 0. -1.
        -13    1    5    5    0    0 -0.84126939510E+01  0.19984920933E+02  0.35093949439E+02  0.41252342618E+02  0.00000000000E+00 0.  1.
          1    1    6    6  503    0 -0.44412069405E+03 -0.21098889904E+02 -0.16989436527E+03  0.47597526132E+03  0.00000000000E+00 0. -1.
         -1    1    6    6    0  503 -0.11449984483E+02  0.15768190996E+02 -0.11180266111E+02  0.22466337981E+02  0.00000000000E+00 0.  1.
<mgrwt>
<rscale>  0 0.15313288E+04</rscale>
<asrwt>0</asrwt>
<pdfrwt beam="1">  1        1 0.96342475E-01 0.15313288E+04</pdfrwt>
<pdfrwt beam="2">  1       -2 0.14402318E+00 0.15313288E+04</pdfrwt>
<totfact> 0.90589547E+00</totfact>
</mgrwt>
</event>
<event>
12    5  0.5197392E-008  0.1202070E+04  0.7818608E-02  0.9111046E-01
          1   -1    0    0  501    0  0.00000000000E+00  0.00000000000E+00  0.17064198195E+03  0.17064198195E+03  0.00000000000E+00 0. -1.
         -2   -1    0    0    0  501 -0.00000000000E+00 -0.00000000000E+00 -0.21169657778E+04  0.21169657778E+04  0.00000000000E+00 0.  1.
        -24    2    1    2    0    0  0.13049117669E+03  0.16290511106E+03 -0.20168950080E+03  0.30093513259E+03  0.79481298992E+02 0.  0.
        254    2    1    2    0    0 -0.13049117669E+03 -0.16290511106E+03 -0.17446342951E+04  0.19866726272E+04  0.92712096386E+03 0.  0.
         23    2    4    4    0    0  0.25819333605E+03  0.13272273437E+03 -0.12450850668E+04  0.12819750001E+04  0.94572482375E+02 0.  0.
         23    2    4    4    0    0 -0.38868451274E+03 -0.29562784544E+03 -0.49954922829E+03  0.70469762706E+03  0.92616632656E+02 0.  0.
          3    1    3    3  502    0  0.11446491490E+03  0.98699856435E+02 -0.10606039637E+03  0.18464204852E+03  0.00000000000E+00 0. -1.
         -4    1    3    3    0  502  0.16026261795E+02  0.64205254628E+02 -0.95629104431E+02  0.11629308407E+03  0.00000000000E+00 0.  1.
         13    1    5    5    0    0  0.20222641821E+03  0.55304944846E+02 -0.83693445886E+03  0.86279397864E+03  0.00000000000E+00 0.  1.
        -13    1    5    5    0    0  0.55966917837E+02  0.77417789528E+02 -0.40815060794E+03  0.41918102151E+03  0.00000000000E+00 0. -1.
          3    1    6    6  503    0 -0.38085909841E+02 -0.70822799304E+02 -0.87218287530E+02  0.11863150977E+03  0.00000000000E+00 0. -1.
         -3    1    6    6    0  503 -0.35059860290E+03 -0.22480504613E+03 -0.41233094077E+03  0.58606611729E+03  0.00000000000E+00 0.  1.
<mgrwt>
<rscale>  0 0.12020703E+04</rscale>
<asrwt>0</asrwt>
<pdfrwt beam="1">  1        1 0.26252616E-01 0.12020703E+04</pdfrwt>
<pdfrwt beam="2">  1       -2 0.32568700E+00 0.12020703E+04</pdfrwt>
<totfact> 0.35266016E+00</totfact>
</mgrwt>
</event>
<event>
12    5  0.5197392E-008  0.2307791E+04  0.7818608E-02  0.8474856E-01
          1   -1    0    0  501    0  0.00000000000E+00  0.00000000000E+00  0.21410617646E+04  0.21410617646E+04  0.00000000000E+00 0. -1.
         -2   -1    0    0    0  501 -0.00000000000E+00 -0.00000000000E+00 -0.62187578891E+03  0.62187578891E+03  0.00000000000E+00 0.  1.
        -24    2    1    2    0    0 -0.42078015047E+03  0.54863133135E+03 -0.18359431716E+03  0.72018127244E+03  0.83077789456E+02 0.  0.
        254    2    1    2    0    0  0.42078015047E+03 -0.54863133135E+03  0.17027802928E+04  0.20427562811E+04  0.89181849351E+03 0.  0.
         23    2    4    4    0    0  0.61771485649E+03 -0.11861914188E+03  0.82426439121E+03  0.10407776526E+04  0.90355911793E+02 0.  0.
         23    2    4    4    0    0 -0.19693470602E+03 -0.43001218947E+03  0.87851590164E+03  0.10019786285E+04  0.92071824898E+02 0.  0.
          3    1    3    3  502    0 -0.23357893400E+03  0.25523255969E+03 -0.61829827932E+02  0.35146223916E+03  0.00000000000E+00 0. -1.
         -2    1    3    3    0  502 -0.18720121647E+03  0.29339877166E+03 -0.12176448923E+03  0.36871903328E+03  0.00000000000E+00 0.  1.
         13    1    5    5    0    0  0.61539150048E+03 -0.12039726918E+03  0.82624263345E+03  0.10372459162E+04  0.00000000000E+00 0.  1.
        -13    1    5    5    0    0  0.23233560152E+01  0.17781272959E+01 -0.19782422429E+01  0.35317364321E+01  0.00000000000E+00 0. -1.
          1    1    6    6  503    0 -0.44910803797E+02 -0.39202453452E+02  0.76838797441E+02  0.97252318464E+02  0.00000000000E+00 0. -1.
         -1    1    6    6    0  503 -0.15202390222E+03 -0.39080973602E+03  0.80167710420E+03  0.90472631000E+03  0.00000000000E+00 0.  1.
<mgrwt>
<rscale>  0 0.23077907E+04</rscale>
<asrwt>0</asrwt>
<pdfrwt beam="1">  1        1 0.32939411E+00 0.23077907E+04</pdfrwt>
<pdfrwt beam="2">  1       -2 0.95673199E-01 0.23077907E+04</pdfrwt>
<totfact> 0.17385224E+00</totfact>
</mgrwt>
</event>
<event>
12    5  0.5197392E-008  0.1221638E+04  0.7818608E-02  0.9094125E-01
          1   -1    0    0  501    0  0.00000000000E+00  0.00000000000E+00  0.44251901755E+03  0.44251901755E+03  0.00000000000E+00 0. -1.
         -2   -1    0    0    0  501 -0.00000000000E+00 -0.00000000000E+00 -0.84312698991E+03  0.84312698991E+03  0.00000000000E+00 0.  1.
        -24    2    1    2    0    0  0.97652889579E+02  0.19282485335E+03  0.67998612049E+02  0.24016167703E+03  0.79600935689E+02 0.  0.
        254    2    1    2    0    0 -0.97652889579E+02 -0.19282485335E+03 -0.46860658441E+03  0.10454843304E+04  0.90924575518E+03 0.  0.
         23    2    4    4    0    0  0.37810982434E+03 -0.16281638101E+03 -0.93822473318E+02  0.43210284070E+03  0.91836785961E+02 0.  0.
         23    2    4    4    0    0 -0.47576271392E+03 -0.30008472333E+02 -0.37478411109E+03  0.61338148972E+03  0.92320385866E+02 0.  0.
          1    1    3    3  502    0  0.62279129510E+02  0.16681935025E+03  0.79148424225E+02  0.19486369248E+03  0.00000000000E+00 0. -1.
         -2    1    3    3    0  502  0.35373760069E+02  0.26005503099E+02 -0.11149812176E+02  0.45297984551E+02  0.00000000000E+00 0.  1.
         13    1    5    5    0    0  0.23487043548E+03 -0.13429467853E+03 -0.92867987116E+02  0.28604832664E+03  0.00000000000E+00 0. -1.
        -13    1    5    5    0    0  0.14323938886E+03 -0.28521702485E+02 -0.95448620198E+00  0.14605451406E+03  0.00000000000E+00 0.  1.
          4    1    6    6  503    0 -0.18175255179E+03  0.30852076890E+02 -0.12394351338E+03  0.22214372654E+03  0.00000000000E+00 0.  1.
         -4    1    6    6    0  503 -0.29401016213E+03 -0.60860549223E+02 -0.25084059771E+03  0.39123776319E+03  0.00000000000E+00 0. -1.
<mgrwt>
<rscale>  0 0.12216378E+04</rscale>
<asrwt>0</asrwt>
<pdfrwt beam="1">  1        1 0.68079850E-01 0.12216378E+04</pdfrwt>
<pdfrwt beam="2">  1       -2 0.12971184E+00 0.12216378E+04</pdfrwt>
<totfact> 0.19747976E+01</totfact>
</mgrwt>
</event>
<event>
12    5  0.5197392E-008  0.1933768E+04  0.7818608E-02  0.8638228E-01
          1   -1    0    0  501    0  0.00000000000E+00  0.00000000000E+00  0.20299172415E+04  0.20299172415E+04  0.00000000000E+00 0. -1.
         -2   -1    0    0    0  501 -0.00000000000E+00 -0.00000000000E+00 -0.46054307029E+03  0.46054307029E+03  0.00000000000E+00 0.  1.
        -24    2    1    2    0    0  0.32680760906E+03  0.61053954824E+03  0.10040884235E+04  0.12223646954E+04  0.80125732476E+02 0.  0.
        254    2    1    2    0    0 -0.32680760906E+03 -0.61053954824E+03  0.56528574778E+03  0.12680956165E+04  0.89942023691E+03 0.  0.
         23    2    4    4    0    0  0.92144671574E+02  0.44169818321E+02  0.45928014647E+03  0.47846595583E+03  0.86889611561E+02 0.  0.
         23    2    4    4    0    0 -0.41895228064E+03 -0.65470936657E+03  0.10600560131E+03  0.78962966065E+03  0.90069114262E+02 0.  0.
          1    1    3    3  502    0  0.14251575256E+03  0.35035724315E+03  0.53744793697E+03  0.65719953021E+03  0.00000000000E+00 0. -1.
         -2    1    3    3    0  502  0.18429185651E+03  0.26018230510E+03  0.46664048649E+03  0.56516516514E+03  0.00000000000E+00 0.  1.
         13    1    5    5    0    0  0.39220664901E+02 -0.36407152746E+01  0.31569560554E+03  0.31814341219E+03  0.00000000000E+00 0. -1.
        -13    1    5    5    0    0  0.52924006673E+02  0.47810533595E+02  0.14358454093E+03  0.16032254364E+03  0.00000000000E+00 0.  1.
          2    1    6    6  503    0 -0.41575867704E+03 -0.61543913165E+03  0.10594361717E+03  0.75022973303E+03  0.00000000000E+00 0. -1.
         -2    1    6    6    0  503 -0.31936035955E+01 -0.39270234914E+02  0.61984138012E-01  0.39399927616E+02  0.00000000000E+00 0.  1.
<mgrwt>
<rscale>  0 0.19337676E+04</rscale>
<asrwt>0</asrwt>
<pdfrwt beam="1">  1        1 0.31229496E+00 0.19337676E+04</pdfrwt>
<pdfrwt beam="2">  1       -2 0.70852781E-01 0.19337676E+04</pdfrwt>
<totfact> 0.42179126E+00</totfact>
</mgrwt>
</event>
<event>
12    5  0.5197392E-008  0.1467107E+04  0.7818608E-02  0.8906626E-01
         -2   -1    0    0    0  501 -0.00000000000E+00  0.00000000000E+00  0.11780588012E+04  0.11780588012E+04  0.00000000000E+00 0.  1.
          1   -1    0    0  501    0  0.00000000000E+00 -0.00000000000E+00 -0.45676889333E+03  0.45676889333E+03  0.00000000000E+00 0. -1.
        -24    2    1    2    0    0  0.25412960141E+03  0.35397848707E+03  0.33223230121E+03  0.55369148503E+03  0.79456497540E+02 0.  0.
        254    2    1    2    0    0 -0.25412960141E+03 -0.35397848707E+03  0.38905760669E+03  0.10811362095E+04  0.90972911278E+03 0.  0.
         23    2    4    4    0    0 -0.33881591779E+03 -0.49681350495E+02 -0.19904754429E+03  0.40728239781E+03  0.94839674943E+02 0.  0.
         23    2    4    4    0    0  0.84686316381E+02 -0.30429713658E+03  0.58810515098E+03  0.67385381173E+03  0.91884555075E+02 0.  0.
          3    1    3    3  502    0  0.31406547349E+02  0.21401468944E+02  0.54757714673E+02  0.66654342736E+02  0.00000000000E+00 0. -1.
         -4    1    3    3    0  502  0.22272305406E+03  0.33257701813E+03  0.27747458654E+03  0.48703714229E+03  0.00000000000E+00 0.  1.
         13    1    5    5    0    0 -0.67434517627E+02  0.19195699615E+02 -0.69697480817E+02  0.98861660332E+02  0.00000000000E+00 0. -1.
        -13    1    5    5    0    0 -0.27138140016E+03 -0.68877050111E+02 -0.12935006347E+03  0.30842073748E+03  0.00000000000E+00 0.  1.
          4    1    6    6  503    0  0.16429806231E+02 -0.19022096446E+03  0.40319685089E+03  0.44611843094E+03  0.00000000000E+00 0. -1.
         -4    1    6    6    0  503  0.68256510150E+02 -0.11407617212E+03  0.18490830009E+03  0.22773538079E+03  0.00000000000E+00 0.  1.
<mgrwt>
<rscale>  0 0.14671068E+04</rscale>
<asrwt>0</asrwt>
<pdfrwt beam="1">  1        1 0.70272138E-01 0.14671068E+04</pdfrwt>
<pdfrwt beam="2">  1       -2 0.18123981E+00 0.14671068E+04</pdfrwt>
<totfact> 0.75568833E+00</totfact>
</mgrwt>
</event>
<event>
12    5  0.5197392E-008  0.1498119E+04  0.7818608E-02  0.8885704E-01
         -2   -1    0    0    0  501 -0.00000000000E+00  0.00000000000E+00  0.91642405127E+03  0.91642405127E+03  0.00000000000E+00 0.  1.
          1   -1    0    0  501    0  0.00000000000E+00 -0.00000000000E+00 -0.61226068506E+03  0.61226068506E+03  0.00000000000E+00 0. -1.
        -24    2    1    2    0    0 -0.13573026919E+03  0.27539508003E+03 -0.26782542202E+03  0.41589612474E+03  0.83510321584E+02 0.  0.
        254    2    1    2    0    0  0.13573026919E+03 -0.27539508003E+03  0.57198878822E+03  0.11127886116E+04  0.90380427315E+03 0.  0.
         23    2    4    4    0    0  0.64508529201E+02  0.29785406908E+03  0.38283439144E+02  0.32113057804E+03  0.93706081078E+02 0.  0.
         23    2    4    4    0    0  0.71221739989E+02 -0.57324914912E+03  0.53370534908E+03  0.79165803356E+03  0.90520269847E+02 0.  0.
          3    1    3    3  502    0 -0.34969610852E+02  0.16397115133E+03 -0.13229065140E+03  0.21356551360E+03  0.00000000000E+00 0. -1.
         -4    1    3    3    0  502 -0.10076065834E+03  0.11142392871E+03 -0.13553477062E+03  0.20233061114E+03  0.00000000000E+00 0.  1.
         13    1    5    5    0    0  0.45513037225E+02  0.41000176986E+02  0.56855436304E+01  0.61520537032E+02  0.00000000000E+00 0. -1.
        -13    1    5    5    0    0  0.18995491976E+02  0.25685389209E+03  0.32597895513E+02  0.25961004101E+03  0.00000000000E+00 0.  1.
          4    1    6    6  503    0  0.30827669144E+02 -0.97626908155E+02  0.13679606363E+03  0.17086404363E+03  0.00000000000E+00 0. -1.
         -4    1    6    6    0  503  0.40394070845E+02 -0.47562224096E+03  0.39690928544E+03  0.62079398993E+03  0.00000000000E+00 0.  1.
<mgrwt>
<rscale>  0 0.14981194E+04</rscale>
<asrwt>0</asrwt>
<pdfrwt beam="1">  1        1 0.94193952E-01 0.14981194E+04</pdfrwt>
<pdfrwt beam="2">  1       -2 0.14098832E+00 0.14981194E+04</pdfrwt>
<totfact> 0.99245983E+00</totfact>
</mgrwt>
</event>
<event>
12    5  0.5197392E-008  0.1898500E+04  0.7818608E-02  0.8655603E-01
          1   -1    0    0  501    0  0.00000000000E+00  0.00000000000E+00  0.19668117354E+04  0.19668117354E+04  0.00000000000E+00 0. -1.
         -2   -1    0    0    0  501 -0.00000000000E+00 -0.00000000000E+00 -0.45814021294E+03  0.45814021294E+03  0.00000000000E+00 0.  1.
        -24    2    1    2    0    0  0.39327547210E+03 -0.20125481386E+03  0.13291759740E+04  0.14030269433E+04  0.81281834747E+02 0.  0.
        254    2    1    2    0    0 -0.39327547210E+03  0.20125481386E+03  0.17949554843E+03  0.10219250050E+04  0.90384897354E+03 0.  0.
         23    2    4    4    0    0 -0.42646564049E+03  0.28081586726E+03 -0.24938626560E+03  0.57551046157E+03  0.91040035609E+02 0.  0.
         23    2    4    4    0    0  0.33190168391E+02 -0.79561053401E+02  0.42888181403E+03  0.44641454347E+03  0.88965081454E+02 0.  0.
          3    1    3    3  502    0  0.21771051371E+03 -0.76711701569E+02  0.60510323322E+03  0.64763606740E+03  0.00000000000E+00 0. -1.
         -4    1    3    3    0  502  0.17556495839E+03 -0.12454311229E+03  0.72407274079E+03  0.75539087590E+03  0.00000000000E+00 0.  1.
         13    1    5    5    0    0 -0.23143274607E+02  0.11220971779E+02 -0.39020156347E+02  0.46734291142E+02  0.00000000000E+00 0.  1.
        -13    1    5    5    0    0 -0.40332236588E+03  0.26959489548E+03 -0.21036610925E+03  0.52877617043E+03  0.00000000000E+00 0. -1.
          4    1    6    6  503    0  0.63643037512E+01 -0.35706434321E+02  0.35239539151E+03  0.35425692057E+03  0.00000000000E+00 0. -1.
         -4    1    6    6    0  503  0.26825864640E+02 -0.43854619080E+02  0.76486422520E+02  0.92157622898E+02  0.00000000000E+00 0.  1.
<mgrwt>
<rscale>  0 0.18985000E+04</rscale>
<asrwt>0</asrwt>
<pdfrwt beam="1">  1        1 0.30258642E+00 0.18985000E+04</pdfrwt>
<pdfrwt beam="2">  1       -2 0.70483111E-01 0.18985000E+04</pdfrwt>
<totfact> 0.47225773E+00</totfact>
</mgrwt>
</event>
<event>
12    5  0.5197392E-008  0.1950236E+04  0.7818608E-02  0.8630247E-01
          1   -1    0    0  501    0  0.00000000000E+00  0.00000000000E+00  0.67505509880E+03  0.67505509880E+03  0.00000000000E+00 0. -1.
         -2   -1    0    0    0  501 -0.00000000000E+00 -0.00000000000E+00 -0.14085585881E+04  0.14085585881E+04  0.00000000000E+00 0.  1.
        -24    2    1    2    0    0  0.26454089229E+03 -0.28451395631E+03 -0.99354732887E+03  0.10698710987E+04  0.80980233330E+02 0.  0.
        254    2    1    2    0    0 -0.26454089229E+03  0.28451395631E+03  0.26004383955E+03  0.10137425882E+04  0.89951162392E+03 0.  0.
         23    2    4    4    0    0  0.10998462577E+03  0.38476179411E+03 -0.15478059000E+03  0.43892775430E+03  0.92532623128E+02 0.  0.
         23    2    4    4    0    0 -0.37452551806E+03 -0.10024783780E+03  0.41482442955E+03  0.57481483387E+03  0.89519792363E+02 0.  0.
          1    1    3    3  502    0  0.16457506936E+03 -0.22464275653E+03 -0.74562713766E+03  0.79593288029E+03  0.00000000000E+00 0. -1.
         -2    1    3    3    0  502  0.99965822935E+02 -0.59871199779E+02 -0.24792019121E+03  0.27393821845E+03  0.00000000000E+00 0.  1.
         13    1    5    5    0    0  0.11756839574E+03  0.37449951263E+03 -0.16157099111E+03  0.42447308255E+03  0.00000000000E+00 0.  1.
        -13    1    5    5    0    0 -0.75837699743E+01  0.10262281477E+02  0.67904011144E+01  0.14454671751E+02  0.00000000000E+00 0. -1.
          3    1    6    6  503    0 -0.17307604366E+03 -0.82718249233E+02  0.16206512849E+03  0.25112294105E+03  0.00000000000E+00 0. -1.
         -3    1    6    6    0  503 -0.20144947440E+03 -0.17529588571E+02  0.25275930105E+03  0.32369189283E+03  0.00000000000E+00 0.  1.
<mgrwt>
<rscale>  0 0.19502355E+04</rscale>
<asrwt>0</asrwt>
<pdfrwt beam="1">  1        1 0.10385463E+00 0.19502355E+04</pdfrwt>
<pdfrwt beam="2">  1       -2 0.21670132E+00 0.19502355E+04</pdfrwt>
<totfact> 0.24345284E+00</totfact>
</mgrwt>
</event>
<event>
12    5  0.5197392E-008  0.2063950E+04  0.7818608E-02  0.8577292E-01
         -2   -1    0    0    0  501 -0.00000000000E+00  0.00000000000E+00  0.51472452851E+03  0.51472452851E+03  0.00000000000E+00 0.  1.
          1   -1    0    0  501    0  0.00000000000E+00 -0.00000000000E+00 -0.20690144536E+04  0.20690144536E+04  0.00000000000E+00 0. -1.
        -24    2    1    2    0    0 -0.61251706356E+03 -0.31783163556E+03 -0.12239311340E+04  0.14073535972E+04  0.80265964055E+02 0.  0.
        254    2    1    2    0    0  0.61251706356E+03  0.31783163556E+03 -0.33035879109E+03  0.11763853849E+04  0.89361711114E+03 0.  0.
         23    2    4    4    0    0  0.66488371383E+03  0.60200859764E+02 -0.50987643948E+03  0.84544941247E+03  0.95478945664E+02 0.  0.
         23    2    4    4    0    0 -0.52366650276E+02  0.25763077580E+03  0.17951764839E+03  0.33093597247E+03  0.90422060862E+02 0.  0.
          1    1    3    3  502    0 -0.58023998292E+03 -0.27785471817E+03 -0.11346011184E+04  0.13043011079E+04  0.00000000000E+00 0. -1.
         -2    1    3    3    0  502 -0.32277080643E+02 -0.39976917394E+02 -0.89330015597E+02  0.10305248928E+03  0.00000000000E+00 0.  1.
         13    1    5    5    0    0  0.44223479742E+03  0.48026288264E+02 -0.28235734192E+03  0.52688120953E+03  0.00000000000E+00 0. -1.
        -13    1    5    5    0    0  0.22264891641E+03  0.12174571500E+02 -0.22751909756E+03  0.31856820294E+03  0.00000000000E+00 0.  1.
          1    1    6    6  503    0 -0.57228216372E+02  0.74437563500E+02  0.73333359036E+02  0.11913774027E+03  0.00000000000E+00 0. -1.
         -1    1    6    6    0  503  0.48615660963E+01  0.18319321230E+03  0.10618428936E+03  0.21179823220E+03  0.00000000000E+00 0.  1.
<mgrwt>
<rscale>  0 0.20639501E+04</rscale>
<asrwt>0</asrwt>
<pdfrwt beam="1">  1        1 0.31830992E+00 0.20639501E+04</pdfrwt>
<pdfrwt beam="2">  1       -2 0.79188388E-01 0.20639501E+04</pdfrwt>
<totfact> 0.30657917E+00</totfact>
</mgrwt>
</event>
<event>
12    5  0.5197392E-008  0.1254356E+04  0.7818608E-02  0.9066565E-01
         -2   -1    0    0    0  501 -0.00000000000E+00  0.00000000000E+00  0.79149857484E+03  0.79149857484E+03  0.00000000000E+00 0.  1.
          1   -1    0    0  501    0  0.00000000000E+00 -0.00000000000E+00 -0.49697172175E+03  0.49697172175E+03  0.00000000000E+00 0. -1.
        -24    2    1    2    0    0 -0.32008384659E+02 -0.15780713430E+03 -0.18388552683E+03  0.25783385840E+03  0.82077909542E+02 0.  0.
        254    2    1    2    0    0  0.32008384659E+02  0.15780713430E+03  0.47841237993E+03  0.10306364382E+04  0.89855741839E+03 0.  0.
         23    2    4    4    0    0 -0.81505139631E+01  0.68142430498E+02 -0.25782427190E+03  0.28227493573E+03  0.92173545272E+02 0.  0.
         23    2    4    4    0    0  0.40158898622E+02  0.89664703798E+02  0.73623665182E+03  0.74836150247E+03  0.91367579850E+02 0.  0.
          1    1    3    3  502    0  0.27317790653E+02 -0.43212689440E+02 -0.43206430749E+02  0.66935744358E+02  0.00000000000E+00 0. -1.
         -2    1    3    3    0  502 -0.59326175312E+02 -0.11459444486E+03 -0.14067909608E+03  0.19089811404E+03  0.00000000000E+00 0.  1.
         13    1    5    5    0    0 -0.17515341797E+02  0.52144303482E+02 -0.25793685768E+03  0.26373706250E+03  0.00000000000E+00 0.  1.
        -13    1    5    5    0    0  0.93648278336E+01  0.15998127016E+02  0.11258578292E+00  0.18537873231E+02  0.00000000000E+00 0. -1.
          4    1    6    6  503    0  0.56114699755E+02  0.49792705511E+02  0.27243102220E+03  0.28257182256E+03  0.00000000000E+00 0. -1.
         -4    1    6    6    0  503 -0.15955801133E+02  0.39871998287E+02  0.46380562962E+03  0.46578967991E+03  0.00000000000E+00 0.  1.
<mgrwt>
<rscale>  0 0.12543563E+04</rscale>
<asrwt>0</asrwt>
<pdfrwt beam="1">  1        1 0.76457188E-01 0.12543563E+04</pdfrwt>
<pdfrwt beam="2">  1       -2 0.12176901E+00 0.12543563E+04</pdfrwt>
<totfact> 0.19720345E+01</totfact>
</mgrwt>
</event>
<event>
12    5  0.5197392E-008  0.2104690E+04  0.7818608E-02  0.8559180E-01
          1   -1    0    0  501    0  0.00000000000E+00  0.00000000000E+00  0.15537738061E+04  0.15537738061E+04  0.00000000000E+00 0. -1.
         -2   -1    0    0    0  501 -0.00000000000E+00 -0.00000000000E+00 -0.71273583304E+03  0.71273583304E+03  0.00000000000E+00 0.  1.
        -24    2    1    2    0    0  0.64146567956E+01  0.46024573729E+03  0.11289207825E+04  0.12218241678E+04  0.80776713166E+02 0.  0.
        254    2    1    2    0    0 -0.64146567956E+01 -0.46024573729E+03 -0.28788280944E+03  0.10446854713E+04  0.89253791823E+03 0.  0.
         23    2    4    4    0    0 -0.42667357051E+03 -0.27353018663E+03 -0.25503980358E+03  0.57477029567E+03  0.91904801909E+02 0.  0.
         23    2    4    4    0    0  0.42025891371E+03 -0.18671555066E+03 -0.32843005867E+02  0.46991517564E+03  0.90892011998E+02 0.  0.
          1    1    3    3  502    0  0.11174275333E+02  0.44128124081E+03  0.11102701871E+04  0.11948028651E+04  0.00000000000E+00 0. -1.
         -2    1    3    3    0  502 -0.47596185375E+01  0.18964496477E+02  0.18650595375E+02  0.27021302764E+02  0.00000000000E+00 0.  1.
         13    1    5    5    0    0 -0.34428980518E+03 -0.19938698575E+03 -0.16020698826E+03  0.42890199245E+03  0.00000000000E+00 0. -1.
        -13    1    5    5    0    0 -0.82383765332E+02 -0.74143200874E+02 -0.94832815314E+02  0.14586830323E+03  0.00000000000E+00 0.  1.
          1    1    6    6  503    0  0.28609613998E+03 -0.17148670469E+03 -0.29386513503E+02  0.33484661918E+03  0.00000000000E+00 0. -1.
         -1    1    6    6    0  503  0.13416277373E+03 -0.15228845973E+02 -0.34564923645E+01  0.13506855646E+03  0.00000000000E+00 0.  1.
<mgrwt>
<rscale>  0 0.21046903E+04</rscale>
<asrwt>0</asrwt>
<pdfrwt beam="1">  1        1 0.23904212E+00 0.21046903E+04</pdfrwt>
<pdfrwt beam="2">  1       -2 0.10965167E+00 0.21046903E+04</pdfrwt>
<totfact> 0.32084575E+00</totfact>
</mgrwt>
</event>
<event>
12    5  0.5197392E-008  0.2014844E+04  0.7818608E-02  0.8599712E-01
          1   -1    0    0  501    0  0.00000000000E+00  0.00000000000E+00  0.39462147767E+04  0.39462147767E+04  0.00000000000E+00 0. -1.
         -2   -1    0    0    0  501 -0.00000000000E+00 -0.00000000000E+00 -0.25718287433E+03  0.25718287433E+03  0.00000000000E+00 0.  1.
        -24    2    1    2    0    0  0.26685977597E+03  0.56767424064E+03  0.42916055127E+03  0.76455443254E+03  0.83045276944E+02 0.  0.
        254    2    1    2    0    0 -0.26685977597E+03 -0.56767424064E+03  0.32598713511E+04  0.34388432185E+04  0.89744820030E+03 0.  0.
         23    2    4    4    0    0 -0.30343324013E+03 -0.79016888568E+03  0.24914558588E+04  0.26328732856E+04  0.90723991549E+02 0.  0.
         23    2    4    4    0    0  0.36573464160E+02  0.22249464504E+03  0.76841549235E+03  0.80596993294E+03  0.91014716221E+02 0.  0.
          3    1    3    3  502    0  0.10181118322E+03  0.18432487880E+03  0.18939996661E+03  0.28321992395E+03  0.00000000000E+00 0. -1.
         -4    1    3    3    0  502  0.16504859276E+03  0.38334936184E+03  0.23976058467E+03  0.48133450859E+03  0.00000000000E+00 0.  1.
         13    1    5    5    0    0 -0.13654668867E+03 -0.35018473178E+03  0.12472245207E+04  0.13026293984E+04  0.00000000000E+00 0. -1.
        -13    1    5    5    0    0 -0.16688655146E+03 -0.43998415390E+03  0.12442313381E+04  0.13302438872E+04  0.00000000000E+00 0.  1.
          1    1    6    6  503    0 -0.21960554291E+02  0.18628856048E+02  0.61269959665E+02  0.67700134267E+02  0.00000000000E+00 0. -1.
         -1    1    6    6    0  503  0.58534018451E+02  0.20386578899E+03  0.70714553268E+03  0.73826979867E+03  0.00000000000E+00 0.  1.
<mgrwt>
<rscale>  0 0.20148438E+04</rscale>
<asrwt>0</asrwt>
<pdfrwt beam="1">  1        1 0.60710992E+00 0.20148438E+04</pdfrwt>
<pdfrwt beam="2">  1       -2 0.39566599E-01 0.20148438E+04</pdfrwt>
<totfact> 0.52988512E-01</totfact>
</mgrwt>
</event>
<event>
12    5  0.5197392E-008  0.3626969E+04  0.7818608E-02  0.8084342E-01
          1   -1    0    0  501    0  0.00000000000E+00  0.00000000000E+00  0.16682634382E+04  0.16682634382E+04  0.00000000000E+00 0. -1.
         -2   -1    0    0    0  501 -0.00000000000E+00 -0.00000000000E+00 -0.19713466486E+04  0.19713466486E+04  0.00000000000E+00 0.  1.
        -24    2    1    2    0    0 -0.28322258709E+03  0.16417649333E+04  0.21400011637E+03  0.16816328662E+04  0.80535188939E+02 0.  0.
        254    2    1    2    0    0  0.28322258709E+03 -0.16417649333E+04 -0.51708332673E+03  0.19579772206E+04  0.88920891786E+03 0.  0.
         23    2    4    4    0    0  0.43605801868E+03 -0.46532708080E+03 -0.41010785268E+03  0.76355075792E+03  0.90251987820E+02 0.  0.
         23    2    4    4    0    0 -0.15283543159E+03 -0.11764378525E+04 -0.10697547405E+03  0.11944264627E+04  0.88578399031E+02 0.  0.
          1    1    3    3  502    0 -0.22592926653E+03  0.14462951815E+04  0.17527843040E+03  0.14742918007E+04  0.00000000000E+00 0. -1.
         -2    1    3    3    0  502 -0.57293320564E+02  0.19546975182E+03  0.38721685970E+02  0.20734106545E+03  0.00000000000E+00 0.  1.
         13    1    5    5    0    0  0.11708287574E+03 -0.18730750399E+03 -0.13639659467E+03  0.25960842028E+03  0.00000000000E+00 0. -1.
        -13    1    5    5    0    0  0.31897514294E+03 -0.27801957681E+03 -0.27371125801E+03  0.50394233764E+03  0.00000000000E+00 0.  1.
          3    1    6    6  503    0 -0.35846453521E+01 -0.89077121980E+02  0.13930674951E+02  0.90231075839E+02  0.00000000000E+00 0. -1.
         -3    1    6    6    0  503 -0.14925078624E+03 -0.10873607306E+04 -0.12090614900E+03  0.11041953869E+04  0.00000000000E+00 0.  1.
<mgrwt>
<rscale>  0 0.36269687E+04</rscale>
<asrwt>0</asrwt>
<pdfrwt beam="1">  1        1 0.25665591E+00 0.36269687E+04</pdfrwt>
<pdfrwt beam="2">  1       -2 0.30328410E+00 0.36269687E+04</pdfrwt>
<totfact> 0.10780789E-01</totfact>
</mgrwt>
</event>
<event>
12    5  0.5197392E-008  0.2072058E+04  0.7818608E-02  0.8573653E-01
         -2   -1    0    0    0  501 -0.00000000000E+00  0.00000000000E+00  0.68029485436E+03  0.68029485436E+03  0.00000000000E+00 0.  1.
          1   -1    0    0  501    0  0.00000000000E+00 -0.00000000000E+00 -0.15777808543E+04  0.15777808543E+04  0.00000000000E+00 0. -1.
        -24    2    1    2    0    0  0.27436977263E+03 -0.10800724140E+03 -0.12304810098E+04  0.12680935264E+04  0.83865009428E+02 0.  0.
        254    2    1    2    0    0 -0.27436977263E+03  0.10800724140E+03  0.33299500983E+03  0.98998218232E+03  0.88444033626E+03 0.  0.
         23    2    4    4    0    0  0.11634048335E+03 -0.31160965026E+03  0.18254269656E+03  0.38998951925E+03  0.90190392238E+02 0.  0.
         23    2    4    4    0    0 -0.39071025598E+03  0.41961689167E+03  0.15045231327E+03  0.59999266307E+03  0.92857187499E+02 0.  0.
          3    1    3    3  502    0  0.14575253143E+03 -0.65578617574E+02 -0.83238612033E+03  0.84759129822E+03  0.00000000000E+00 0. -1.
         -4    1    3    3    0  502  0.12861724120E+03 -0.42428623829E+02 -0.39809488947E+03  0.42050222815E+03  0.00000000000E+00 0.  1.
         13    1    5    5    0    0 -0.32351947473E+01 -0.64414192467E+02  0.89262809987E+01  0.65110161793E+02  0.00000000000E+00 0. -1.
        -13    1    5    5    0    0  0.11957567810E+03 -0.24719545780E+03  0.17361641556E+03  0.32487935745E+03  0.00000000000E+00 0.  1.
          3    1    6    6  503    0 -0.83961958474E+02  0.12966162559E+03  0.86662972545E+01  0.15471539138E+03  0.00000000000E+00 0. -1.
         -3    1    6    6    0  503 -0.30674829750E+03  0.28995526608E+03  0.14178601602E+03  0.44527727169E+03  0.00000000000E+00 0.  1.
<mgrwt>
<rscale>  0 0.20720581E+04</rscale>
<asrwt>0</asrwt>
<pdfrwt beam="1">  1        1 0.24273551E+00 0.20720581E+04</pdfrwt>
<pdfrwt beam="2">  1       -2 0.10466075E+00 0.20720581E+04</pdfrwt>
<totfact> 0.34655218E+00</totfact>
</mgrwt>
</event>
<event>
12    5  0.5197392E-008  0.1356764E+04  0.7818608E-02  0.8985724E-01
         -2   -1    0    0    0  501 -0.00000000000E+00  0.00000000000E+00  0.19741242338E+03  0.19741242338E+03  0.00000000000E+00 0.  1.
          1   -1    0    0  501    0  0.00000000000E+00 -0.00000000000E+00 -0.23311713961E+04  0.23311713961E+04  0.00000000000E+00 0. -1.
        -24    2    1    2    0    0 -0.34033867497E+03 -0.11496398434E+03 -0.68428239616E+03  0.77698414466E+03  0.80092646336E+02 0.  0.
        254    2    1    2    0    0  0.34033867497E+03  0.11496398434E+03 -0.14494765765E+04  0.17515996748E+04  0.91546269364E+03 0.  0.
         23    2    4    4    0    0  0.30374219906E+03 -0.28685412726E+02 -0.15279697256E+04  0.15608931966E+04  0.92811165158E+02 0.  0.
         23    2    4    4    0    0  0.36596475907E+02  0.14364939706E+03  0.78493149095E+02  0.19070647819E+03  0.90737726681E+02 0.  0.
          3    1    3    3  502    0 -0.10523298405E+03 -0.75187231062E-02 -0.16979519794E+03  0.19976083257E+03  0.00000000000E+00 0. -1.
         -4    1    3    3    0  502 -0.23510569092E+03 -0.11495646561E+03 -0.51448719822E+03  0.57722331209E+03  0.00000000000E+00 0.  1.
         13    1    5    5    0    0  0.22143042871E+03 -0.44430702594E+02 -0.12614752238E+04  0.12815323884E+04  0.00000000000E+00 0. -1.
        -13    1    5    5    0    0  0.82311770352E+02  0.15745289868E+02 -0.26649450177E+03  0.27936080821E+03  0.00000000000E+00 0.  1.
          2    1    6    6  503    0  0.60772270415E+02  0.12584544527E+03  0.47620229690E+02  0.14764156333E+03  0.00000000000E+00 0. -1.
         -2    1    6    6    0  503 -0.24175794508E+02  0.17803951798E+02  0.30872919405E+02  0.43064914865E+02  0.00000000000E+00 0.  1.
<mgrwt>
<rscale>  0 0.13567641E+04</rscale>
<asrwt>0</asrwt>
<pdfrwt beam="1">  1        1 0.35864179E+00 0.13567641E+04</pdfrwt>
<pdfrwt beam="2">  1       -2 0.30371139E-01 0.13567641E+04</pdfrwt>
<totfact> 0.15293307E+01</totfact>
</mgrwt>
</event>
<event>
12    5  0.5197392E-008  0.1157574E+04  0.7818608E-02  0.9150825E-01
         -2   -1    0    0    0  501 -0.00000000000E+00  0.00000000000E+00  0.11150532190E+03  0.11150532190E+03  0.00000000000E+00 0.  1.
          1   -1    0    0  501    0  0.00000000000E+00 -0.00000000000E+00 -0.30042887471E+04  0.30042887471E+04  0.00000000000E+00 0. -1.
        -24    2    1    2    0    0  0.16266509986E+03  0.11992513443E+03 -0.47309203227E+03  0.52333662647E+03  0.96037393947E+02 0.  0.
        254    2    1    2    0    0 -0.16266509986E+03 -0.11992513443E+03 -0.24196913929E+04  0.25924574425E+04  0.90834309690E+03 0.  0.
         23    2    4    4    0    0 -0.39600510779E+01 -0.66630025395E+02  0.44282199623E+02  0.12108951295E+03  0.90810322393E+02 0.  0.
         23    2    4    4    0    0 -0.15870504878E+03 -0.53295109032E+02 -0.24639735925E+04  0.24713679296E+04  0.92010419973E+02 0.  0.
          3    1    3    3  502    0  0.10198583461E+03  0.95898716149E+02 -0.21082025841E+03  0.25306689940E+03  0.00000000000E+00 0. -1.
         -4    1    3    3    0  502  0.60679265252E+02  0.24026418278E+02 -0.26227177386E+03  0.27026972707E+03  0.00000000000E+00 0.  1.
         13    1    5    5    0    0 -0.31012434659E+02 -0.66878840055E+02  0.56621169603E+01  0.73936526285E+02  0.00000000000E+00 0. -1.
        -13    1    5    5    0    0  0.27052383581E+02  0.24881465992E+00  0.38620082663E+02  0.47152986661E+02  0.00000000000E+00 0.  1.
          3    1    6    6  503    0 -0.66155211129E+02  0.10697172081E+02 -0.13662909853E+04  0.13679334771E+04  0.00000000000E+00 0. -1.
         -3    1    6    6    0  503 -0.92549837653E+02 -0.63992281113E+02 -0.10976826073E+04  0.11034344524E+04  0.00000000000E+00 0.  1.
<mgrwt>
<rscale>  0 0.11575736E+04</rscale>
<asrwt>0</asrwt>
<pdfrwt beam="1">  1        1 0.46219830E+00 0.11575736E+04</pdfrwt>
<pdfrwt beam="2">  1       -2 0.17154664E-01 0.11575736E+04</pdfrwt>
<totfact> 0.14656278E+01</totfact>
</mgrwt>
</event>
<event>
12    5  0.5197392E-008  0.1398602E+04  0.7818608E-02  0.8954831E-01
         -4   -1    0    0    0  501 -0.00000000000E+00  0.00000000000E+00  0.23194489739E+03  0.23194489739E+03  0.00000000000E+00 0.  1.
          1   -1    0    0  501    0  0.00000000000E+00 -0.00000000000E+00 -0.21083538715E+04  0.21083538715E+04  0.00000000000E+00 0. -1.
        -24    2    1    2    0    0 -0.42836466577E+03  0.11742201750E+03 -0.54555070214E+03  0.70796271922E+03  0.79381522593E+02 0.  0.
        254    2    1    2    0    0  0.42836466577E+03 -0.11742201750E+03 -0.13308582720E+04  0.16323360497E+04  0.83429792157E+03 0.  0.
         23    2    4    4    0    0  0.73698097087E+02 -0.35004718942E+03 -0.10571381075E+04  0.11195128715E+04  0.88338251953E+02 0.  0.
         23    2    4    4    0    0  0.35466656868E+03  0.23262517192E+03 -0.27372016452E+03  0.51282317824E+03  0.90343998818E+02 0.  0.
          1    1    3    3  502    0 -0.36315755070E+01  0.58882492585E+01 -0.29778047575E+02  0.30571096437E+02  0.00000000000E+00 0. -1.
         -2    1    3    3    0  502 -0.42473309026E+03  0.11153376824E+03 -0.51577265457E+03  0.67739162279E+03  0.00000000000E+00 0.  1.
         13    1    5    5    0    0  0.85354815636E+01 -0.66276554152E+02 -0.32111049752E+03  0.32798992011E+03  0.00000000000E+00 0. -1.
        -13    1    5    5    0    0  0.65162615524E+02 -0.28377063527E+03 -0.73602760997E+03  0.79152295136E+03  0.00000000000E+00 0.  1.
          3    1    6    6  503    0  0.11233795623E+01  0.17412848132E+02 -0.23151763867E+02  0.28990919817E+02  0.00000000000E+00 0. -1.
         -3    1    6    6    0  503  0.35354318912E+03  0.21521232379E+03 -0.25056840066E+03  0.48383225843E+03  0.00000000000E+00 0.  1.
<mgrwt>
<rscale>  0 0.13986020E+04</rscale>
<asrwt>0</asrwt>
<pdfrwt beam="1">  1        1 0.32436214E+00 0.13986020E+04</pdfrwt>
<pdfrwt beam="2">  1       -4 0.35683830E-01 0.13986020E+04</pdfrwt>
<totfact> 0.93339422E+00</totfact>
</mgrwt>
</event>
<event>
12    5  0.5197392E-008  0.4250957E+04  0.7818608E-02  0.7955749E-01
         -2   -1    0    0    0  501 -0.00000000000E+00  0.00000000000E+00  0.23780848911E+04  0.23780848911E+04  0.00000000000E+00 0.  1.
          1   -1    0    0  501    0  0.00000000000E+00 -0.00000000000E+00 -0.18997048170E+04  0.18997048170E+04  0.00000000000E+00 0. -1.
        -24    2    1    2    0    0  0.16169915521E+04  0.58154202251E+03 -0.85620040066E+03  0.19214576041E+04  0.77893482317E+02 0.  0.
        254    2    1    2    0    0 -0.16169915521E+04 -0.58154202251E+03  0.13345804748E+04  0.23563321040E+04  0.90462320185E+03 0.  0.
         23    2    4    4    0    0 -0.64673722727E+03 -0.13441978819E+03  0.29218724771E+02  0.66700907683E+03  0.87804635974E+02 0.  0.
         23    2    4    4    0    0 -0.97025432483E+03 -0.44712223433E+03  0.13053617500E+04  0.16893230272E+04  0.92364736816E+02 0.  0.
          3    1    3    3  502    0  0.14196647201E+04  0.51413006417E+03 -0.72344783285E+03  0.16742623472E+04  0.00000000000E+00 0. -1.
         -4    1    3    3    0  502  0.19732683200E+03  0.67411958348E+02 -0.13275256782E+03  0.24719525687E+03  0.00000000000E+00 0.  1.
         13    1    5    5    0    0 -0.26143842423E+02 -0.18600514747E+01 -0.16167331165E+02  0.30795176328E+02  0.00000000000E+00 0.  1.
        -13    1    5    5    0    0 -0.62059338485E+03 -0.13255973671E+03  0.45386055936E+02  0.63621390050E+03  0.00000000000E+00 0. -1.
          4    1    6    6  503    0 -0.81317855512E+03 -0.38327312145E+03  0.11469965282E+04  0.14573121435E+04  0.00000000000E+00 0. -1.
         -4    1    6    6    0  503 -0.15707576971E+03 -0.63849112871E+02  0.15836522183E+03  0.23201088365E+03  0.00000000000E+00 0.  1.
<mgrwt>
<rscale>  0 0.42509572E+04</rscale>
<asrwt>0</asrwt>
<pdfrwt beam="1">  1        1 0.29226228E+00 0.42509572E+04</pdfrwt>
<pdfrwt beam="2">  1       -2 0.36585921E+00 0.42509572E+04</pdfrwt>
<totfact> 0.28970361E-02</totfact>
</mgrwt>
</event>
<event>
12    5  0.6975540E-008  0.1519712E+04  0.7818608E-02  0.8871450E-01
         -2   -1    0    0    0  501 -0.00000000000E+00  0.00000000000E+00  0.69112672751E+03  0.69112672751E+03  0.00000000000E+00 0.  1.
          1   -1    0    0  501    0  0.00000000000E+00 -0.00000000000E+00 -0.83541994128E+03  0.83541994128E+03  0.00000000000E+00 0. -1.
        -24    2    1    2    0    0 -0.20185924757E+03  0.18393899923E+03 -0.44771705863E+03  0.53503764443E+03  0.10599058969E+03 0.  0.
        254    2    1    2    0    0  0.20185924757E+03 -0.18393899923E+03  0.30342384485E+03  0.99150902436E+03  0.90357257843E+03 0.  0.
         23    2    4    4    0    0  0.54206320396E+03 -0.88928996045E+02  0.75830050463E+02  0.56162744088E+03  0.89074701073E+02 0.  0.
         23    2    4    4    0    0 -0.34020395639E+03 -0.95010003186E+02  0.22759379439E+03  0.42988158348E+03  0.90739230310E+02 0.  0.
          3    1    3    3  502    0 -0.12128238923E+03  0.14612390595E+03 -0.37406603887E+03  0.41950806341E+03  0.00000000000E+00 0. -1.
         -4    1    3    3    0  502 -0.80576858346E+02  0.37815093280E+02 -0.73651019761E+02  0.11552958103E+03  0.00000000000E+00 0.  1.
         13    1    5    5    0    0  0.53067729902E+03 -0.99227950962E+02  0.79873394313E+02  0.54575117138E+03  0.00000000000E+00 0. -1.
        -13    1    5    5    0    0  0.11385904943E+02  0.10298954916E+02 -0.40433438499E+01  0.15876269500E+02  0.00000000000E+00 0.  1.
          3    1    6    6  503    0 -0.32991818910E+03 -0.79449415127E+02  0.19252082548E+03  0.39015700597E+03  0.00000000000E+00 0. -1.
         -3    1    6    6    0  503 -0.10285767285E+02 -0.15560588059E+02  0.35072968916E+02  0.39724577505E+02  0.00000000000E+00 0.  1.
<mgrwt>
<rscale>  0 0.15197119E+04</rscale>
<asrwt>0</asrwt>
<pdfrwt beam="1">  1        1 0.12852615E+00 0.15197119E+04</pdfrwt>
<pdfrwt beam="2">  1       -2 0.10632719E+00 0.15197119E+04</pdfrwt>
<totfact> 0.12436252E+01</totfact>
</mgrwt>
</event>
<event>
12    5  0.5197392E-008  0.1180905E+04  0.7818608E-02  0.9129736E-01
          1   -1    0    0  501    0  0.00000000000E+00  0.00000000000E+00  0.10141686732E+04  0.10141686732E+04  0.00000000000E+00 0. -1.
         -2   -1    0    0    0  501 -0.00000000000E+00 -0.00000000000E+00 -0.34376377226E+03  0.34376377226E+03  0.00000000000E+00 0.  1.
        -24    2    1    2    0    0  0.93687689856E+02 -0.14149393484E+03 -0.21436016502E+02  0.18866528821E+03  0.79606352430E+02 0.  0.
        254    2    1    2    0    0 -0.93687689856E+02  0.14149393484E+03  0.69184091748E+03  0.11692671573E+04  0.92722376651E+03 0.  0.
         23    2    4    4    0    0 -0.17848514481E+03 -0.36305369598E+03  0.23046613918E+03  0.47431259146E+03  0.90514418870E+02 0.  0.
         23    2    4    4    0    0  0.84797454951E+02  0.50454763082E+03  0.46137477830E+03  0.69495456583E+03  0.91303025098E+02 0.  0.
          3    1    3    3  502    0  0.48724290718E+02 -0.59281324783E+02  0.29260976688E+02  0.82125128498E+02  0.00000000000E+00 0. -1.
         -4    1    3    3    0  502  0.44963399138E+02 -0.82212610054E+02 -0.50696993190E+02  0.10654015972E+03  0.00000000000E+00 0.  1.
         13    1    5    5    0    0 -0.11037812720E+03 -0.14813973257E+03  0.13821593254E+03  0.23072138032E+03  0.00000000000E+00 0.  1.
        -13    1    5    5    0    0 -0.68107017612E+02 -0.21491396341E+03  0.92250206635E+02  0.24359121113E+03  0.00000000000E+00 0. -1.
          4    1    6    6  503    0  0.67714125621E+02  0.49272165113E+03  0.43079989259E+03  0.65798812737E+03  0.00000000000E+00 0. -1.
         -4    1    6    6    0  503  0.17083329331E+02  0.11825979684E+02  0.30574885711E+02  0.36966438464E+02  0.00000000000E+00 0.  1.
<mgrwt>
<rscale>  0 0.11809055E+04</rscale>
<asrwt>0</asrwt>
<pdfrwt beam="1">  1        1 0.15602595E+00 0.11809055E+04</pdfrwt>
<pdfrwt beam="2">  1       -2 0.52886735E-01 0.11809055E+04</pdfrwt>
<totfact> 0.43214984E+01</totfact>
</mgrwt>
</event>
<event>
12    5  0.5197392E-008  0.1409503E+04  0.7818608E-02  0.8946969E-01
          1   -1    0    0  501    0  0.00000000000E+00  0.00000000000E+00  0.11099443048E+04  0.11099443048E+04  0.00000000000E+00 0. -1.
         -2   -1    0    0    0  501 -0.00000000000E+00 -0.00000000000E+00 -0.44747679969E+03  0.44747679969E+03  0.00000000000E+00 0.  1.
        -24    2    1    2    0    0  0.33258101511E+02  0.27715379673E+03 -0.13995044854E+03  0.32390791638E+03  0.86080670803E+02 0.  0.
        254    2    1    2    0    0 -0.33258101511E+02 -0.27715379673E+03  0.80241795364E+03  0.12335131881E+04  0.89429295231E+03 0.  0.
         23    2    4    4    0    0  0.24218553906E+03 -0.20264079387E+03  0.86734068149E+03  0.92690080776E+03  0.84546572863E+02 0.  0.
         23    2    4    4    0    0 -0.27544364057E+03 -0.74513002861E+02 -0.64922727845E+02  0.30661238035E+03  0.91513957760E+02 0.  0.
          3    1    3    3  502    0  0.14707129903E+02  0.15514036073E+03 -0.30165285877E+02  0.15872862272E+03  0.00000000000E+00 0. -1.
         -4    1    3    3    0  502  0.18550971608E+02  0.12201343600E+03 -0.10978516267E+03  0.16517929366E+03  0.00000000000E+00 0.  1.
         13    1    5    5    0    0  0.23843837790E+03 -0.17132424355E+03  0.75078600910E+03  0.80615413411E+03  0.00000000000E+00 0. -1.
        -13    1    5    5    0    0  0.37471611618E+01 -0.31316550323E+02  0.11655467239E+03  0.12074667365E+03  0.00000000000E+00 0.  1.
          2    1    6    6  503    0 -0.17021387039E+02 -0.21252131595E+02  0.14783057163E+02  0.30982567569E+02  0.00000000000E+00 0.  1.
         -2    1    6    6    0  503 -0.25842225353E+03 -0.53260871266E+02 -0.79705785008E+02  0.27562981278E+03  0.00000000000E+00 0. -1.
<mgrwt>
<rscale>  0 0.14095025E+04</rscale>
<asrwt>0</asrwt>
<pdfrwt beam="1">  1        1 0.17076066E+00 0.14095025E+04</pdfrwt>
<pdfrwt beam="2">  1       -2 0.68842585E-01 0.14095025E+04</pdfrwt>
<totfact> 0.20526884E+01</totfact>
</mgrwt>
</event>
<event>
12    5  0.5197392E-008  0.1528771E+04  0.7818608E-02  0.8865543E-01
         -4   -1    0    0    0  501 -0.00000000000E+00  0.00000000000E+00  0.35554216362E+03  0.35554216362E+03  0.00000000000E+00 0.  1.
          3   -1    0    0  501    0  0.00000000000E+00 -0.00000000000E+00 -0.16433632727E+04  0.16433632727E+04  0.00000000000E+00 0. -1.
        -24    2    1    2    0    0  0.90594449603E+02 -0.25876491917E+03  0.11822526333E+03  0.30933252923E+03  0.80887347921E+02 0.  0.
        254    2    1    2    0    0 -0.90594449603E+02  0.25876491917E+03 -0.14060463724E+04  0.16895729071E+04  0.89583679839E+03 0.  0.
         23    2    4    4    0    0 -0.20149913254E+03  0.49906390361E+03 -0.49622642338E+03  0.73758886552E+03  0.90166462592E+02 0.  0.
         23    2    4    4    0    0  0.11090468294E+03 -0.24029898444E+03 -0.90981994903E+03  0.95198404157E+03  0.91966434871E+02 0.  0.
          1    1    3    3  502    0  0.60667898841E+02 -0.68045950533E+02  0.22742546274E+02  0.93957803000E+02  0.00000000000E+00 0. -1.
         -2    1    3    3    0  502  0.29926550763E+02 -0.19071896864E+03  0.95482717057E+02  0.21537472623E+03  0.00000000000E+00 0.  1.
         13    1    5    5    0    0 -0.72436547754E+01  0.42704590000E+02 -0.76195860206E+02  0.87646800592E+02  0.00000000000E+00 0. -1.
        -13    1    5    5    0    0 -0.19425547777E+03  0.45635931361E+03 -0.42003056317E+03  0.64994206493E+03  0.00000000000E+00 0.  1.
          2    1    6    6  503    0  0.11678799908E+03 -0.16315530913E+03 -0.60046990199E+03  0.63310599020E+03  0.00000000000E+00 0. -1.
         -2    1    6    6    0  503 -0.58833161356E+01 -0.77143675310E+02 -0.30935004703E+03  0.31887805138E+03  0.00000000000E+00 0.  1.
<mgrwt>
<rscale>  0 0.15287707E+04</rscale>
<asrwt>0</asrwt>
<pdfrwt beam="1">  1        3 0.25282511E+00 0.15287707E+04</pdfrwt>
<pdfrwt beam="2">  1       -4 0.54698796E-01 0.15287707E+04</pdfrwt>
<totfact> 0.50361401E-01</totfact>
</mgrwt>
</event>
<event>
12    5  0.5197392E-008  0.1635118E+04  0.7818608E-02  0.8799260E-01
          1   -1    0    0  501    0  0.00000000000E+00  0.00000000000E+00  0.11584486911E+04  0.11584486911E+04  0.00000000000E+00 0. -1.
         -2   -1    0    0    0  501 -0.00000000000E+00 -0.00000000000E+00 -0.57698054042E+03  0.57698054042E+03  0.00000000000E+00 0.  1.
        -24    2    1    2    0    0  0.45374570668E+03  0.14422890150E+03  0.53453877945E+03  0.72035663523E+03  0.80590525737E+02 0.  0.
        254    2    1    2    0    0 -0.45374570668E+03 -0.14422890150E+03  0.46929371203E+02  0.10150725963E+04  0.89525575531E+03 0.  0.
         23    2    4    4    0    0 -0.44323505799E+03 -0.40676778492E+03 -0.20160125811E+03  0.64184846886E+03  0.97000217627E+02 0.  0.
         23    2    4    4    0    0 -0.10510648688E+02  0.26253888343E+03  0.24853062932E+03  0.37322412739E+03  0.92150076034E+02 0.  0.
          1    1    3    3  502    0  0.44044347203E+03  0.13149674781E+03  0.52967571561E+03  0.70131177835E+03  0.00000000000E+00 0. -1.
         -2    1    3    3    0  502  0.13302234646E+02  0.12732153685E+02  0.48630638377E+01  0.19044856889E+02  0.00000000000E+00 0.  1.
         13    1    5    5    0    0 -0.38123425469E+03 -0.32656688972E+03 -0.20030052022E+03  0.54046812007E+03  0.00000000000E+00 0. -1.
        -13    1    5    5    0    0 -0.62000803299E+02 -0.80200895206E+02 -0.13007378916E+01  0.10138034879E+03  0.00000000000E+00 0.  1.
          3    1    6    6  503    0  0.24767279899E+02  0.60141409457E+02  0.10162312847E+03  0.12065515954E+03  0.00000000000E+00 0. -1.
         -3    1    6    6    0  503 -0.35277928587E+02  0.20239747397E+03  0.14690750085E+03  0.25256896785E+03  0.00000000000E+00 0.  1.
<mgrwt>
<rscale>  0 0.16351176E+04</rscale>
<asrwt>0</asrwt>
<pdfrwt beam="1">  1        1 0.17822288E+00 0.16351176E+04</pdfrwt>
<pdfrwt beam="2">  1       -2 0.88766237E-01 0.16351176E+04</pdfrwt>
<totfact> 0.10496303E+01</totfact>
</mgrwt>
</event>
<event>
12    5  0.5197392E-008  0.3078298E+04  0.7818608E-02  0.8221719E-01
         -2   -1    0    0    0  501 -0.00000000000E+00  0.00000000000E+00  0.19261974459E+04  0.19261974459E+04  0.00000000000E+00 0.  1.
          1   -1    0    0  501    0  0.00000000000E+00 -0.00000000000E+00 -0.12298737418E+04  0.12298737418E+04  0.00000000000E+00 0. -1.
        -24    2    1    2    0    0  0.12737781691E+04 -0.32601985036E+03  0.83266843538E+03  0.15583909116E+04  0.80285385318E+02 0.  0.
        254    2    1    2    0    0 -0.12737781691E+04  0.32601985036E+03 -0.13634473131E+03  0.15976802761E+04  0.89732525431E+03 0.  0.
         23    2    4    4    0    0 -0.11754270619E+04 -0.61882426174E+02 -0.82315765577E+02  0.11834877114E+04  0.91700955842E+02 0.  0.
         23    2    4    4    0    0 -0.98351107170E+02  0.38790227654E+03 -0.54028965732E+02  0.41419256467E+03  0.92169599447E+02 0.  0.
          1    1    3    3  502    0  0.43868475797E+03 -0.12916391860E+03  0.33078167470E+03  0.56439715721E+03  0.00000000000E+00 0. -1.
         -2    1    3    3    0  502  0.83509341111E+03 -0.19685593177E+03  0.50188676068E+03  0.99399375435E+03  0.00000000000E+00 0.  1.
         13    1    5    5    0    0 -0.10918045854E+04 -0.38593981104E+02 -0.90888305766E+02  0.10962606589E+04  0.00000000000E+00 0.  1.
        -13    1    5    5    0    0 -0.83622476489E+02 -0.23288445069E+02  0.85725401894E+01  0.87227052531E+02  0.00000000000E+00 0. -1.
          4    1    6    6  503    0 -0.28328709848E+02  0.24942061420E+03 -0.36822708009E+01  0.25105122527E+03  0.00000000000E+00 0. -1.
         -4    1    6    6    0  503 -0.70022397322E+02  0.13848166233E+03 -0.50346694931E+02  0.16314133940E+03  0.00000000000E+00 0.  1.
<mgrwt>
<rscale>  0 0.30782980E+04</rscale>
<asrwt>0</asrwt>
<pdfrwt beam="1">  1        1 0.18921134E+00 0.30782980E+04</pdfrwt>
<pdfrwt beam="2">  1       -2 0.29633807E+00 0.30782980E+04</pdfrwt>
<totfact> 0.25237919E-01</totfact>
</mgrwt>
</event>
<event>
12    5  0.5197392E-008  0.1202452E+04  0.7818608E-02  0.9110713E-01
         -2   -1    0    0    0  501 -0.00000000000E+00  0.00000000000E+00  0.28978666188E+03  0.28978666188E+03  0.00000000000E+00 0.  1.
          1   -1    0    0  501    0  0.00000000000E+00 -0.00000000000E+00 -0.12473756359E+04  0.12473756359E+04  0.00000000000E+00 0. -1.
        -24    2    1    2    0    0  0.31353802510E+02 -0.24379256356E+03 -0.31249566400E+03  0.40394935934E+03  0.71439974228E+02 0.  0.
        254    2    1    2    0    0 -0.31353802510E+02  0.24379256356E+03 -0.64509331002E+03  0.11332129384E+04  0.89867030118E+03 0.  0.
         23    2    4    4    0    0 -0.34681136956E+03  0.68431442477E+02  0.26389052846E+02  0.36553093653E+03  0.89193582050E+02 0.  0.
         23    2    4    4    0    0  0.31545756705E+03  0.17536112108E+03 -0.67148236286E+03  0.76768200189E+03  0.90454922507E+02 0.  0.
          1    1    3    3  502    0  0.23212029486E+02 -0.19583840475E+03 -0.28914403041E+03  0.34999392767E+03  0.00000000000E+00 0. -1.
         -2    1    3    3    0  502  0.81417730237E+01 -0.47954158810E+02 -0.23351633585E+02  0.53955431666E+02  0.00000000000E+00 0.  1.
         13    1    5    5    0    0 -0.14360637885E+03  0.72005432842E+02  0.46685891709E+00  0.16064803878E+03  0.00000000000E+00 0. -1.
        -13    1    5    5    0    0 -0.20320499071E+03 -0.35739903654E+01  0.25922193929E+02  0.20488289776E+03  0.00000000000E+00 0.  1.
          1    1    6    6  503    0  0.16451307761E+03  0.48751476504E+02 -0.36531475454E+03  0.40360392596E+03  0.00000000000E+00 0. -1.
         -1    1    6    6    0  503  0.15094448944E+03  0.12660964457E+03 -0.30616760832E+03  0.36407807594E+03  0.00000000000E+00 0.  1.
<mgrwt>
<rscale>  0 0.12024522E+04</rscale>
<asrwt>0</asrwt>
<pdfrwt beam="1">  1        1 0.19190395E+00 0.12024522E+04</pdfrwt>
<pdfrwt beam="2">  1       -2 0.44582563E-01 0.12024522E+04</pdfrwt>
<totfact> 0.40864785E+01</totfact>
</mgrwt>
</event>
<event>
12    5  0.5197392E-008  0.1477853E+04  0.7818608E-02  0.8899316E-01
          1   -1    0    0  501    0  0.00000000000E+00  0.00000000000E+00  0.26458036605E+04  0.26458036605E+04  0.00000000000E+00 0. -1.
         -2   -1    0    0    0  501 -0.00000000000E+00 -0.00000000000E+00 -0.20636913376E+03  0.20636913376E+03  0.00000000000E+00 0.  1.
        -24    2    1    2    0    0  0.67016572636E+02 -0.19772038306E+03  0.16010451105E+04  0.16166609056E+04  0.81623935700E+02 0.  0.
        254    2    1    2    0    0 -0.67016572636E+02  0.19772038306E+03  0.83838941622E+03  0.12355118887E+04  0.88318075325E+03 0.  0.
         23    2    4    4    0    0  0.17326510474E+03 -0.21952250835E+03  0.37552456672E+02  0.29661111828E+03  0.91416849086E+02 0.  0.
         23    2    4    4    0    0 -0.24028167737E+03  0.41724289140E+03  0.80083695955E+03  0.93890077037E+03  0.91476258818E+02 0.  0.
          3    1    3    3  502    0  0.72181923679E+02 -0.12264499509E+03  0.12186851211E+04  0.12269659528E+04  0.00000000000E+00 0. -1.
         -4    1    3    3    0  502 -0.51653510422E+01 -0.75075387966E+02  0.38235998940E+03  0.38969495278E+03  0.00000000000E+00 0.  1.
         13    1    5    5    0    0  0.37176012686E+02 -0.11921618343E+03  0.22414354718E+02  0.12687378614E+03  0.00000000000E+00 0. -1.
        -13    1    5    5    0    0  0.13608909205E+03 -0.10030632491E+03  0.15138101955E+02  0.16973733215E+03  0.00000000000E+00 0.  1.
          3    1    6    6  503    0  0.36876528833E+01  0.14280327877E+01 -0.21871795467E+00  0.39605427626E+01  0.00000000000E+00 0. -1.
         -3    1    6    6    0  503 -0.24396933026E+03  0.41581485862E+03  0.80105567750E+03  0.93494022761E+03  0.00000000000E+00 0.  1.
<mgrwt>
<rscale>  0 0.14778528E+04</rscale>
<asrwt>0</asrwt>
<pdfrwt beam="1">  1        1 0.40704669E+00 0.14778528E+04</pdfrwt>
<pdfrwt beam="2">  1       -2 0.31749099E-01 0.14778528E+04</pdfrwt>
<totfact> 0.84386435E+00</totfact>
</mgrwt>
</event>
<event>
12    5  0.5197392E-008  0.1645930E+04  0.7818608E-02  0.8792818E-01
         -4   -1    0    0    0  501 -0.00000000000E+00  0.00000000000E+00  0.11721412573E+04  0.11721412573E+04  0.00000000000E+00 0.  1.
          1   -1    0    0  501    0  0.00000000000E+00 -0.00000000000E+00 -0.57780686745E+03  0.57780686745E+03  0.00000000000E+00 0. -1.
        -24    2    1    2    0    0 -0.62018447050E+02 -0.42591821260E+03  0.61291750020E+03  0.75327182923E+03  0.80610018371E+02 0.  0.
        254    2    1    2    0    0  0.62018447050E+02  0.42591821260E+03 -0.18583110337E+02  0.99667629553E+03  0.89875786199E+03 0.  0.
         23    2    4    4    0    0 -0.10550013779E+03  0.66156274284E+03 -0.96339241578E+02  0.68296115698E+03  0.91428391019E+02 0.  0.
         23    2    4    4    0    0  0.16751858484E+03 -0.23564453025E+03  0.77756131241E+02  0.31371513856E+03  0.93703528816E+02 0.  0.
          1    1    3    3  502    0 -0.58876680095E+02 -0.14201301876E+03  0.20357330661E+03  0.25510047456E+03  0.00000000000E+00 0. -1.
         -2    1    3    3    0  502 -0.31417669545E+01 -0.28390519383E+03  0.40934419358E+03  0.49817135466E+03  0.00000000000E+00 0.  1.
         13    1    5    5    0    0 -0.71407895572E+02  0.18426841436E+03 -0.28722792296E+02  0.19969710783E+03  0.00000000000E+00 0.  1.
        -13    1    5    5    0    0 -0.34092242216E+02  0.47729432848E+03 -0.67616449282E+02  0.48326404914E+03  0.00000000000E+00 0. -1.
          1    1    6    6  503    0  0.15962213179E+03 -0.24287044582E+03  0.82344714179E+02  0.30206941315E+03  0.00000000000E+00 0. -1.
         -1    1    6    6    0  503  0.78964530525E+01  0.72259155777E+01 -0.45885829376E+01  0.11645725401E+02  0.00000000000E+00 0.  1.
<mgrwt>
<rscale>  0 0.16459299E+04</rscale>
<asrwt>0</asrwt>
<pdfrwt beam="1">  1        1 0.88893364E-01 0.16459299E+04</pdfrwt>
<pdfrwt beam="2">  1       -4 0.18032942E+00 0.16459299E+04</pdfrwt>
<totfact> 0.29642060E+00</totfact>
</mgrwt>
</event>
<event>
12    5  0.5197392E-008  0.1699334E+04  0.7818608E-02  0.8761744E-01
          1   -1    0    0  501    0  0.00000000000E+00  0.00000000000E+00  0.18228990325E+04  0.18228990325E+04  0.00000000000E+00 0. -1.
         -2   -1    0    0    0  501 -0.00000000000E+00 -0.00000000000E+00 -0.39603619255E+03  0.39603619255E+03  0.00000000000E+00 0.  1.
        -24    2    1    2    0    0  0.79436092461E+01 -0.85262868594E+02 -0.27258373902E+03  0.29648223783E+03  0.79164164138E+02 0.  0.
        254    2    1    2    0    0 -0.79436092461E+01  0.85262868594E+02  0.16994465789E+04  0.19224529872E+04  0.89463621414E+03 0.  0.
         23    2    4    4    0    0 -0.33465789246E+03 -0.22406050036E+03  0.57336754152E+03  0.70625944262E+03  0.88617435178E+02 0.  0.
         23    2    4    4    0    0  0.32671428321E+03  0.30932336896E+03  0.11260790374E+04  0.12161935446E+04  0.93003064069E+02 0.  0.
          1    1    3    3  502    0  0.33428809974E+02 -0.46803037617E+02 -0.80502490659E+02  0.98937660518E+02  0.00000000000E+00 0. -1.
         -2    1    3    3    0  502 -0.25485200727E+02 -0.38459830977E+02 -0.19208124836E+03  0.19754457731E+03  0.00000000000E+00 0.  1.
         13    1    5    5    0    0 -0.27137408781E+03 -0.19059208058E+03  0.52091003881E+03  0.61750830379E+03  0.00000000000E+00 0.  1.
        -13    1    5    5    0    0 -0.63283804649E+02 -0.33468419785E+02  0.52457502704E+02  0.88751138831E+02  0.00000000000E+00 0. -1.
          4    1    6    6  503    0  0.93007087051E+02  0.13871503275E+03  0.34654076216E+03  0.38468516788E+03  0.00000000000E+00 0. -1.
         -4    1    6    6    0  503  0.23370719616E+03  0.17060833621E+03  0.77953827525E+03  0.83150837668E+03  0.00000000000E+00 0.  1.
<mgrwt>
<rscale>  0 0.16993340E+04</rscale>
<asrwt>0</asrwt>
<pdfrwt beam="1">  1        1 0.28044600E+00 0.16993340E+04</pdfrwt>
<pdfrwt beam="2">  1       -2 0.60928646E-01 0.16993340E+04</pdfrwt>
<totfact> 0.82327223E+00</totfact>
</mgrwt>
</event>
<event>
12    5  0.5197392E-008  0.2315144E+04  0.7818608E-02  0.8471974E-01
          1   -1    0    0  501    0  0.00000000000E+00  0.00000000000E+00  0.29541767443E+04  0.29541767443E+04  0.00000000000E+00 0. -1.
         -2   -1    0    0    0  501 -0.00000000000E+00 -0.00000000000E+00 -0.45358607622E+03  0.45358607622E+03  0.00000000000E+00 0.  1.
        -24    2    1    2    0    0 -0.78937384276E+03  0.54524477033E+03  0.13791409310E+04  0.16819469264E+04  0.80702123165E+02 0.  0.
        254    2    1    2    0    0  0.78937384276E+03 -0.54524477033E+03  0.11214497371E+04  0.17258158941E+04  0.89464409916E+03 0.  0.
         23    2    4    4    0    0  0.53982811346E+03  0.14142212749E+03  0.38455967626E+03  0.68408491308E+03  0.93120424591E+02 0.  0.
         23    2    4    4    0    0  0.24954572929E+03 -0.68666689782E+03  0.73689006085E+03  0.10417309810E+04  0.91716821813E+02 0.  0.
          3    1    3    3  502    0 -0.91438812020E+01 -0.35241710742E+00  0.56783284443E+01  0.10769316375E+02  0.00000000000E+00 0. -1.
         -4    1    3    3    0  502 -0.78022996155E+03  0.54559718744E+03  0.13734626025E+04  0.16711776101E+04  0.00000000000E+00 0.  1.
         13    1    5    5    0    0  0.72509490785E+02  0.21392615756E+02  0.94883856080E+02  0.12131865647E+03  0.00000000000E+00 0. -1.
        -13    1    5    5    0    0  0.46731862268E+03  0.12002951173E+03  0.28967582018E+03  0.56276625662E+03  0.00000000000E+00 0.  1.
          1    1    6    6  503    0  0.71927305860E+02 -0.10760310751E+03  0.10768885393E+03  0.16837118321E+03  0.00000000000E+00 0. -1.
         -1    1    6    6    0  503  0.17761842343E+03 -0.57906379031E+03  0.62920120693E+03  0.87335979779E+03  0.00000000000E+00 0.  1.
<mgrwt>
<rscale>  0 0.23151444E+04</rscale>
<asrwt>0</asrwt>
<pdfrwt beam="1">  1        1 0.45448872E+00 0.23151444E+04</pdfrwt>
<pdfrwt beam="2">  1       -2 0.69782475E-01 0.23151444E+04</pdfrwt>
<totfact> 0.95901275E-01</totfact>
</mgrwt>
</event>
<event>
12    5  0.5197392E-008  0.1705297E+04  0.7818608E-02  0.8758349E-01
         -2   -1    0    0    0  501 -0.00000000000E+00  0.00000000000E+00  0.10664067835E+04  0.10664067835E+04  0.00000000000E+00 0.  1.
          1   -1    0    0  501    0  0.00000000000E+00 -0.00000000000E+00 -0.68173779203E+03  0.68173779203E+03  0.00000000000E+00 0. -1.
        -24    2    1    2    0    0  0.69813086246E+02 -0.20183052149E+03 -0.44918643403E+03  0.50300526773E+03  0.75076097600E+02 0.  0.
        254    2    1    2    0    0 -0.69813086246E+02  0.20183052149E+03  0.83385542555E+03  0.12451393078E+04  0.89969305811E+03 0.  0.
         23    2    4    4    0    0  0.14864582855E+03 -0.39014913452E+02 -0.13193271443E+03  0.22223961163E+03  0.91468344388E+02 0.  0.
         23    2    4    4    0    0 -0.21845891479E+03  0.24084543494E+03  0.96578813998E+03  0.10228996962E+04  0.88578982911E+02 0.  0.
          3    1    3    3  502    0  0.64408321556E+02 -0.18280160642E+03 -0.44078301086E+03  0.48151274319E+03  0.00000000000E+00 0. -1.
         -4    1    3    3    0  502  0.54047646896E+01 -0.19028915065E+02 -0.84034231727E+01  0.21492524536E+02  0.00000000000E+00 0.  1.
         13    1    5    5    0    0  0.85958578240E+02 -0.48190965867E+02 -0.12400014751E+03  0.15838965543E+03  0.00000000000E+00 0. -1.
        -13    1    5    5    0    0  0.62687250306E+02  0.91760524149E+01 -0.79325669178E+01  0.63849956200E+02  0.00000000000E+00 0.  1.
          4    1    6    6  503    0 -0.11712456627E+03  0.64791329875E+02  0.38988158595E+03  0.41221806306E+03  0.00000000000E+00 0.  1.
         -4    1    6    6    0  503 -0.10133434852E+03  0.17605410506E+03  0.57590655403E+03  0.61068163315E+03  0.00000000000E+00 0. -1.
<mgrwt>
<rscale>  0 0.17052974E+04</rscale>
<asrwt>0</asrwt>
<pdfrwt beam="1">  1        1 0.10488274E+00 0.17052974E+04</pdfrwt>
<pdfrwt beam="2">  1       -2 0.16406258E+00 0.17052974E+04</pdfrwt>
<totfact> 0.55508364E+00</totfact>
</mgrwt>
</event>
<event>
12    5  0.5197392E-008  0.1645754E+04  0.7818608E-02  0.8792922E-01
          3   -1    0    0  501    0  0.00000000000E+00  0.00000000000E+00  0.14222481892E+04  0.14222481892E+04  0.00000000000E+00 0. -1.
         -4   -1    0    0    0  501 -0.00000000000E+00 -0.00000000000E+00 -0.47609582980E+03  0.47609582980E+03  0.00000000000E+00 0.  1.
        -24    2    1    2    0    0 -0.41637585303E+03 -0.10838351757E+03 -0.10189713002E+03  0.44934548516E+03  0.80078099793E+02 0.  0.
        254    2    1    2    0    0  0.41637585303E+03  0.10838351757E+03  0.10480494894E+04  0.14489985338E+04  0.90336768865E+03 0.  0.
         23    2    4    4    0    0  0.58308691170E+03 -0.12945404983E+03  0.95978882650E+03  0.11340465248E+04  0.90101228044E+02 0.  0.
         23    2    4    4    0    0 -0.16671105868E+03  0.23783756739E+03  0.88260662937E+02  0.31495200905E+03  0.83937702104E+02 0.  0.
          1    1    3    3  502    0 -0.16689461515E+03 -0.83389422983E+02 -0.52261854429E+02  0.19374960609E+03  0.00000000000E+00 0. -1.
         -2    1    3    3    0  502 -0.24948123788E+03 -0.24994094585E+02 -0.49635275595E+02  0.25559587907E+03  0.00000000000E+00 0.  1.
         13    1    5    5    0    0  0.33398958997E+03 -0.68394801739E+02  0.46316685822E+03  0.57510906241E+03  0.00000000000E+00 0.  1.
        -13    1    5    5    0    0  0.24909732174E+03 -0.61059248088E+02  0.49662196828E+03  0.55893746238E+03  0.00000000000E+00 0. -1.
          4    1    6    6  503    0 -0.12417188193E+03  0.22411055623E+03  0.63958462031E+02  0.26407363091E+03  0.00000000000E+00 0. -1.
         -4    1    6    6    0  503 -0.42539176744E+02  0.13727011166E+02  0.24302200906E+02  0.50878378143E+02  0.00000000000E+00 0.  1.
<mgrwt>
<rscale>  0 0.16457538E+04</rscale>
<asrwt>0</asrwt>
<pdfrwt beam="1">  1        3 0.21880741E+00 0.16457538E+04</pdfrwt>
<pdfrwt beam="2">  1       -4 0.73245513E-01 0.16457538E+04</pdfrwt>
<totfact> 0.41827159E-01</totfact>
</mgrwt>
</event>
<event>
12    5  0.5197392E-008  0.1878726E+04  0.7818608E-02  0.8665519E-01
         -2   -1    0    0    0  501 -0.00000000000E+00  0.00000000000E+00  0.59591823844E+03  0.59591823844E+03  0.00000000000E+00 0.  1.
          1   -1    0    0  501    0  0.00000000000E+00 -0.00000000000E+00 -0.14807449489E+04  0.14807449489E+04  0.00000000000E+00 0. -1.
        -24    2    1    2    0    0  0.51416335206E+03 -0.26672513145E+03  0.11873771479E+03  0.59651253646E+03  0.78881638499E+02 0.  0.
        254    2    1    2    0    0 -0.51416335206E+03  0.26672513145E+03 -0.10035644253E+04  0.14801506509E+04  0.92097673441E+03 0.  0.
         23    2    4    4    0    0 -0.62745804971E+03 -0.11162637697E+03 -0.80239851610E+03  0.10287453647E+04  0.91156977733E+02 0.  0.
         23    2    4    4    0    0  0.11329469765E+03  0.37835150843E+03 -0.20116590916E+03  0.45140528618E+03  0.85518751990E+02 0.  0.
          1    1    3    3  502    0  0.25136287040E+03 -0.13110375424E+03  0.17905563773E+02  0.28406354255E+03  0.00000000000E+00 0. -1.
         -2    1    3    3    0  502  0.26280048166E+03 -0.13562137721E+03  0.10083215102E+03  0.31244899391E+03  0.00000000000E+00 0.  1.
         13    1    5    5    0    0 -0.23800897413E+03 -0.84063555940E+02 -0.28797192985E+03  0.38293966312E+03  0.00000000000E+00 0.  1.
        -13    1    5    5    0    0 -0.38944907557E+03 -0.27562821034E+02 -0.51442658624E+03  0.64580570159E+03  0.00000000000E+00 0. -1.
          1    1    6    6  503    0  0.13838360854E+02  0.34149503050E+02  0.63125916481E+01  0.37383654222E+02  0.00000000000E+00 0. -1.
         -1    1    6    6    0  503  0.99456336795E+02  0.34420200538E+03 -0.20747850081E+03  0.41402163196E+03  0.00000000000E+00 0.  1.
<mgrwt>
<rscale>  0 0.18787261E+04</rscale>
<asrwt>0</asrwt>
<pdfrwt beam="1">  1        1 0.22780692E+00 0.18787261E+04</pdfrwt>
<pdfrwt beam="2">  1       -2 0.91679729E-01 0.18787261E+04</pdfrwt>
<totfact> 0.56190043E+00</totfact>
</mgrwt>
</event>
<event>
12    5  0.5197392E-008  0.2152097E+04  0.7818608E-02  0.8538635E-01
         -2   -1    0    0    0  501 -0.00000000000E+00  0.00000000000E+00  0.62013644147E+03  0.62013644147E+03  0.00000000000E+00 0.  1.
          1   -1    0    0  501    0  0.00000000000E+00 -0.00000000000E+00 -0.18671372993E+04  0.18671372993E+04  0.00000000000E+00 0. -1.
        -24    2    1    2    0    0 -0.87659191775E+02  0.10586886489E+03  0.50113073812E+03  0.52580445070E+03  0.80286693980E+02 0.  0.
        254    2    1    2    0    0  0.87659191775E+02 -0.10586886489E+03 -0.17481315959E+04  0.19614692901E+04  0.87892283433E+03 0.  0.
         23    2    4    4    0    0 -0.22780211516E+03  0.21107767741E+03 -0.29256591173E+03  0.43597957092E+03  0.89642534400E+02 0.  0.
         23    2    4    4    0    0  0.31546130694E+03 -0.31694654230E+03 -0.14555656842E+04  0.15254897192E+04  0.92067775817E+02 0.  0.
          3    1    3    3  502    0 -0.48720194088E+02  0.72359646388E+02  0.17376213400E+03  0.19442956295E+03  0.00000000000E+00 0. -1.
         -4    1    3    3    0  502 -0.38938997686E+02  0.33509218499E+02  0.32736860412E+03  0.33137488775E+03  0.00000000000E+00 0.  1.
         13    1    5    5    0    0 -0.20612531170E+02  0.67494220570E+02 -0.53411267127E+02  0.88504856972E+02  0.00000000000E+00 0.  1.
        -13    1    5    5    0    0 -0.20718958399E+03  0.14358345684E+03 -0.23915464461E+03  0.34747471394E+03  0.00000000000E+00 0. -1.
          3    1    6    6  503    0  0.25424676430E+03 -0.21588860615E+03 -0.11654081240E+04  0.12121985823E+04  0.00000000000E+00 0. -1.
         -3    1    6    6    0  503  0.61214542637E+02 -0.10105793615E+03 -0.29015756016E+03  0.31329113681E+03  0.00000000000E+00 0.  1.
<mgrwt>
<rscale>  0 0.21520965E+04</rscale>
<asrwt>0</asrwt>
<pdfrwt beam="1">  1        1 0.28725189E+00 0.21520965E+04</pdfrwt>
<pdfrwt beam="2">  1       -2 0.95405608E-01 0.21520965E+04</pdfrwt>
<totfact> 0.27212968E+00</totfact>
</mgrwt>
</event>
<event>
12    5  0.5197392E-008  0.1283737E+04  0.7818608E-02  0.9042562E-01
         -2   -1    0    0    0  501 -0.00000000000E+00  0.00000000000E+00  0.14331385296E+04  0.14331385296E+04  0.00000000000E+00 0.  1.
          1   -1    0    0  501    0  0.00000000000E+00 -0.00000000000E+00 -0.28747765171E+03  0.28747765171E+03  0.00000000000E+00 0. -1.
        -24    2    1    2    0    0  0.69234836781E+02  0.10764447984E+03  0.67582819481E+03  0.69250158700E+03  0.80211610357E+02 0.  0.
        254    2    1    2    0    0 -0.69234836781E+02 -0.10764447984E+03  0.46983268310E+03  0.10281145943E+04  0.90548112751E+03 0.  0.
         23    2    4    4    0    0 -0.24473612219E+03 -0.70560358637E+02 -0.19543684429E+03  0.33355762387E+03  0.90501903988E+02 0.  0.
         23    2    4    4    0    0  0.17550128541E+03 -0.37084121207E+02  0.66526952738E+03  0.69455697045E+03  0.87463751951E+02 0.  0.
          1    1    3    3  502    0 -0.10417365769E+02  0.19429757130E+02  0.40121379794E+02  0.45779494190E+02  0.00000000000E+00 0. -1.
         -2    1    3    3    0  502  0.79652202550E+02  0.88214722714E+02  0.63570681502E+03  0.64672209281E+03  0.00000000000E+00 0.  1.
         13    1    5    5    0    0 -0.11138453262E+02 -0.19630528182E+02  0.31056266046E+01  0.22783057178E+02  0.00000000000E+00 0. -1.
        -13    1    5    5    0    0 -0.23359766892E+03 -0.50929830455E+02 -0.19854247089E+03  0.31077456669E+03  0.00000000000E+00 0.  1.
          2    1    6    6  503    0  0.97708132994E+01 -0.48032418466E+01  0.32753012094E+01  0.11369587626E+02  0.00000000000E+00 0. -1.
         -2    1    6    6    0  503  0.16573047211E+03 -0.32280879360E+02  0.66199422617E+03  0.68318738282E+03  0.00000000000E+00 0.  1.
<mgrwt>
<rscale>  0 0.12837372E+04</rscale>
<asrwt>0</asrwt>
<pdfrwt beam="1">  1        1 0.44227332E-01 0.12837372E+04</pdfrwt>
<pdfrwt beam="2">  1       -2 0.22048285E+00 0.12837372E+04</pdfrwt>
<totfact> 0.78106422E+00</totfact>
</mgrwt>
</event>
<event>
12    5  0.5197392E-008  0.1906703E+04  0.7818608E-02  0.8651527E-01
         -2   -1    0    0    0  501 -0.00000000000E+00  0.00000000000E+00  0.61193470151E+03  0.61193470151E+03  0.00000000000E+00 0.  1.
          1   -1    0    0  501    0  0.00000000000E+00 -0.00000000000E+00 -0.14852544798E+04  0.14852544798E+04  0.00000000000E+00 0. -1.
        -24    2    1    2    0    0 -0.28412937553E+03  0.12345961676E+03  0.39787208191E+03  0.51113438570E+03  0.83572649042E+02 0.  0.
        254    2    1    2    0    0  0.28412937553E+03 -0.12345961676E+03 -0.12711918602E+04  0.15860547956E+04  0.89647603997E+03 0.  0.
         23    2    4    4    0    0  0.52899883759E+03  0.87917960057E+02 -0.47691713807E+03  0.72346722941E+03  0.91572580821E+02 0.  0.
         23    2    4    4    0    0 -0.24486946206E+03 -0.21137757682E+03 -0.79427472213E+03  0.86258756621E+03  0.92430740263E+02 0.  0.
          3    1    3    3  502    0 -0.69578291430E+01  0.17986755449E+02  0.52380302038E+02  0.55817835855E+02  0.00000000000E+00 0. -1.
         -4    1    3    3    0  502 -0.27717154639E+03  0.10547286131E+03  0.34549177987E+03  0.45531654984E+03  0.00000000000E+00 0.  1.
         13    1    5    5    0    0  0.48080368633E+03  0.87857756659E+02 -0.39499762283E+03  0.62842206536E+03  0.00000000000E+00 0.  1.
        -13    1    5    5    0    0  0.48195151263E+02  0.60203397146E-01 -0.81919515247E+02  0.95045164043E+02  0.00000000000E+00 0. -1.
          3    1    6    6  503    0 -0.60301197174E+02 -0.19090815299E+02 -0.22988547803E+03  0.23842824207E+03  0.00000000000E+00 0. -1.
         -3    1    6    6    0  503 -0.18456826488E+03 -0.19228676152E+03 -0.56438924410E+03  0.62415932414E+03  0.00000000000E+00 0.  1.
<mgrwt>
<rscale>  0 0.19067027E+04</rscale>
<asrwt>0</asrwt>
<pdfrwt beam="1">  1        1 0.22850068E+00 0.19067027E+04</pdfrwt>
<pdfrwt beam="2">  1       -2 0.94143802E-01 0.19067027E+04</pdfrwt>
<totfact> 0.52324225E+00</totfact>
</mgrwt>
</event>
<event>
12    5  0.5197392E-008  0.1638564E+04  0.7818608E-02  0.8797201E-01
          1   -1    0    0  501    0  0.00000000000E+00  0.00000000000E+00  0.11616048420E+04  0.11616048420E+04  0.00000000000E+00 0. -1.
         -2   -1    0    0    0  501 -0.00000000000E+00 -0.00000000000E+00 -0.57784075380E+03  0.57784075380E+03  0.00000000000E+00 0.  1.
        -24    2    1    2    0    0  0.21886381062E+03 -0.37762057638E+03  0.58733885478E+03  0.73603656348E+03  0.79273104789E+02 0.  0.
        254    2    1    2    0    0 -0.21886381062E+03  0.37762057638E+03 -0.35747665744E+01  0.10034090323E+04  0.90350331483E+03 0.  0.
         23    2    4    4    0    0  0.34207654322E+03  0.15295407363E+03 -0.49160504631E+02  0.38911417858E+03  0.92637890161E+02 0.  0.
         23    2    4    4    0    0 -0.56094035384E+03  0.22466650275E+03  0.45585738057E+02  0.61429485376E+03  0.10075212067E+03 0.  0.
          1    1    3    3  502    0  0.22002269109E+03 -0.38044319041E+03  0.58646428555E+03  0.73286244545E+03  0.00000000000E+00 0. -1.
         -2    1    3    3    0  502 -0.11588804722E+01  0.28226140351E+01  0.87456923423E+00  0.31741180327E+01  0.00000000000E+00 0.  1.
         13    1    5    5    0    0  0.27046978726E+02 -0.37028150116E+01 -0.24060623006E+02  0.36389057100E+02  0.00000000000E+00 0. -1.
        -13    1    5    5    0    0  0.31502956449E+03  0.15665688864E+03 -0.25099881625E+02  0.35272512148E+03  0.00000000000E+00 0.  1.
          2    1    6    6  503    0 -0.21439910695E+03  0.79061668329E+02  0.66002555274E+02  0.23785302555E+03  0.00000000000E+00 0. -1.
         -2    1    6    6    0  503 -0.34654124689E+03  0.14560483442E+03 -0.20416817217E+02  0.37644182821E+03  0.00000000000E+00 0.  1.
<mgrwt>
<rscale>  0 0.16385635E+04</rscale>
<asrwt>0</asrwt>
<pdfrwt beam="1">  1        1 0.17870844E+00 0.16385635E+04</pdfrwt>
<pdfrwt beam="2">  1       -2 0.88898578E-01 0.16385635E+04</pdfrwt>
<totfact> 0.10401341E+01</totfact>
</mgrwt>
</event>
<event>
12    5  0.5197392E-008  0.2067381E+04  0.7818608E-02  0.8575750E-01
         -2   -1    0    0    0  501 -0.00000000000E+00  0.00000000000E+00  0.10628402347E+04  0.10628402347E+04  0.00000000000E+00 0.  1.
          1   -1    0    0  501    0  0.00000000000E+00 -0.00000000000E+00 -0.10053398048E+04  0.10053398048E+04  0.00000000000E+00 0. -1.
        -24    2    1    2    0    0  0.42021539716E+03  0.62971963463E+03 -0.31334320812E+03  0.82297489913E+03  0.77304076701E+02 0.  0.
        254    2    1    2    0    0 -0.42021539716E+03 -0.62971963463E+03  0.37084363810E+03  0.12452051404E+04  0.91645132954E+03 0.  0.
         23    2    4    4    0    0 -0.26455706378E+03  0.19187461196E+03  0.18240074031E+03  0.38312564503E+03  0.81908016111E+02 0.  0.
         23    2    4    4    0    0 -0.15565833338E+03 -0.82159424659E+03  0.18844289779E+03  0.86207949533E+03  0.91780759184E+02 0.  0.
          1    1    3    3  502    0  0.33125982045E+03  0.51736244599E+03 -0.22290651808E+03  0.65351685898E+03  0.00000000000E+00 0. -1.
         -2    1    3    3    0  502  0.88955576719E+02  0.11235718864E+03 -0.90436690038E+02  0.16945804015E+03  0.00000000000E+00 0.  1.
         13    1    5    5    0    0 -0.17094757681E+02  0.47346178144E+02  0.26439912569E+02  0.56859126811E+02  0.00000000000E+00 0.  1.
        -13    1    5    5    0    0 -0.24746230610E+03  0.14452843382E+03  0.15596082774E+03  0.32626651822E+03  0.00000000000E+00 0. -1.
          3    1    6    6  503    0 -0.28375791028E+02 -0.38356885862E+03  0.10057981831E+03  0.39755069446E+03  0.00000000000E+00 0. -1.
         -3    1    6    6    0  503 -0.12728254235E+03 -0.43802538797E+03  0.87863079482E+02  0.46452880086E+03  0.00000000000E+00 0.  1.
<mgrwt>
<rscale>  0 0.20673806E+04</rscale>
<asrwt>0</asrwt>
<pdfrwt beam="1">  1        1 0.15466766E+00 0.20673806E+04</pdfrwt>
<pdfrwt beam="2">  1       -2 0.16351388E+00 0.20673806E+04</pdfrwt>
<totfact> 0.28757570E+00</totfact>
</mgrwt>
</event>
<event>
12    5  0.5197392E-008  0.1860423E+04  0.7818608E-02  0.8674811E-01
         -2   -1    0    0    0  501 -0.00000000000E+00  0.00000000000E+00  0.92996081423E+03  0.92996081423E+03  0.00000000000E+00 0.  1.
          1   -1    0    0  501    0  0.00000000000E+00 -0.00000000000E+00 -0.93046252230E+03  0.93046252230E+03  0.00000000000E+00 0. -1.
        -24    2    1    2    0    0 -0.12147427440E+03  0.63208928037E+03 -0.29740576526E+03  0.71343615176E+03  0.79044896926E+02 0.  0.
        254    2    1    2    0    0  0.12147427440E+03 -0.63208928037E+03  0.29690405718E+03  0.11469871848E+04  0.90173983230E+03 0.  0.
         23    2    4    4    0    0  0.25875722287E+03 -0.75193497251E+03  0.42599183299E+03  0.90655787767E+03  0.89535694103E+02 0.  0.
         23    2    4    4    0    0 -0.13728294847E+03  0.11984569214E+03 -0.12908777580E+03  0.24042930711E+03  0.89067390144E+02 0.  0.
          3    1    3    3  502    0 -0.11930532429E+03  0.62876686120E+03 -0.30174770208E+03  0.70755438085E+03  0.00000000000E+00 0. -1.
         -4    1    3    3    0  502 -0.21689501061E+01  0.33224191646E+01  0.43419368191E+01  0.58817709075E+01  0.00000000000E+00 0.  1.
         13    1    5    5    0    0  0.15636316309E+03 -0.31830305342E+03  0.18408870199E+03  0.39956842066E+03  0.00000000000E+00 0. -1.
        -13    1    5    5    0    0  0.10239405978E+03 -0.43363191909E+03  0.24190313099E+03  0.50698945701E+03  0.00000000000E+00 0.  1.
          3    1    6    6  503    0 -0.31697005375E+02  0.41511712419E+01 -0.62559575249E+02  0.70254059155E+02  0.00000000000E+00 0. -1.
         -3    1    6    6    0  503 -0.10558594310E+03  0.11569452090E+03 -0.66528200555E+02  0.17017524795E+03  0.00000000000E+00 0.  1.
<mgrwt>
<rscale>  0 0.18604233E+04</rscale>
<asrwt>0</asrwt>
<pdfrwt beam="1">  1        1 0.14314808E+00 0.18604233E+04</pdfrwt>
<pdfrwt beam="2">  1       -2 0.14307089E+00 0.18604233E+04</pdfrwt>
<totfact> 0.47981846E+00</totfact>
</mgrwt>
</event>
<event>
12    5  0.5197392E-008  0.1706798E+04  0.7818608E-02  0.8757497E-01
          1   -1    0    0  501    0  0.00000000000E+00  0.00000000000E+00  0.28233543250E+04  0.28233543250E+04  0.00000000000E+00 0. -1.
         -2   -1    0    0    0  501 -0.00000000000E+00 -0.00000000000E+00 -0.25795188849E+03  0.25795188849E+03  0.00000000000E+00 0.  1.
        -24    2    1    2    0    0  0.29040124074E+03 -0.46143932011E+03  0.43894955278E+03  0.70431306469E+03  0.78237180675E+02 0.  0.
        254    2    1    2    0    0 -0.29040124074E+03  0.46143932011E+03  0.21264528837E+04  0.23769931488E+04  0.91161145011E+03 0.  0.
         23    2    4    4    0    0  0.13505767763E+02 -0.17321382200E+03  0.82061538008E+02  0.21279876999E+03  0.91453740198E+02 0.  0.
         23    2    4    4    0    0 -0.30390700850E+03  0.63465314211E+03  0.20443913457E+04  0.21641943788E+04  0.95169607683E+02 0.  0.
          3    1    3    3  502    0  0.10387279725E+03 -0.12108870750E+03  0.16313361675E+03  0.22817670785E+03  0.00000000000E+00 0. -1.
         -4    1    3    3    0  502  0.18652844349E+03 -0.34035061261E+03  0.27581593603E+03  0.47613635684E+03  0.00000000000E+00 0.  1.
         13    1    5    5    0    0  0.61095156471E+01 -0.13917573653E+03  0.18787841013E+02  0.14057095998E+03  0.00000000000E+00 0.  1.
        -13    1    5    5    0    0  0.73962521156E+01 -0.34038085467E+02  0.63273696995E+02  0.72227810011E+02  0.00000000000E+00 0. -1.
          2    1    6    6  503    0 -0.11762653596E+02  0.10099502676E+03  0.29058361297E+03  0.30785904498E+03  0.00000000000E+00 0. -1.
         -2    1    6    6    0  503 -0.29214435490E+03  0.53365811535E+03  0.17538077327E+04  0.18563353338E+04  0.00000000000E+00 0.  1.
<mgrwt>
<rscale>  0 0.17067977E+04</rscale>
<asrwt>0</asrwt>
<pdfrwt beam="1">  1        1 0.43436218E+00 0.17067977E+04</pdfrwt>
<pdfrwt beam="2">  1       -2 0.39684908E-01 0.17067977E+04</pdfrwt>
<totfact> 0.40355372E+00</totfact>
</mgrwt>
</event>
<event>
12    5  0.5197392E-008  0.1074588E+04  0.7818608E-02  0.9230320E-01
          1   -1    0    0  501    0  0.00000000000E+00  0.00000000000E+00  0.49626730628E+03  0.49626730628E+03  0.00000000000E+00 0. -1.
         -2   -1    0    0    0  501 -0.00000000000E+00 -0.00000000000E+00 -0.58171276071E+03  0.58171276071E+03  0.00000000000E+00 0.  1.
        -24    2    1    2    0    0  0.47616998567E+02 -0.47304934281E+02  0.11070112694E+03  0.15439515830E+03  0.84130791267E+02 0.  0.
        254    2    1    2    0    0 -0.47616998567E+02  0.47304934281E+02 -0.19614658137E+03  0.92358490869E+03  0.90001692585E+03 0.  0.
         23    2    4    4    0    0  0.40594226041E+03  0.82486437003E+02 -0.17447329931E+03  0.45860836055E+03  0.91036064911E+02 0.  0.
         23    2    4    4    0    0 -0.45355925898E+03 -0.35181502722E+02 -0.21673282060E+02  0.46497654815E+03  0.93700158128E+02 0.  0.
          3    1    3    3  502    0  0.34880924769E+02 -0.68296458599E+02  0.10348615824E+03  0.12880399884E+03  0.00000000000E+00 0. -1.
         -4    1    3    3    0  502  0.12736073798E+02  0.20991524318E+02  0.72149687025E+01  0.25591159457E+02  0.00000000000E+00 0.  1.
         13    1    5    5    0    0  0.18941942026E+03  0.49939369448E+02 -0.13022138193E+03  0.23522598858E+03  0.00000000000E+00 0.  1.
        -13    1    5    5    0    0  0.21652284015E+03  0.32547067555E+02 -0.44251917383E+02  0.22338237196E+03  0.00000000000E+00 0. -1.
          4    1    6    6  503    0 -0.87583927258E+02  0.30210406284E+02 -0.15479001708E+01  0.92660719599E+02  0.00000000000E+00 0. -1.
         -4    1    6    6    0  503 -0.36597533172E+03 -0.65391909006E+02 -0.20125381889E+02  0.37231582855E+03  0.00000000000E+00 0.  1.
<mgrwt>
<rscale>  0 0.10745883E+04</rscale>
<asrwt>0</asrwt>
<pdfrwt beam="1">  1        1 0.76348817E-01 0.10745883E+04</pdfrwt>
<pdfrwt beam="2">  1       -2 0.89494271E-01 0.10745883E+04</pdfrwt>
<totfact> 0.41867568E+01</totfact>
</mgrwt>
</event>
<event>
12    5  0.5197392E-008  0.1502879E+04  0.7818608E-02  0.8882541E-01
         -2   -1    0    0    0  501 -0.00000000000E+00  0.00000000000E+00  0.72327045762E+03  0.72327045762E+03  0.00000000000E+00 0.  1.
          1   -1    0    0  501    0  0.00000000000E+00 -0.00000000000E+00 -0.78070555034E+03  0.78070555034E+03  0.00000000000E+00 0. -1.
        -24    2    1    2    0    0 -0.17455988871E+03  0.39553260000E+03 -0.22091944611E+03  0.49075928574E+03  0.71568725436E+02 0.  0.
        254    2    1    2    0    0  0.17455988871E+03 -0.39553260000E+03  0.16348435339E+03  0.10132167222E+04  0.90164505211E+03 0.  0.
         23    2    4    4    0    0 -0.13758495754E+03 -0.25371143665E+03  0.46028820594E+03  0.55101594227E+03  0.91946845975E+02 0.  0.
         23    2    4    4    0    0  0.31214484625E+03 -0.14182116335E+03 -0.29680385255E+03  0.46220077995E+03  0.89383369175E+02 0.  0.
          3    1    3    3  502    0 -0.17871204162E+03  0.39125635647E+03 -0.21080214011E+03  0.47901677693E+03  0.00000000000E+00 0. -1.
         -4    1    3    3    0  502  0.41521529183E+01  0.42762435292E+01 -0.10117305995E+02  0.11742508811E+02  0.00000000000E+00 0.  1.
         13    1    5    5    0    0 -0.93638176688E+00 -0.57519068959E+02  0.13977145359E+03  0.15114688004E+03  0.00000000000E+00 0.  1.
        -13    1    5    5    0    0 -0.13664857578E+03 -0.19619236769E+03  0.32051675234E+03  0.39986906224E+03  0.00000000000E+00 0. -1.
          2    1    6    6  503    0  0.29554841730E+03 -0.12356071264E+03 -0.29797304767E+03  0.43749749006E+03  0.00000000000E+00 0. -1.
         -2    1    6    6    0  503  0.16596428947E+02 -0.18260450716E+02  0.11691951134E+01  0.24703289889E+02  0.00000000000E+00 0.  1.
<mgrwt>
<rscale>  0 0.15028789E+04</rscale>
<asrwt>0</asrwt>
<pdfrwt beam="1">  1        1 0.12010855E+00 0.15028789E+04</pdfrwt>
<pdfrwt beam="2">  1       -2 0.11127238E+00 0.15028789E+04</pdfrwt>
<totfact> 0.12443289E+01</totfact>
</mgrwt>
</event>
<event>
12    5  0.5197392E-008  0.1486368E+04  0.7818608E-02  0.8893569E-01
         -2   -1    0    0    0  501 -0.00000000000E+00  0.00000000000E+00  0.40131392155E+03  0.40131392155E+03  0.00000000000E+00 0.  1.
          1   -1    0    0  501    0  0.00000000000E+00 -0.00000000000E+00 -0.13762858595E+04  0.13762858595E+04  0.00000000000E+00 0. -1.
        -24    2    1    2    0    0  0.46842935138E+03  0.93493506359E+01 -0.35311889018E+03  0.59238277448E+03  0.81920286371E+02 0.  0.
        254    2    1    2    0    0 -0.46842935138E+03 -0.93493506359E+01 -0.62185304777E+03  0.11852170066E+04  0.89360207700E+03 0.  0.
         23    2    4    4    0    0  0.24736758388E+03 -0.20881852209E+01 -0.61603649042E+02  0.27152931126E+03  0.93477672350E+02 0.  0.
         23    2    4    4    0    0 -0.71579693525E+03 -0.72611654150E+01 -0.56024939873E+03  0.91368769530E+03  0.92346297844E+02 0.  0.
          3    1    3    3  502    0  0.35343973381E+03  0.75900583460E+01 -0.30790843031E+03  0.46881217548E+03  0.00000000000E+00 0. -1.
         -4    1    3    3    0  502  0.11498961757E+03  0.17592922899E+01 -0.45210459869E+02  0.12357059901E+03  0.00000000000E+00 0.  1.
         13    1    5    5    0    0  0.58731801104E+02  0.40147587027E+02 -0.16608992682E+02  0.73055539441E+02  0.00000000000E+00 0. -1.
        -13    1    5    5    0    0  0.18863578277E+03 -0.42235772248E+02 -0.44994656360E+02  0.19847377182E+03  0.00000000000E+00 0.  1.
          4    1    6    6  503    0 -0.10160534286E+03 -0.24328830410E+02 -0.54241042624E+02  0.11771842843E+03  0.00000000000E+00 0. -1.
         -4    1    6    6    0  503 -0.61419159239E+03  0.17067664995E+02 -0.50600835611E+03  0.79596926687E+03  0.00000000000E+00 0.  1.
<mgrwt>
<rscale>  0 0.14863683E+04</rscale>
<asrwt>0</asrwt>
<pdfrwt beam="1">  1        1 0.21173629E+00 0.14863683E+04</pdfrwt>
<pdfrwt beam="2">  1       -2 0.61740603E-01 0.14863683E+04</pdfrwt>
<totfact> 0.16532974E+01</totfact>
</mgrwt>
</event>
<event>
12    5  0.5197392E-008  0.3114469E+04  0.7818608E-02  0.8211778E-01
          1   -1    0    0  501    0  0.00000000000E+00  0.00000000000E+00  0.14378036438E+04  0.14378036438E+04  0.00000000000E+00 0. -1.
         -2   -1    0    0    0  501 -0.00000000000E+00 -0.00000000000E+00 -0.16865856401E+04  0.16865856401E+04  0.00000000000E+00 0.  1.
        -24    2    1    2    0    0 -0.30012001956E+02  0.69579385700E+03  0.11269853092E+04  0.13271586593E+04  0.78894918654E+02 0.  0.
        254    2    1    2    0    0  0.30012001956E+02 -0.69579385700E+03 -0.13757673055E+04  0.17972306245E+04  0.92318601972E+03 0.  0.
         23    2    4    4    0    0 -0.35686382863E+03 -0.55517814594E+03 -0.52713462839E+03  0.84964024344E+03  0.91886130135E+02 0.  0.
         23    2    4    4    0    0  0.38687583058E+03 -0.14061571106E+03 -0.84863267713E+03  0.94759038106E+03  0.91128607474E+02 0.  0.
          3    1    3    3  502    0 -0.95582113766E+01  0.62646974619E+03  0.97655732012E+03  0.11602671683E+04  0.00000000000E+00 0. -1.
         -4    1    3    3    0  502 -0.20453790580E+02  0.69324110808E+02  0.15042798909E+03  0.16689149107E+03  0.00000000000E+00 0.  1.
         13    1    5    5    0    0 -0.13005178451E+03 -0.14033014912E+03 -0.18398391542E+03  0.26543567685E+03  0.00000000000E+00 0.  1.
        -13    1    5    5    0    0 -0.22681204411E+03 -0.41484799682E+03 -0.34315071296E+03  0.58420456659E+03  0.00000000000E+00 0. -1.
          1    1    6    6  503    0  0.38528478328E+03 -0.14260897403E+03 -0.80398228361E+03  0.90286720843E+03  0.00000000000E+00 0. -1.
         -1    1    6    6    0  503  0.15910473058E+01  0.19932629694E+01 -0.44650393513E+02  0.44723172625E+02  0.00000000000E+00 0.  1.
<mgrwt>
<rscale>  0 0.31144688E+04</rscale>
<asrwt>0</asrwt>
<pdfrwt beam="1">  1        1 0.22120056E+00 0.31144688E+04</pdfrwt>
<pdfrwt beam="2">  1       -2 0.25947471E+00 0.31144688E+04</pdfrwt>
<totfact> 0.30068447E-01</totfact>
</mgrwt>
</event>
<event>
12    5  0.5197392E-008  0.1494580E+04  0.7818608E-02  0.8888065E-01
          1   -1    0    0  501    0  0.00000000000E+00  0.00000000000E+00  0.21149365506E+04  0.21149365506E+04  0.00000000000E+00 0. -1.
         -2   -1    0    0    0  501 -0.00000000000E+00 -0.00000000000E+00 -0.26404697881E+03  0.26404697881E+03  0.00000000000E+00 0.  1.
        -24    2    1    2    0    0  0.21723181588E+03  0.29390960414E+03  0.95943705348E+03  0.10297449897E+04  0.79263907440E+02 0.  0.
        254    2    1    2    0    0 -0.21723181588E+03 -0.29390960414E+03  0.89145251828E+03  0.13492385397E+04  0.94455520078E+03 0.  0.
         23    2    4    4    0    0  0.25966917451E+03  0.13015752200E+03  0.85181808603E+02  0.31647493232E+03  0.92365478103E+02 0.  0.
         23    2    4    4    0    0 -0.47690099040E+03 -0.42406712614E+03  0.80627070968E+03  0.10327636073E+04  0.96232682839E+02 0.  0.
          1    1    3    3  502    0  0.19700446739E+03  0.25229489592E+03  0.89418490712E+03  0.94975266401E+03  0.00000000000E+00 0. -1.
         -2    1    3    3    0  502  0.20227348495E+02  0.41614708220E+02  0.65252146366E+02  0.79992325712E+02  0.00000000000E+00 0.  1.
         13    1    5    5    0    0  0.53805627820E+02 -0.10714259278E+02  0.22311574736E+02  0.59225394082E+02  0.00000000000E+00 0. -1.
        -13    1    5    5    0    0  0.20586354669E+03  0.14087178128E+03  0.62870233867E+02  0.25724953824E+03  0.00000000000E+00 0.  1.
          4    1    6    6  503    0 -0.46882466651E+03 -0.42116977446E+03  0.80725228847E+03  0.10241273378E+04  0.00000000000E+00 0. -1.
         -4    1    6    6    0  503 -0.80763238818E+01 -0.28973516837E+01 -0.98157878644E+00  0.86362695151E+01  0.00000000000E+00 0.  1.
<mgrwt>
<rscale>  0 0.14945804E+04</rscale>
<asrwt>0</asrwt>
<pdfrwt beam="1">  1        1 0.32537484E+00 0.14945804E+04</pdfrwt>
<pdfrwt beam="2">  1       -2 0.40622613E-01 0.14945804E+04</pdfrwt>
<totfact> 0.12148411E+01</totfact>
</mgrwt>
</event>
<event>
12    5  0.5197392E-008  0.2453963E+04  0.7818608E-02  0.8419572E-01
          1   -1    0    0  501    0  0.00000000000E+00  0.00000000000E+00  0.10645576378E+04  0.10645576378E+04  0.00000000000E+00 0. -1.
         -2   -1    0    0    0  501 -0.00000000000E+00 -0.00000000000E+00 -0.14141870512E+04  0.14141870512E+04  0.00000000000E+00 0.  1.
        -24    2    1    2    0    0  0.98192247470E+03  0.29893635091E+03 -0.43080482006E+03  0.11159907133E+04  0.79421602112E+02 0.  0.
        254    2    1    2    0    0 -0.98192247470E+03 -0.29893635091E+03  0.81175406711E+02  0.13627539758E+04  0.89273415055E+03 0.  0.
         23    2    4    4    0    0 -0.11933590488E+03 -0.44586655433E+03 -0.51607772711E+02  0.47352213965E+03  0.92313661389E+02 0.  0.
         23    2    4    4    0    0 -0.86258656982E+03  0.14693020341E+03  0.13278317942E+03  0.88923183610E+03  0.86358615567E+02 0.  0.
          3    1    3    3  502    0  0.48551087209E+03  0.14736606152E+03 -0.16992920848E+03  0.53508270286E+03  0.00000000000E+00 0. -1.
         -4    1    3    3    0  502  0.49641160261E+03  0.15157028940E+03 -0.26087561157E+03  0.58090801040E+03  0.00000000000E+00 0.  1.
         13    1    5    5    0    0 -0.86752308864E+02 -0.38716671801E+03 -0.14993559068E+02  0.39705016993E+03  0.00000000000E+00 0. -1.
        -13    1    5    5    0    0 -0.32583596012E+02 -0.58699836313E+02 -0.36614213644E+02  0.76471969721E+02  0.00000000000E+00 0.  1.
          3    1    6    6  503    0 -0.70880909382E+03  0.14633516198E+03  0.13054983034E+03  0.73543699207E+03  0.00000000000E+00 0. -1.
         -3    1    6    6    0  503 -0.15377747600E+03  0.59504143649E+00  0.22333490823E+01  0.15379484402E+03  0.00000000000E+00 0.  1.
<mgrwt>
<rscale>  0 0.24539630E+04</rscale>
<asrwt>0</asrwt>
<pdfrwt beam="1">  1        1 0.16377810E+00 0.24539630E+04</pdfrwt>
<pdfrwt beam="2">  1       -2 0.21756724E+00 0.24539630E+04</pdfrwt>
<totfact> 0.10806854E+00</totfact>
</mgrwt>
</event>
<event>
12    5  0.5197392E-008  0.1538326E+04  0.7818608E-02  0.8859359E-01
         -2   -1    0    0    0  501 -0.00000000000E+00  0.00000000000E+00  0.82197087467E+03  0.82197087467E+03  0.00000000000E+00 0.  1.
          1   -1    0    0  501    0  0.00000000000E+00 -0.00000000000E+00 -0.71974822843E+03  0.71974822843E+03  0.00000000000E+00 0. -1.
        -24    2    1    2    0    0  0.11302040815E+03 -0.11789678643E+03 -0.44486221181E+03  0.48050478786E+03  0.79430464838E+02 0.  0.
        254    2    1    2    0    0 -0.11302040815E+03  0.11789678643E+03  0.54708485805E+03  0.10612143152E+04  0.89453938765E+03 0.  0.
         23    2    4    4    0    0  0.28017383548E+03  0.14991078063E+03 -0.56268826582E+02  0.33455909656E+03  0.88277902169E+02 0.  0.
         23    2    4    4    0    0 -0.39319424364E+03 -0.32013994195E+02  0.60335368463E+03  0.72665521868E+03  0.91463265986E+02 0.  0.
          3    1    3    3  502    0  0.12052036544E+03 -0.95917242583E+02 -0.34250832288E+03  0.37554923400E+03  0.00000000000E+00 0. -1.
         -4    1    3    3    0  502 -0.74999572894E+01 -0.21979543847E+02 -0.10235388893E+03  0.10495555386E+03  0.00000000000E+00 0.  1.
         13    1    5    5    0    0  0.21419442426E+02 -0.93955130901E+01 -0.15295461006E+02  0.27946722660E+02  0.00000000000E+00 0.  1.
        -13    1    5    5    0    0  0.25875439306E+03  0.15930629372E+03 -0.40973365575E+02  0.30661237390E+03  0.00000000000E+00 0. -1.
          3    1    6    6  503    0 -0.37469023888E+03 -0.43633826682E+02  0.53296764052E+03  0.65295573494E+03  0.00000000000E+00 0. -1.
         -3    1    6    6    0  503 -0.18504004759E+02  0.11619832487E+02  0.70386044105E+02  0.73699483742E+02  0.00000000000E+00 0.  1.
<mgrwt>
<rscale>  0 0.15383265E+04</rscale>
<asrwt>0</asrwt>
<pdfrwt beam="1">  1        1 0.11073050E+00 0.15383265E+04</pdfrwt>
<pdfrwt beam="2">  1       -2 0.12645706E+00 0.15383265E+04</pdfrwt>
<totfact> 0.10264793E+01</totfact>
</mgrwt>
</event>
<event>
12    5  0.5197392E-008  0.2993671E+04  0.7818608E-02  0.8245540E-01
          1   -1    0    0  501    0  0.00000000000E+00  0.00000000000E+00  0.27550538101E+04  0.27550538101E+04  0.00000000000E+00 0. -1.
         -2   -1    0    0    0  501 -0.00000000000E+00 -0.00000000000E+00 -0.81323884857E+03  0.81323884857E+03  0.00000000000E+00 0.  1.
        -24    2    1    2    0    0  0.27883490468E+03  0.11737605455E+04  0.16369772915E+04  0.20350512667E+04  0.79222996126E+02 0.  0.
        254    2    1    2    0    0 -0.27883490468E+03 -0.11737605455E+04  0.30483767006E+03  0.15332413920E+04  0.89579039896E+03 0.  0.
         23    2    4    4    0    0 -0.53757727181E+02 -0.11673693536E+04  0.36120833606E+02  0.11726934206E+04  0.90906782312E+02 0.  0.
         23    2    4    4    0    0 -0.22507717750E+03 -0.63911918741E+01  0.26871683646E+03  0.36054797143E+03  0.84175521049E+02 0.  0.
          1    1    3    3  502    0  0.25197227441E+03  0.92141252628E+03  0.12960320280E+04  0.16100279775E+04  0.00000000000E+00 0. -1.
         -2    1    3    3    0  502  0.26862630266E+02  0.25234801918E+03  0.34094526346E+03  0.42502328921E+03  0.00000000000E+00 0.  1.
         13    1    5    5    0    0 -0.57821569936E+02 -0.11604155023E+04  0.42170471367E+02  0.11626202392E+04  0.00000000000E+00 0. -1.
        -13    1    5    5    0    0  0.40638427554E+01 -0.69538512777E+01 -0.60496377612E+01  0.10073181353E+02  0.00000000000E+00 0.  1.
          2    1    6    6  503    0 -0.15532746050E+03 -0.27153435647E+02  0.22782901311E+03  0.27707397616E+03  0.00000000000E+00 0. -1.
         -2    1    6    6    0  503 -0.69749716999E+02  0.20762243773E+02  0.40887823347E+02  0.83473995268E+02  0.00000000000E+00 0.  1.
<mgrwt>
<rscale>  0 0.29936712E+04</rscale>
<asrwt>0</asrwt>
<pdfrwt beam="1">  1        1 0.42385443E+00 0.29936712E+04</pdfrwt>
<pdfrwt beam="2">  1       -2 0.12511367E+00 0.29936712E+04</pdfrwt>
<totfact> 0.32140078E-01</totfact>
</mgrwt>
</event>
<event>
12    5  0.5197392E-008  0.1210557E+04  0.7818608E-02  0.9103666E-01
         -2   -1    0    0    0  501 -0.00000000000E+00  0.00000000000E+00  0.26244306334E+03  0.26244306334E+03  0.00000000000E+00 0.  1.
          1   -1    0    0  501    0  0.00000000000E+00 -0.00000000000E+00 -0.13959678418E+04  0.13959678418E+04  0.00000000000E+00 0. -1.
        -24    2    1    2    0    0 -0.84461688045E+02 -0.56626524180E+02 -0.58362227299E+03  0.59792031017E+03  0.80953071634E+02 0.  0.
        254    2    1    2    0    0  0.84461688045E+02  0.56626524180E+02 -0.54990250547E+03  0.10604905950E+04  0.90105893065E+03 0.  0.
         23    2    4    4    0    0  0.26267515971E+03 -0.42373616397E+02 -0.72480302862E+03  0.77721234196E+03  0.89027137954E+02 0.  0.
         23    2    4    4    0    0 -0.17821347167E+03  0.99000140577E+02  0.17490052315E+03  0.28327825301E+03  0.89973920154E+02 0.  0.
          3    1    3    3  502    0 -0.53739048212E+02 -0.52429524497E+02 -0.53506662979E+03  0.54030828113E+03  0.00000000000E+00 0. -1.
         -4    1    3    3    0  502 -0.30722639832E+02 -0.41969996830E+01 -0.48555643192E+02  0.57612029042E+02  0.00000000000E+00 0.  1.
         13    1    5    5    0    0  0.22172046306E+02  0.22319225150E+02 -0.86386116210E+02  0.91936437404E+02  0.00000000000E+00 0. -1.
        -13    1    5    5    0    0  0.24050311341E+03 -0.64692841547E+02 -0.63841691241E+03  0.68527590455E+03  0.00000000000E+00 0.  1.
          4    1    6    6  503    0 -0.11720167415E+02 -0.15797659076E+02  0.23528000304E+02  0.30667493455E+02  0.00000000000E+00 0. -1.
         -4    1    6    6    0  503 -0.16649330425E+03  0.11479779965E+03  0.15137252285E+03  0.25261075955E+03  0.00000000000E+00 0.  1.
<mgrwt>
<rscale>  0 0.12105570E+04</rscale>
<asrwt>0</asrwt>
<pdfrwt beam="1">  1        1 0.21476428E+00 0.12105570E+04</pdfrwt>
<pdfrwt beam="2">  1       -2 0.40375856E-01 0.12105570E+04</pdfrwt>
<totfact> 0.38953853E+01</totfact>
</mgrwt>
</event>
<event>
12    5  0.5197392E-008  0.1416002E+04  0.7818608E-02  0.8942316E-01
          1   -1    0    0  501    0  0.00000000000E+00  0.00000000000E+00  0.52481414455E+03  0.52481414455E+03  0.00000000000E+00 0. -1.
         -2   -1    0    0    0  501 -0.00000000000E+00 -0.00000000000E+00 -0.95512999658E+03  0.95512999658E+03  0.00000000000E+00 0.  1.
        -24    2    1    2    0    0 -0.26664529484E+03 -0.31574834826E+01  0.21664555803E+03  0.35243918009E+03  0.78539129624E+02 0.  0.
        254    2    1    2    0    0  0.26664529484E+03  0.31574834826E+01 -0.64696141006E+03  0.11275049610E+04  0.88408070225E+03 0.  0.
         23    2    4    4    0    0  0.55079396343E+03  0.11879487692E+03 -0.26669205315E+03  0.63031314822E+03  0.93186912567E+02 0.  0.
         23    2    4    4    0    0 -0.28414866858E+03 -0.11563739344E+03 -0.38026935691E+03  0.49719181282E+03  0.92100175414E+02 0.  0.
          3    1    3    3  502    0 -0.88209405074E+00  0.46446157636E+01  0.23093410187E+02  0.23572359652E+02  0.00000000000E+00 0. -1.
         -4    1    3    3    0  502 -0.26576320079E+03 -0.78020992462E+01  0.19355214785E+03  0.32886682044E+03  0.00000000000E+00 0.  1.
         13    1    5    5    0    0  0.46821346555E+03  0.92337561644E+02 -0.25969688345E+03  0.54331624850E+03  0.00000000000E+00 0.  1.
        -13    1    5    5    0    0  0.82580497880E+02  0.26457315277E+02 -0.69951697022E+01  0.86996899720E+02  0.00000000000E+00 0. -1.
          3    1    6    6  503    0 -0.93397819751E+02 -0.83583848189E+02 -0.12610478239E+03  0.17779715564E+03  0.00000000000E+00 0. -1.
         -3    1    6    6    0  503 -0.19075084883E+03 -0.32053545249E+02 -0.25416457452E+03  0.31939465718E+03  0.00000000000E+00 0.  1.
<mgrwt>
<rscale>  0 0.14160024E+04</rscale>
<asrwt>0</asrwt>
<pdfrwt beam="1">  1        1 0.80740639E-01 0.14160024E+04</pdfrwt>
<pdfrwt beam="2">  1       -2 0.14694307E+00 0.14160024E+04</pdfrwt>
<totfact> 0.11158117E+01</totfact>
</mgrwt>
</event>
<event>
12    5  0.5197392E-008  0.2869692E+04  0.7818608E-02  0.8281952E-01
         -2   -1    0    0    0  501 -0.00000000000E+00  0.00000000000E+00  0.15237996182E+04  0.15237996182E+04  0.00000000000E+00 0.  1.
          1   -1    0    0  501    0  0.00000000000E+00 -0.00000000000E+00 -0.13510853355E+04  0.13510853355E+04  0.00000000000E+00 0. -1.
        -24    2    1    2    0    0  0.42214536545E+03 -0.10353793557E+04 -0.56836648395E+03  0.12568627846E+04  0.80289971357E+02 0.  0.
        254    2    1    2    0    0 -0.42214536545E+03  0.10353793557E+04  0.74108076664E+03  0.16180221691E+04  0.90475295929E+03 0.  0.
         23    2    4    4    0    0 -0.18881929511E+02 -0.11539097921E+03 -0.55097971813E+02  0.15894111501E+03  0.92492627800E+02 0.  0.
         23    2    4    4    0    0 -0.40326343593E+03  0.11507703349E+04  0.79617873845E+03  0.14590810541E+04  0.90128666191E+02 0.  0.
          1    1    3    3  502    0  0.37604870514E+03 -0.96933126508E+03 -0.51530174692E+03  0.11604101087E+04  0.00000000000E+00 0. -1.
         -2    1    3    3    0  502  0.46096660305E+02 -0.66048090586E+02 -0.53064737031E+02  0.96452675843E+02  0.00000000000E+00 0.  1.
         13    1    5    5    0    0 -0.48497849795E+02 -0.29329113215E+02 -0.31812994893E+02  0.64994653325E+02  0.00000000000E+00 0.  1.
        -13    1    5    5    0    0  0.29615920284E+02 -0.86061865999E+02 -0.23284976920E+02  0.93946461688E+02  0.00000000000E+00 0. -1.
          4    1    6    6  503    0 -0.35718543922E+03  0.91095239978E+03  0.64110713353E+03  0.11698008674E+04  0.00000000000E+00 0. -1.
         -4    1    6    6    0  503 -0.46077996716E+02  0.23981793510E+03  0.15507160492E+03  0.28928018672E+03  0.00000000000E+00 0.  1.
<mgrwt>
<rscale>  0 0.28696922E+04</rscale>
<asrwt>0</asrwt>
<pdfrwt beam="1">  1        1 0.20785928E+00 0.28696922E+04</pdfrwt>
<pdfrwt beam="2">  1       -2 0.23443071E+00 0.28696922E+04</pdfrwt>
<totfact> 0.50419855E-01</totfact>
</mgrwt>
</event>
<event>
12    5  0.5197392E-008  0.1275869E+04  0.7818608E-02  0.9048923E-01
         -2   -1    0    0    0  501 -0.00000000000E+00  0.00000000000E+00  0.95094812503E+03  0.95094812503E+03  0.00000000000E+00 0.  1.
          1   -1    0    0  501    0  0.00000000000E+00 -0.00000000000E+00 -0.42795205100E+03  0.42795205100E+03  0.00000000000E+00 0. -1.
        -24    2    1    2    0    0  0.10025301424E+03  0.29761822464E+00 -0.18474617190E+03  0.22427442563E+03  0.78211984509E+02 0.  0.
        254    2    1    2    0    0 -0.10025301424E+03 -0.29761822464E+00  0.70774224593E+03  0.11546257504E+04  0.90675839194E+03 0.  0.
         23    2    4    4    0    0 -0.32114707866E+03 -0.24917864124E+03  0.60654050932E+02  0.42128928007E+03  0.92629920816E+02 0.  0.
         23    2    4    4    0    0  0.22089406442E+03  0.24888102302E+03  0.64708819500E+03  0.73333647032E+03  0.91232095645E+02 0.  0.
          3    1    3    3  502    0  0.54640354461E+02 -0.32076755922E+02 -0.13618025054E+03  0.15019835965E+03  0.00000000000E+00 0. -1.
         -4    1    3    3    0  502  0.45612659775E+02  0.32374374147E+02 -0.48565921365E+02  0.74076065981E+02  0.00000000000E+00 0.  1.
         13    1    5    5    0    0 -0.97218799189E+02 -0.53499629078E+02  0.55016956326E+02  0.12385705757E+03  0.00000000000E+00 0. -1.
        -13    1    5    5    0    0 -0.22392827947E+03 -0.19567901216E+03  0.56370946068E+01  0.29743222250E+03  0.00000000000E+00 0.  1.
          4    1    6    6  503    0  0.95287706371E+02  0.67557639519E+02  0.15510755839E+03  0.19417037960E+03  0.00000000000E+00 0. -1.
         -4    1    6    6    0  503  0.12560635805E+03  0.18132338350E+03  0.49198063660E+03  0.53916609072E+03  0.00000000000E+00 0.  1.
<mgrwt>
<rscale>  0 0.12758686E+04</rscale>
<asrwt>0</asrwt>
<pdfrwt beam="1">  1        1 0.65838777E-01 0.12758686E+04</pdfrwt>
<pdfrwt beam="2">  1       -2 0.14629971E+00 0.12758686E+04</pdfrwt>
<totfact> 0.15075260E+01</totfact>
</mgrwt>
</event>
<event>
12    5  0.5197392E-008  0.1560786E+04  0.7818608E-02  0.8845007E-01
         -2   -1    0    0    0  501 -0.00000000000E+00  0.00000000000E+00  0.21218164866E+03  0.21218164866E+03  0.00000000000E+00 0.  1.
          1   -1    0    0  501    0  0.00000000000E+00 -0.00000000000E+00 -0.28702462854E+04  0.28702462854E+04  0.00000000000E+00 0. -1.
        -24    2    1    2    0    0  0.27119889361E+03  0.17509941469E+03 -0.94770125040E+02  0.34583547396E+03  0.80075923497E+02 0.  0.
        254    2    1    2    0    0 -0.27119889361E+03 -0.17509941469E+03 -0.25632945117E+04  0.27365924601E+04  0.90235851747E+03 0.  0.
         23    2    4    4    0    0 -0.55253978384E+03 -0.17458246153E+03 -0.11282193682E+04  0.12713094119E+04  0.87002467772E+02 0.  0.
         23    2    4    4    0    0  0.28134089022E+03 -0.51695316299E+00 -0.14350751435E+04  0.14652830482E+04  0.91982498982E+02 0.  0.
          1    1    3    3  502    0  0.19708300393E+03  0.92101585218E+02 -0.86991787469E+02  0.23429038291E+03  0.00000000000E+00 0. -1.
         -4    1    3    3    0  502  0.74115889680E+02  0.82997829470E+02 -0.77783375710E+01  0.11154509104E+03  0.00000000000E+00 0.  1.
         13    1    5    5    0    0 -0.43570250470E+03 -0.16438186870E+03 -0.84616924218E+03  0.96584701572E+03  0.00000000000E+00 0. -1.
        -13    1    5    5    0    0 -0.11683727913E+03 -0.10200592821E+02 -0.28205012603E+03  0.30546239619E+03  0.00000000000E+00 0.  1.
          1    1    6    6  503    0  0.27744949321E+03  0.82755586062E+01 -0.14231401413E+04  0.14499567469E+04  0.00000000000E+00 0. -1.
         -1    1    6    6    0  503  0.38913970100E+01 -0.87925117692E+01 -0.11935002236E+02  0.15326301324E+02  0.00000000000E+00 0.  1.
<mgrwt>
<rscale>  0 0.15607865E+04</rscale>
<asrwt>0</asrwt>
<pdfrwt beam="1">  1        1 0.44157636E+00 0.15607865E+04</pdfrwt>
<pdfrwt beam="2">  1       -2 0.32643330E-01 0.15607865E+04</pdfrwt>
<totfact> 0.55135286E+00</totfact>
</mgrwt>
</event>
<event>
12    5  0.5269527E-008  0.2694655E+04  0.7818608E-02  0.8336741E-01
         -2   -1    0    0    0  501 -0.00000000000E+00  0.00000000000E+00  0.18964745215E+04  0.18964745215E+04  0.00000000000E+00 0.  1.
          1   -1    0    0  501    0  0.00000000000E+00 -0.00000000000E+00 -0.95719253401E+03  0.95719253401E+03  0.00000000000E+00 0. -1.
        -24    2    1    2    0    0 -0.11825779366E+03 -0.80243202836E+03  0.13640650693E+04  0.15890328773E+04  0.80435725617E+02 0.  0.
        254    2    1    2    0    0  0.11825779366E+03  0.80243202836E+03 -0.42478308178E+03  0.12646341782E+04  0.87233988349E+03 0.  0.
         23    2    4    4    0    0 -0.88431910341E+01  0.85577766537E+03 -0.58004265155E+03  0.10379913269E+04  0.92427823170E+02 0.  0.
         23    2    4    4    0    0  0.12710098469E+03 -0.53345637008E+02  0.15525956977E+03  0.22664285136E+03  0.90890212737E+02 0.  0.
          1    1    3    3  502    0  0.10131624968E+02 -0.13655810202E+03  0.22691433582E+03  0.26502996218E+03  0.00000000000E+00 0. -1.
         -2    1    3    3    0  502 -0.12838941862E+03 -0.66587392634E+03  0.11371507334E+04  0.13240029151E+04  0.00000000000E+00 0.  1.
         13    1    5    5    0    0 -0.21263754102E+01  0.10339329796E+02  0.30088363113E+01  0.10976170049E+02  0.00000000000E+00 0.  1.
        -13    1    5    5    0    0 -0.67168156238E+01  0.84543833557E+03 -0.58305148786E+03  0.10270151568E+04  0.00000000000E+00 0. -1.
          4    1    6    6  503    0  0.12277267296E+03 -0.68552771904E+02  0.15696705277E+03  0.21073980975E+03  0.00000000000E+00 0. -1.
         -4    1    6    6    0  503  0.43283117322E+01  0.15207134896E+02 -0.17074829970E+01  0.15903041608E+02  0.00000000000E+00 0.  1.
<mgrwt>
<rscale>  0 0.26946549E+04</rscale>
<asrwt>0</asrwt>
<pdfrwt beam="1">  1        1 0.14726039E+00 0.26946549E+04</pdfrwt>
<pdfrwt beam="2">  1       -2 0.29176531E+00 0.26946549E+04</pdfrwt>
<totfact> 0.44736383E-01</totfact>
</mgrwt>
</event>
<event>
12    5  0.5197392E-008  0.1424862E+04  0.7818608E-02  0.8936016E-01
         -2   -1    0    0    0  501 -0.00000000000E+00  0.00000000000E+00  0.48736658541E+03  0.48736658541E+03  0.00000000000E+00 0.  1.
          1   -1    0    0  501    0  0.00000000000E+00 -0.00000000000E+00 -0.10414293777E+04  0.10414293777E+04  0.00000000000E+00 0. -1.
        -24    2    1    2    0    0 -0.22674750630E+03 -0.22796661058E+03  0.12722395693E+03  0.35452332234E+03  0.78215367509E+02 0.  0.
        254    2    1    2    0    0  0.22674750630E+03  0.22796661058E+03 -0.68128674919E+03  0.11742726407E+04  0.90076711362E+03 0.  0.
         23    2    4    4    0    0 -0.11947169188E+03  0.14675975468E+03 -0.77026472742E+03  0.79828686942E+03  0.90234499092E+02 0.  0.
         23    2    4    4    0    0  0.34621919818E+03  0.81206855897E+02  0.88977978230E+02  0.37598577130E+03  0.83581893846E+02 0.  0.
          1    1    3    3  502    0 -0.26175513672E+02 -0.53579249510E+02 -0.52523869324E+00  0.59633626166E+02  0.00000000000E+00 0. -1.
         -2    1    3    3    0  502 -0.20057199263E+03 -0.17438736107E+03  0.12774919563E+03  0.29488969618E+03  0.00000000000E+00 0.  1.
         13    1    5    5    0    0  0.14261555314E+02  0.15209548471E+02 -0.54617609679E+02  0.58462001435E+02  0.00000000000E+00 0. -1.
        -13    1    5    5    0    0 -0.13373324719E+03  0.13155020621E+03 -0.71564711775E+03  0.73982486799E+03  0.00000000000E+00 0.  1.
          1    1    6    6  503    0  0.10876862866E+03  0.52421655201E+02 -0.11727125561E+00  0.12074211472E+03  0.00000000000E+00 0. -1.
         -1    1    6    6    0  503  0.23745056952E+03  0.28785200696E+02  0.89095249486E+02  0.25524365658E+03  0.00000000000E+00 0.  1.
<mgrwt>
<rscale>  0 0.14248619E+04</rscale>
<asrwt>0</asrwt>
<pdfrwt beam="1">  1        1 0.16021990E+00 0.14248619E+04</pdfrwt>
<pdfrwt beam="2">  1       -2 0.74979475E-01 0.14248619E+04</pdfrwt>
<totfact> 0.19156065E+01</totfact>
</mgrwt>
</event>
<event>
12    5  0.5197392E-008  0.2022904E+04  0.7818608E-02  0.8595987E-01
          1   -1    0    0  501    0  0.00000000000E+00  0.00000000000E+00  0.20243462762E+04  0.20243462762E+04  0.00000000000E+00 0. -1.
         -2   -1    0    0    0  501 -0.00000000000E+00 -0.00000000000E+00 -0.50536547688E+03  0.50536547688E+03  0.00000000000E+00 0.  1.
        -24    2    1    2    0    0 -0.34337638534E+03 -0.20345990053E+03  0.14968741459E+04  0.15511478384E+04  0.78256851466E+02 0.  0.
        254    2    1    2    0    0  0.34337638534E+03  0.20345990053E+03  0.22106653456E+02  0.97856391471E+03  0.89319390835E+03 0.  0.
         23    2    4    4    0    0  0.46058447440E+03 -0.66902071732E+02 -0.27759100105E+03  0.54898765908E+03  0.87844981028E+02 0.  0.
         23    2    4    4    0    0 -0.11720808906E+03  0.27036197226E+03  0.29969765451E+03  0.42957625563E+03  0.88790444898E+02 0.  0.
          3    1    3    3  502    0 -0.32098518246E+03 -0.20756465106E+03  0.13738818996E+04  0.14260666344E+04  0.00000000000E+00 0. -1.
         -4    1    3    3    0  502 -0.22391202880E+02  0.41047505388E+01  0.12299224630E+03  0.12508120400E+03  0.00000000000E+00 0.  1.
         13    1    5    5    0    0  0.19240057178E+03 -0.59205620137E+02 -0.83927441532E+02  0.21809883291E+03  0.00000000000E+00 0.  1.
        -13    1    5    5    0    0  0.26818390262E+03 -0.76964515951E+01 -0.19366355952E+03  0.33088882616E+03  0.00000000000E+00 0. -1.
          1    1    6    6  503    0 -0.38732119842E+02  0.42435797780E+02  0.21195446668E+02  0.61239048001E+02  0.00000000000E+00 0. -1.
         -1    1    6    6    0  503 -0.78475969217E+02  0.22792617448E+03  0.27850220784E+03  0.36833720763E+03  0.00000000000E+00 0.  1.
<mgrwt>
<rscale>  0 0.20229036E+04</rscale>
<asrwt>0</asrwt>
<pdfrwt beam="1">  1        1 0.31143788E+00 0.20229036E+04</pdfrwt>
<pdfrwt beam="2">  1       -2 0.77748536E-01 0.20229036E+04</pdfrwt>
<totfact> 0.34375925E+00</totfact>
</mgrwt>
</event>
<event>
12    5  0.5197392E-008  0.1301115E+04  0.7818608E-02  0.9028682E-01
         -2   -1    0    0    0  501 -0.00000000000E+00  0.00000000000E+00  0.14297887286E+03  0.14297887286E+03  0.00000000000E+00 0.  1.
          1   -1    0    0  501    0  0.00000000000E+00 -0.00000000000E+00 -0.29600509664E+04  0.29600509664E+04  0.00000000000E+00 0. -1.
        -24    2    1    2    0    0 -0.20248426627E+02 -0.13197778366E+03 -0.15109759730E+04  0.15188567332E+04  0.77776928204E+02 0.  0.
        254    2    1    2    0    0  0.20248426627E+02  0.13197778366E+03 -0.13060961205E+04  0.15841731061E+04  0.88650393118E+03 0.  0.
         23    2    4    4    0    0  0.28462508384E+03  0.13094111713E+03 -0.12579033136E+04  0.12996231522E+04  0.92426061627E+02 0.  0.
         23    2    4    4    0    0 -0.26437665722E+03  0.10366665306E+01 -0.48192806918E+02  0.28454995393E+03  0.93541638226E+02 0.  0.
          3    1    3    3  502    0 -0.23005696565E+02 -0.13843550746E+03 -0.12614450537E+04  0.12692270385E+04  0.00000000000E+00 0. -1.
         -4    1    3    3    0  502  0.27572699377E+01  0.64577237965E+01 -0.24953091935E+03  0.24962969464E+03  0.00000000000E+00 0.  1.
         13    1    5    5    0    0  0.52976076941E+02  0.68722558656E+02 -0.34032969230E+03  0.35121724652E+03  0.00000000000E+00 0. -1.
        -13    1    5    5    0    0  0.23164900690E+03  0.62218558476E+02 -0.91757362132E+03  0.94840590570E+03  0.00000000000E+00 0.  1.
          1    1    6    6  503    0  0.12981247289E+01 -0.88230128432E+01 -0.13864727015E+02  0.16485185430E+02  0.00000000000E+00 0. -1.
         -1    1    6    6    0  503 -0.26567478195E+03  0.98596793738E+01 -0.34328079903E+02  0.26806476850E+03  0.00000000000E+00 0.  1.
<mgrwt>
<rscale>  0 0.13011145E+04</rscale>
<asrwt>0</asrwt>
<pdfrwt beam="1">  1        1 0.45539244E+00 0.13011145E+04</pdfrwt>
<pdfrwt beam="2">  1       -2 0.21996750E-01 0.13011145E+04</pdfrwt>
<totfact> 0.10053449E+01</totfact>
</mgrwt>
</event>
<event>
12    5  0.5197392E-008  0.1547913E+04  0.7818608E-02  0.8853202E-01
         -2   -1    0    0    0  501 -0.00000000000E+00  0.00000000000E+00  0.81803962999E+03  0.81803962999E+03  0.00000000000E+00 0.  1.
          1   -1    0    0  501    0  0.00000000000E+00 -0.00000000000E+00 -0.73224932215E+03  0.73224932215E+03  0.00000000000E+00 0. -1.
        -24    2    1    2    0    0 -0.49502150401E+03 -0.34171967876E+02 -0.80125932299E+02  0.50886138195E+03  0.79408615347E+02 0.  0.
        254    2    1    2    0    0  0.49502150401E+03  0.34171967876E+02  0.16591624014E+03  0.10414275702E+04  0.90046053349E+03 0.  0.
         23    2    4    4    0    0  0.27613427286E+03  0.45468261087E+03  0.14239884467E+03  0.55799989143E+03  0.90000192218E+02 0.  0.
         23    2    4    4    0    0  0.21888723115E+03 -0.42051064299E+03  0.23517395471E+02  0.48342767875E+03  0.91697501954E+02 0.  0.
          1    1    3    3  502    0 -0.44867040401E+03 -0.54275808221E+02 -0.69927564098E+02  0.45731920911E+03  0.00000000000E+00 0. -1.
         -2    1    3    3    0  502 -0.46351099996E+02  0.20103840345E+02 -0.10198368202E+02  0.51542172843E+02  0.00000000000E+00 0.  1.
         13    1    5    5    0    0  0.27945607995E+03  0.42976243147E+03  0.12569790441E+03  0.52781759282E+03  0.00000000000E+00 0. -1.
        -13    1    5    5    0    0 -0.33218070890E+01  0.24920179400E+02  0.16700940255E+02  0.30182298605E+02  0.00000000000E+00 0.  1.
          3    1    6    6  503    0 -0.48256790081E+01 -0.43756253560E+02 -0.51552832786E+01  0.44322385419E+02  0.00000000000E+00 0. -1.
         -3    1    6    6    0  503  0.22371291016E+03 -0.37675438943E+03  0.28672678750E+02  0.43910529334E+03  0.00000000000E+00 0.  1.
<mgrwt>
<rscale>  0 0.15479134E+04</rscale>
<asrwt>0</asrwt>
<pdfrwt beam="1">  1        1 0.11265374E+00 0.15479134E+04</pdfrwt>
<pdfrwt beam="2">  1       -2 0.12585225E+00 0.15479134E+04</pdfrwt>
<totfact> 0.10109754E+01</totfact>
</mgrwt>
</event>
<event>
12    5  0.5197392E-008  0.1297637E+04  0.7818608E-02  0.9031441E-01
         -2   -1    0    0    0  501 -0.00000000000E+00  0.00000000000E+00  0.25351602655E+03  0.25351602655E+03  0.00000000000E+00 0.  1.
          1   -1    0    0  501    0  0.00000000000E+00 -0.00000000000E+00 -0.16605088776E+04  0.16605088776E+04  0.00000000000E+00 0. -1.
        -24    2    1    2    0    0  0.19769217966E+03  0.21079090429E+03 -0.14354698518E+03  0.33228569755E+03  0.79328712421E+02 0.  0.
        254    2    1    2    0    0 -0.19769217966E+03 -0.21079090429E+03 -0.12634458659E+04  0.15817392066E+04  0.90669093879E+03 0.  0.
         23    2    4    4    0    0  0.30325125513E+03  0.10623346375E+03 -0.60247934095E+03  0.68887437787E+03  0.91212277953E+02 0.  0.
         23    2    4    4    0    0 -0.50094343479E+03 -0.31702436803E+03 -0.66096652497E+03  0.89286482877E+03  0.94244790535E+02 0.  0.
          3    1    3    3  502    0  0.19288035634E+03  0.16682533826E+03 -0.11582268981E+03  0.28008645241E+03  0.00000000000E+00 0. -1.
         -4    1    3    3    0  502  0.48118233169E+01  0.43965566027E+02 -0.27724295365E+02  0.52199245140E+02  0.00000000000E+00 0.  1.
         13    1    5    5    0    0  0.15841536360E+03  0.53485540844E+02 -0.21866543138E+03  0.27526478413E+03  0.00000000000E+00 0.  1.
        -13    1    5    5    0    0  0.14483589153E+03  0.52747922904E+02 -0.38381390957E+03  0.41360959373E+03  0.00000000000E+00 0. -1.
          4    1    6    6  503    0 -0.47108286238E+03 -0.29948884961E+03 -0.58095252833E+03  0.80567889040E+03  0.00000000000E+00 0. -1.
         -4    1    6    6    0  503 -0.29860572411E+02 -0.17535518421E+02 -0.80013996640E+02  0.87185938369E+02  0.00000000000E+00 0.  1.
<mgrwt>
<rscale>  0 0.12976373E+04</rscale>
<asrwt>0</asrwt>
<pdfrwt beam="1">  1        1 0.25546291E+00 0.12976373E+04</pdfrwt>
<pdfrwt beam="2">  1       -2 0.39002465E-01 0.12976373E+04</pdfrwt>
<totfact> 0.27183224E+01</totfact>
</mgrwt>
</event>
<event>
12    5  0.5197392E-008  0.1951734E+04  0.7818608E-02  0.8629525E-01
         -2   -1    0    0    0  501 -0.00000000000E+00  0.00000000000E+00  0.55645843827E+03  0.55645843827E+03  0.00000000000E+00 0.  1.
          1   -1    0    0  501    0  0.00000000000E+00 -0.00000000000E+00 -0.17113876128E+04  0.17113876128E+04  0.00000000000E+00 0. -1.
        -24    2    1    2    0    0 -0.39149550429E+03  0.56461870464E+03 -0.84977773793E+03  0.10957121605E+04  0.79999520077E+02 0.  0.
        254    2    1    2    0    0  0.39149550429E+03 -0.56461870464E+03 -0.30515143662E+03  0.11721338906E+04  0.89928718815E+03 0.  0.
         23    2    4    4    0    0  0.20835334813E+03 -0.29755999810E+03 -0.61121869315E+03  0.71687291082E+03  0.91462611318E+02 0.  0.
         23    2    4    4    0    0  0.18314215616E+03 -0.26705870654E+03  0.30606725653E+03  0.45526097980E+03  0.93402313162E+02 0.  0.
          1    1    3    3  502    0 -0.39001750361E+03  0.55578432279E+03 -0.82000432099E+03  0.10646205676E+04  0.00000000000E+00 0. -1.
         -2    1    3    3    0  502 -0.14780006707E+01  0.88343818420E+01 -0.29773416940E+02  0.31091592832E+02  0.00000000000E+00 0.  1.
         13    1    5    5    0    0  0.39271633503E+02 -0.91083658900E+02 -0.23992686911E+03  0.25962164131E+03  0.00000000000E+00 0. -1.
        -13    1    5    5    0    0  0.16908171463E+03 -0.20647633920E+03 -0.37129182404E+03  0.45725126951E+03  0.00000000000E+00 0.  1.
          1    1    6    6  503    0  0.13961623659E+03 -0.23055298072E+03  0.20245961537E+03  0.33710127008E+03  0.00000000000E+00 0. -1.
         -1    1    6    6    0  503  0.43525919565E+02 -0.36505725822E+02  0.10360764116E+03  0.11815970971E+03  0.00000000000E+00 0.  1.
<mgrwt>
<rscale>  0 0.19517337E+04</rscale>
<asrwt>0</asrwt>
<pdfrwt beam="1">  1        1 0.26329040E+00 0.19517337E+04</pdfrwt>
<pdfrwt beam="2">  1       -2 0.85608991E-01 0.19517337E+04</pdfrwt>
<totfact> 0.45382482E+00</totfact>
</mgrwt>
</event>
<event>
12    5  0.5197392E-008  0.1449574E+04  0.7818608E-02  0.8918696E-01
          1   -1    0    0  501    0  0.00000000000E+00  0.00000000000E+00  0.26315351374E+03  0.26315351374E+03  0.00000000000E+00 0. -1.
         -2   -1    0    0    0  501 -0.00000000000E+00 -0.00000000000E+00 -0.19962350536E+04  0.19962350536E+04  0.00000000000E+00 0.  1.
        -24    2    1    2    0    0 -0.37885391232E+02  0.38932949932E+03 -0.80998380411E+03  0.90290296339E+03  0.78404314103E+02 0.  0.
        254    2    1    2    0    0  0.37885391232E+02 -0.38932949932E+03 -0.92309773575E+03  0.13564856039E+04  0.91374558936E+03 0.  0.
         23    2    4    4    0    0 -0.29483878761E+03 -0.64635376195E+02 -0.80873173954E+03  0.86820104739E+03  0.92835282229E+02 0.  0.
         23    2    4    4    0    0  0.33272417884E+03 -0.32469412312E+03 -0.11436599621E+03  0.48828455655E+03  0.95971737003E+02 0.  0.
          1    1    3    3  502    0  0.77982013532E+01  0.93920486160E+02 -0.26597625438E+03  0.28217944212E+03  0.00000000000E+00 0. -1.
         -2    1    3    3    0  502 -0.45683592585E+02  0.29540901316E+03 -0.54400754973E+03  0.62072352126E+03  0.00000000000E+00 0.  1.
         13    1    5    5    0    0 -0.27998205592E+03 -0.51535207919E+02 -0.66873039588E+03  0.72680545654E+03  0.00000000000E+00 0. -1.
        -13    1    5    5    0    0 -0.14856731692E+02 -0.13100168276E+02 -0.14000134366E+03  0.14139559085E+03  0.00000000000E+00 0.  1.
          3    1    6    6  503    0  0.33089961851E+03 -0.29773087141E+03 -0.95309689735E+02  0.45521661468E+03  0.00000000000E+00 0. -1.
         -3    1    6    6    0  503  0.18245603294E+01 -0.26963251718E+02 -0.19056306475E+02  0.33067941878E+02  0.00000000000E+00 0.  1.
<mgrwt>
<rscale>  0 0.14495741E+04</rscale>
<asrwt>0</asrwt>
<pdfrwt beam="1">  1        1 0.40485155E-01 0.14495741E+04</pdfrwt>
<pdfrwt beam="2">  1       -2 0.30711309E+00 0.14495741E+04</pdfrwt>
<totfact> 0.25472437E+00</totfact>
</mgrwt>
</event>
<event>
12    5  0.5197392E-008  0.3018546E+04  0.7818608E-02  0.8238455E-01
         -2   -1    0    0    0  501 -0.00000000000E+00  0.00000000000E+00  0.16352591876E+04  0.16352591876E+04  0.00000000000E+00 0.  1.
          1   -1    0    0  501    0  0.00000000000E+00 -0.00000000000E+00 -0.13929933035E+04  0.13929933035E+04  0.00000000000E+00 0. -1.
        -24    2    1    2    0    0  0.82886249638E+03  0.42161370578E+03 -0.90222701616E+03  0.12978811124E+04  0.75568765413E+02 0.  0.
        254    2    1    2    0    0 -0.82886249638E+03 -0.42161370578E+03  0.11444929003E+04  0.17303713787E+04  0.90528998369E+03 0.  0.
         23    2    4    4    0    0 -0.39121670720E+02  0.13109981722E+03 -0.69588550179E+02  0.17749633149E+03  0.89133126180E+02 0.  0.
         23    2    4    4    0    0 -0.78974082566E+03 -0.55271352300E+03  0.12140814504E+04  0.15528750472E+04  0.90798312927E+02 0.  0.
          1    1    3    3  502    0  0.56396802471E+03  0.25369359808E+03 -0.62614723330E+03  0.88004586947E+03  0.00000000000E+00 0. -1.
         -2    1    3    3    0  502  0.26489447167E+03  0.16792010769E+03 -0.27607978286E+03  0.41783524288E+03  0.00000000000E+00 0.  1.
         13    1    5    5    0    0  0.25098198792E+02  0.48764257982E+02 -0.58360561641E+01  0.55153712393E+02  0.00000000000E+00 0.  1.
        -13    1    5    5    0    0 -0.64219869513E+02  0.82335559237E+02 -0.63752494015E+02  0.12234261910E+03  0.00000000000E+00 0. -1.
          2    1    6    6  503    0 -0.57722984532E+03 -0.42459676227E+03  0.95733945423E+03  0.11958158451E+04  0.00000000000E+00 0. -1.
         -2    1    6    6    0  503 -0.21251098034E+03 -0.12811676073E+03  0.25674199621E+03  0.35705920204E+03  0.00000000000E+00 0.  1.
<mgrwt>
<rscale>  0 0.30185461E+04</rscale>
<asrwt>0</asrwt>
<pdfrwt beam="1">  1        1 0.21430666E+00 0.30185461E+04</pdfrwt>
<pdfrwt beam="2">  1       -2 0.25157834E+00 0.30185461E+04</pdfrwt>
<totfact> 0.36433705E-01</totfact>
</mgrwt>
</event>
<event>
12    5  0.5197392E-008  0.1752011E+04  0.7818608E-02  0.8732244E-01
          1   -1    0    0  501    0  0.00000000000E+00  0.00000000000E+00  0.19269993740E+04  0.19269993740E+04  0.00000000000E+00 0. -1.
         -2   -1    0    0    0  501 -0.00000000000E+00 -0.00000000000E+00 -0.39822827992E+03  0.39822827992E+03  0.00000000000E+00 0.  1.
        -24    2    1    2    0    0 -0.57294588319E+03  0.52875785116E+01  0.17780550358E+03  0.60549860888E+03  0.81968437187E+02 0.  0.
        254    2    1    2    0    0  0.57294588319E+03 -0.52875785116E+01  0.13509655905E+04  0.17197290450E+04  0.89669672583E+03 0.  0.
         23    2    4    4    0    0  0.58272545195E+02  0.39266617584E+03  0.52490714087E+03  0.66417883136E+03  0.89574540631E+02 0.  0.
         23    2    4    4    0    0  0.51467333800E+03 -0.39795375435E+03  0.82605844963E+03  0.10555502137E+04  0.92508680420E+02 0.  0.
          3    1    3    3  502    0 -0.53660396790E+03  0.46414460145E+01  0.18652981127E+03  0.56811858963E+03  0.00000000000E+00 0. -1.
         -4    1    3    3    0  502 -0.36341915289E+02  0.64613249711E+00 -0.87243076938E+01  0.37380019245E+02  0.00000000000E+00 0.  1.
         13    1    5    5    0    0  0.66918346473E+02  0.35591452691E+03  0.43090810341E+03  0.56288099021E+03  0.00000000000E+00 0. -1.
        -13    1    5    5    0    0 -0.86458012779E+01  0.36751648924E+02  0.93999037458E+02  0.10129784115E+03  0.00000000000E+00 0.  1.
          3    1    6    6  503    0  0.36321416198E+03 -0.32072302814E+03  0.56906820872E+03  0.74741314842E+03  0.00000000000E+00 0. -1.
         -3    1    6    6    0  503  0.15145917601E+03 -0.77230726206E+02  0.25699024090E+03  0.30813706526E+03  0.00000000000E+00 0.  1.
<mgrwt>
<rscale>  0 0.17520110E+04</rscale>
<asrwt>0</asrwt>
<pdfrwt beam="1">  1        1 0.29646144E+00 0.17520110E+04</pdfrwt>
<pdfrwt beam="2">  1       -2 0.61265890E-01 0.17520110E+04</pdfrwt>
<totfact> 0.68850689E+00</totfact>
</mgrwt>
</event>
<event>
12    5  0.5197392E-008  0.2305499E+04  0.7818608E-02  0.8475756E-01
         -2   -1    0    0    0  501 -0.00000000000E+00  0.00000000000E+00  0.16558863003E+04  0.16558863003E+04  0.00000000000E+00 0.  1.
          1   -1    0    0  501    0  0.00000000000E+00 -0.00000000000E+00 -0.80248964208E+03  0.80248964208E+03  0.00000000000E+00 0. -1.
        -24    2    1    2    0    0  0.17118852943E+02  0.98280816783E+02  0.13987706722E+04  0.14048253588E+04  0.83801679301E+02 0.  0.
        254    2    1    2    0    0 -0.17118852943E+02 -0.98280816783E+02 -0.54537401398E+03  0.10535505835E+04  0.89587043863E+03 0.  0.
         23    2    4    4    0    0  0.23316482989E+02  0.37666445172E+03 -0.11256779476E+03  0.40346464632E+03  0.87706583838E+02 0.  0.
         23    2    4    4    0    0 -0.40435335932E+02 -0.47494526850E+03 -0.43280621921E+03  0.65008593719E+03  0.89902602144E+02 0.  0.
          3    1    3    3  502    0  0.23962536147E+02  0.17558926118E+02  0.12501826431E+03  0.12849935967E+03  0.00000000000E+00 0. -1.
         -4    1    3    3    0  502 -0.68436832039E+01  0.80721890666E+02  0.12737524079E+04  0.12763259992E+04  0.00000000000E+00 0.  1.
         13    1    5    5    0    0  0.26312407678E+02  0.37894985980E+03 -0.11716448965E+03  0.39752088835E+03  0.00000000000E+00 0. -1.
        -13    1    5    5    0    0 -0.29959246891E+01 -0.22854080860E+01  0.45966948910E+01  0.59437579681E+01  0.00000000000E+00 0.  1.
          2    1    6    6  503    0  0.23103699189E+02 -0.24840618790E+03 -0.21115260266E+03  0.32684069011E+03  0.00000000000E+00 0. -1.
         -2    1    6    6    0  503 -0.63539035121E+02 -0.22653908060E+03 -0.22165361655E+03  0.32324524707E+03  0.00000000000E+00 0.  1.
<mgrwt>
<rscale>  0 0.23054992E+04</rscale>
<asrwt>0</asrwt>
<pdfrwt beam="1">  1        1 0.12345995E+00 0.23054992E+04</pdfrwt>
<pdfrwt beam="2">  1       -2 0.25475174E+00 0.23054992E+04</pdfrwt>
<totfact> 0.10466012E+00</totfact>
</mgrwt>
</event>
<event>
12    5  0.5197392E-008  0.1749939E+04  0.7818608E-02  0.8733384E-01
         -2   -1    0    0    0  501 -0.00000000000E+00  0.00000000000E+00  0.71796391460E+03  0.71796391460E+03  0.00000000000E+00 0.  1.
          1   -1    0    0  501    0  0.00000000000E+00 -0.00000000000E+00 -0.10663091516E+04  0.10663091516E+04  0.00000000000E+00 0. -1.
        -24    2    1    2    0    0 -0.18459572285E+03  0.20299024458E+03  0.45384493129E+03  0.53618079041E+03  0.78955671444E+02 0.  0.
        254    2    1    2    0    0  0.18459572285E+03 -0.20299024458E+03 -0.80219016827E+03  0.12480922758E+04  0.91593921332E+03 0.  0.
         23    2    4    4    0    0  0.18335468643E+03  0.53819179216E+02 -0.92477526544E+03  0.94882641268E+03  0.92449038608E+02 0.  0.
         23    2    4    4    0    0  0.12410364206E+01 -0.25680942380E+03  0.12258509717E+03  0.29926586309E+03  0.92630073089E+02 0.  0.
          1    1    3    3  502    0 -0.15404775666E+03  0.16529919527E+03  0.30465806428E+03  0.37930340286E+03  0.00000000000E+00 0. -1.
         -2    1    3    3    0  502 -0.30547966198E+02  0.37691049316E+02  0.14918686701E+03  0.15687738755E+03  0.00000000000E+00 0.  1.
         13    1    5    5    0    0  0.43264057325E+02  0.33419610083E+02 -0.45247225650E+03  0.45576286806E+03  0.00000000000E+00 0. -1.
        -13    1    5    5    0    0  0.14009062911E+03  0.20399569132E+02 -0.47230300894E+03  0.49306354462E+03  0.00000000000E+00 0.  1.
          1    1    6    6  503    0 -0.78981231342E+01 -0.40993466692E+01 -0.10291426342E+02  0.13605089059E+02  0.00000000000E+00 0. -1.
         -1    1    6    6    0  503  0.91391595548E+01 -0.25271007713E+03  0.13287652352E+03  0.28566077404E+03  0.00000000000E+00 0.  1.
<mgrwt>
<rscale>  0 0.17499388E+04</rscale>
<asrwt>0</asrwt>
<pdfrwt beam="1">  1        1 0.16404756E+00 0.17499388E+04</pdfrwt>
<pdfrwt beam="2">  1       -2 0.11045599E+00 0.17499388E+04</pdfrwt>
<totfact> 0.72677252E+00</totfact>
</mgrwt>
</event>
<event>
12    5  0.5197392E-008  0.2039908E+04  0.7818608E-02  0.8588186E-01
         -2   -1    0    0    0  501 -0.00000000000E+00  0.00000000000E+00  0.10900143247E+04  0.10900143247E+04  0.00000000000E+00 0.  1.
          1   -1    0    0  501    0  0.00000000000E+00 -0.00000000000E+00 -0.95439661062E+03  0.95439661062E+03  0.00000000000E+00 0. -1.
        -24    2    1    2    0    0  0.76258298066E+03  0.18450248704E+03  0.29525691958E+03  0.84215793176E+03  0.80494492672E+02 0.  0.
        254    2    1    2    0    0 -0.76258298066E+03 -0.18450248704E+03 -0.15963920548E+03  0.12022530036E+04  0.89685764678E+03 0.  0.
         23    2    4    4    0    0 -0.78054284700E+03  0.31967609637E+02 -0.38547619418E+03  0.87561960431E+03  0.88593064644E+02 0.  0.
         23    2    4    4    0    0  0.17959866344E+02 -0.21647009667E+03  0.22583698869E+03  0.32663339927E+03  0.92223492144E+02 0.  0.
          3    1    3    3  502    0  0.19836154903E+03  0.56697833970E+02  0.41509660225E+02  0.21044001617E+03  0.00000000000E+00 0. -1.
         -4    1    3    3    0  502  0.56422143162E+03  0.12780465307E+03  0.25374725935E+03  0.63171791559E+03  0.00000000000E+00 0.  1.
         13    1    5    5    0    0 -0.48551381687E+03  0.25160105404E+02 -0.19178836699E+03  0.52262747248E+03  0.00000000000E+00 0. -1.
        -13    1    5    5    0    0 -0.29502903013E+03  0.68075042336E+01 -0.19368782719E+03  0.35299213183E+03  0.00000000000E+00 0.  1.
          3    1    6    6  503    0  0.40961425883E+02 -0.19158263655E+03  0.21541247011E+03  0.29117739836E+03  0.00000000000E+00 0. -1.
         -3    1    6    6    0  503 -0.23001559539E+02 -0.24887460122E+02  0.10424518582E+02  0.35456000906E+02  0.00000000000E+00 0.  1.
<mgrwt>
<rscale>  0 0.20399078E+04</rscale>
<asrwt>0</asrwt>
<pdfrwt beam="1">  1        1 0.14683025E+00 0.20399078E+04</pdfrwt>
<pdfrwt beam="2">  1       -2 0.16769451E+00 0.20399078E+04</pdfrwt>
<totfact> 0.29488985E+00</totfact>
</mgrwt>
</event>
<event>
12    5  0.5197392E-008  0.1886605E+04  0.7818608E-02  0.8661553E-01
          3   -1    0    0  501    0  0.00000000000E+00  0.00000000000E+00  0.62956142416E+03  0.62956142416E+03  0.00000000000E+00 0. -1.
         -4   -1    0    0    0  501 -0.00000000000E+00 -0.00000000000E+00 -0.14133960619E+04  0.14133960619E+04  0.00000000000E+00 0.  1.
        -24    2    1    2    0    0 -0.59957479667E+03 -0.27141031750E+03 -0.62471550028E+03  0.91077368217E+03  0.78011195407E+02 0.  0.
        254    2    1    2    0    0  0.59957479667E+03  0.27141031750E+03 -0.15911913750E+03  0.11321838039E+04  0.90739614760E+03 0.  0.
         23    2    4    4    0    0  0.12930821074E+03  0.25286064123E+03 -0.47266652964E+03  0.55906992742E+03  0.92121757778E+02 0.  0.
         23    2    4    4    0    0  0.47026658592E+03  0.18549676270E+02  0.31354739214E+03  0.57311387649E+03  0.93020406287E+02 0.  0.
          1    1    3    3  502    0 -0.54848170484E+03 -0.26817042056E+03 -0.56198682686E+03  0.82980524737E+03  0.00000000000E+00 0. -1.
         -2    1    3    3    0  502 -0.51093091826E+02 -0.32398969363E+01 -0.62728673425E+02  0.80968434801E+02  0.00000000000E+00 0.  1.
         13    1    5    5    0    0  0.54911477771E+02  0.13431566856E+03 -0.32334647353E+03  0.35441347485E+03  0.00000000000E+00 0.  1.
        -13    1    5    5    0    0  0.74396732973E+02  0.11854497267E+03 -0.14932005611E+03  0.20465645257E+03  0.00000000000E+00 0. -1.
          2    1    6    6  503    0  0.13647315519E+03 -0.35685228553E+02  0.80448181575E+02  0.16238924700E+03  0.00000000000E+00 0. -1.
         -2    1    6    6    0  503  0.33379343074E+03  0.54234904822E+02  0.23309921057E+03  0.41072462949E+03  0.00000000000E+00 0.  1.
<mgrwt>
<rscale>  0 0.18866050E+04</rscale>
<asrwt>0</asrwt>
<pdfrwt beam="1">  1        3 0.96855605E-01 0.18866050E+04</pdfrwt>
<pdfrwt beam="2">  1       -4 0.21744555E+00 0.18866050E+04</pdfrwt>
<totfact> 0.20455675E-01</totfact>
</mgrwt>
</event>
<event>
12    5  0.5197392E-008  0.2346481E+04  0.7818608E-02  0.8459816E-01
          1   -1    0    0  501    0  0.00000000000E+00  0.00000000000E+00  0.87500453802E+03  0.87500453802E+03  0.00000000000E+00 0. -1.
         -2   -1    0    0    0  501 -0.00000000000E+00 -0.00000000000E+00 -0.15731271711E+04  0.15731271711E+04  0.00000000000E+00 0.  1.
        -24    2    1    2    0    0  0.76353509128E+03  0.16709891996E+03 -0.94761301901E+03  0.12313844532E+04  0.86193695766E+02 0.  0.
        254    2    1    2    0    0 -0.76353509128E+03 -0.16709891996E+03  0.24949038596E+03  0.12167472559E+04  0.89851018208E+03 0.  0.
         23    2    4    4    0    0 -0.65323071401E+03  0.22387128026E+03 -0.58212203268E+02  0.69928235955E+03  0.93693339750E+02 0.  0.
         23    2    4    4    0    0 -0.11030437727E+03 -0.39097020022E+03  0.30770258923E+03  0.51746489631E+03  0.89801349628E+02 0.  0.
          3    1    3    3  502    0  0.38923662154E+02  0.21586869570E+02 -0.32612448348E+02  0.55178040927E+02  0.00000000000E+00 0. -1.
         -4    1    3    3    0  502  0.72461142912E+03  0.14551205039E+03 -0.91500057066E+03  0.11762064123E+04  0.00000000000E+00 0.  1.
         13    1    5    5    0    0 -0.60147482356E+03  0.21140209581E+03 -0.28197930529E+02  0.63816763690E+03  0.00000000000E+00 0. -1.
        -13    1    5    5    0    0 -0.51755890446E+02  0.12469184444E+02 -0.30014272739E+02  0.61114722650E+02  0.00000000000E+00 0.  1.
          4    1    6    6  503    0 -0.14513238900E+02 -0.20572588297E+03  0.13290620919E+03  0.24535246783E+03  0.00000000000E+00 0. -1.
         -4    1    6    6    0  503 -0.95791138368E+02 -0.18524431725E+03  0.17479638004E+03  0.27211242849E+03  0.00000000000E+00 0.  1.
<mgrwt>
<rscale>  0 0.23464811E+04</rscale>
<asrwt>0</asrwt>
<pdfrwt beam="1">  1        1 0.13461608E+00 0.23464811E+04</pdfrwt>
<pdfrwt beam="2">  1       -2 0.24201957E+00 0.23464811E+04</pdfrwt>
<totfact> 0.10839023E+00</totfact>
</mgrwt>
</event>
<event>
12    5  0.5197392E-008  0.3324268E+04  0.7818608E-02  0.8156748E-01
          1   -1    0    0  501    0  0.00000000000E+00  0.00000000000E+00  0.26295859765E+04  0.26295859765E+04  0.00000000000E+00 0. -1.
         -2   -1    0    0    0  501 -0.00000000000E+00 -0.00000000000E+00 -0.10506177952E+04  0.10506177952E+04  0.00000000000E+00 0.  1.
        -24    2    1    2    0    0  0.43893126499E+03  0.53025840641E+03 -0.79186285611E+03  0.10525081386E+04  0.83017864970E+02 0.  0.
        254    2    1    2    0    0 -0.43893126499E+03 -0.53025840641E+03  0.23708310374E+04  0.26276956332E+04  0.90006105321E+03 0.  0.
         23    2    4    4    0    0 -0.43301474458E+03 -0.10268540959E+03  0.20107957529E+04  0.20614951486E+04  0.91742167826E+02 0.  0.
         23    2    4    4    0    0 -0.59165204169E+01 -0.42757299682E+03  0.36003528451E+03  0.56620048456E+03  0.90021718495E+02 0.  0.
          3    1    3    3  502    0  0.33386687536E+02  0.83234886177E+02 -0.96713511937E+02  0.13189473292E+03  0.00000000000E+00 0. -1.
         -4    1    3    3    0  502  0.40554457746E+03  0.44702352023E+03 -0.69514934418E+03  0.92061340565E+03  0.00000000000E+00 0.  1.
         13    1    5    5    0    0 -0.92829295552E+02 -0.25239235225E+02  0.28534608245E+03  0.30112569448E+03  0.00000000000E+00 0.  1.
        -13    1    5    5    0    0 -0.34018544902E+03 -0.77446174364E+02  0.17254496705E+04  0.17603694541E+04  0.00000000000E+00 0. -1.
          4    1    6    6  503    0 -0.75357864872E+01 -0.36394736015E+02  0.42258440287E+01  0.37406184587E+02  0.00000000000E+00 0.  1.
         -4    1    6    6    0  503  0.16192660703E+01 -0.39117826080E+03  0.35580944048E+03  0.52879429998E+03  0.00000000000E+00 0. -1.
<mgrwt>
<rscale>  0 0.33242682E+04</rscale>
<asrwt>0</asrwt>
<pdfrwt beam="1">  1        1 0.40455169E+00 0.33242682E+04</pdfrwt>
<pdfrwt beam="2">  1       -2 0.16163351E+00 0.33242682E+04</pdfrwt>
<totfact> 0.19631259E-01</totfact>
</mgrwt>
</event>
<event>
12    5  0.5197392E-008  0.1628081E+04  0.7818608E-02  0.8803480E-01
          1   -1    0    0  501    0  0.00000000000E+00  0.00000000000E+00  0.12315280156E+04  0.12315280156E+04  0.00000000000E+00 0. -1.
         -2   -1    0    0    0  501 -0.00000000000E+00 -0.00000000000E+00 -0.53808123865E+03  0.53808123865E+03  0.00000000000E+00 0.  1.
        -24    2    1    2    0    0  0.43259211976E+03 -0.75780793358E+02 -0.15103825953E+03  0.47128968548E+03  0.80142005696E+02 0.  0.
        254    2    1    2    0    0 -0.43259211976E+03  0.75780793358E+02  0.84448503649E+03  0.12983195688E+04  0.88294963339E+03 0.  0.
         23    2    4    4    0    0 -0.53260228145E+03  0.33301491437E+03  0.76907748277E+03  0.99714095767E+03  0.90806340901E+02 0.  0.
         23    2    4    4    0    0  0.10001016169E+03 -0.25723412101E+03  0.75407553721E+02  0.30117861111E+03  0.94078856177E+02 0.  0.
          3    1    3    3  502    0  0.17695625550E+03 -0.25891321992E+02 -0.20684750037E+02  0.18003259649E+03  0.00000000000E+00 0. -1.
         -4    1    3    3    0  502  0.25563586426E+03 -0.49889471366E+02 -0.13035350949E+03  0.29125708899E+03  0.00000000000E+00 0.  1.
         13    1    5    5    0    0 -0.30293479435E+03  0.13676244000E+03  0.39033738136E+03  0.51267604382E+03  0.00000000000E+00 0. -1.
        -13    1    5    5    0    0 -0.22966748710E+03  0.19625247437E+03  0.37874010141E+03  0.48446491384E+03  0.00000000000E+00 0.  1.
          1    1    6    6  503    0  0.68047311353E+02 -0.56962852735E+02  0.20731299575E+02  0.91131717619E+02  0.00000000000E+00 0. -1.
         -1    1    6    6    0  503  0.31962850339E+02 -0.20027126828E+03  0.54676254146E+02  0.21004689350E+03  0.00000000000E+00 0.  1.
<mgrwt>
<rscale>  0 0.16280812E+04</rscale>
<asrwt>0</asrwt>
<pdfrwt beam="1">  1        1 0.18946585E+00 0.16280812E+04</pdfrwt>
<pdfrwt beam="2">  1       -2 0.82781730E-01 0.16280812E+04</pdfrwt>
<totfact> 0.10889028E+01</totfact>
</mgrwt>
</event>
<event>
12    5  0.6493944E-008  0.1657001E+04  0.7818608E-02  0.8786275E-01
          3   -1    0    0  501    0  0.00000000000E+00  0.00000000000E+00  0.11213766924E+04  0.11213766924E+04  0.00000000000E+00 0. -1.
         -4   -1    0    0    0  501 -0.00000000000E+00 -0.00000000000E+00 -0.61211656792E+03  0.61211656792E+03  0.00000000000E+00 0.  1.
        -24    2    1    2    0    0  0.17813289052E+03 -0.15961966465E+03  0.73123846864E+03  0.77406797462E+03  0.85216003679E+02 0.  0.
        254    2    1    2    0    0 -0.17813289052E+03  0.15961966465E+03 -0.22197834418E+03  0.95942528569E+03  0.90222654001E+03 0.  0.
         23    2    4    4    0    0  0.26966632972E+02 -0.23289733916E+03  0.21492209574E+03  0.33065840170E+03  0.90416267843E+02 0.  0.
         23    2    4    4    0    0 -0.20509952350E+03  0.39251700381E+03 -0.43690043992E+03  0.62876688399E+03  0.91270954742E+02 0.  0.
          1    1    3    3  502    0  0.18299500688E+03 -0.14358013900E+03  0.63241199411E+03  0.67383036378E+03  0.00000000000E+00 0. -1.
         -2    1    3    3    0  502 -0.48621163575E+01 -0.16039525647E+02  0.98826474532E+02  0.10023761084E+03  0.00000000000E+00 0.  1.
         13    1    5    5    0    0 -0.27698336733E+02 -0.31642227359E+02  0.45583555913E+02  0.62018456767E+02  0.00000000000E+00 0.  1.
        -13    1    5    5    0    0  0.54664969705E+02 -0.20125511181E+03  0.16933853983E+03  0.26863994493E+03  0.00000000000E+00 0. -1.
          4    1    6    6  503    0 -0.20944962183E+03  0.37876986338E+03 -0.40080744465E+03  0.58990029766E+03  0.00000000000E+00 0. -1.
         -4    1    6    6    0  503  0.43500983353E+01  0.13747140435E+02 -0.36092995270E+02  0.38866586333E+02  0.00000000000E+00 0.  1.
<mgrwt>
<rscale>  0 0.16570012E+04</rscale>
<asrwt>0</asrwt>
<pdfrwt beam="1">  1        3 0.17251949E+00 0.16570012E+04</pdfrwt>
<pdfrwt beam="2">  1       -4 0.94171780E-01 0.16570012E+04</pdfrwt>
<totfact> 0.46463704E-01</totfact>
</mgrwt>
</event>
<event>
12    5  0.5197392E-008  0.1405742E+04  0.7818608E-02  0.8949672E-01
          1   -1    0    0  501    0  0.00000000000E+00  0.00000000000E+00  0.89984155194E+03  0.89984155194E+03  0.00000000000E+00 0. -1.
         -2   -1    0    0    0  501 -0.00000000000E+00 -0.00000000000E+00 -0.54901663518E+03  0.54901663518E+03  0.00000000000E+00 0.  1.
        -24    2    1    2    0    0 -0.14239684168E+03  0.18787461126E+03  0.46173376938E+03  0.52408947257E+03  0.76798251256E+02 0.  0.
        254    2    1    2    0    0  0.14239684168E+03 -0.18787461126E+03 -0.11090885263E+03  0.92476871455E+03  0.88731204868E+03 0.  0.
         23    2    4    4    0    0 -0.33609161073E+03 -0.13848473056E+03 -0.20404459625E+03  0.42659523145E+03  0.90629481055E+02 0.  0.
         23    2    4    4    0    0  0.47848845241E+03 -0.49389880700E+02  0.93135743623E+02  0.49817348310E+03  0.90066603796E+02 0.  0.
          1    1    3    3  502    0 -0.15160251994E+03  0.17617157004E+03  0.44182597703E+03  0.49922934621E+03  0.00000000000E+00 0. -1.
         -2    1    3    3    0  502  0.92056782664E+01  0.11703041214E+02  0.19907792355E+02  0.24860126356E+02  0.00000000000E+00 0.  1.
         13    1    5    5    0    0 -0.20589904818E+03 -0.13001511268E+03 -0.14474544305E+03  0.28328358733E+03  0.00000000000E+00 0. -1.
        -13    1    5    5    0    0 -0.13019256255E+03 -0.84696178761E+01 -0.59299153203E+02  0.14331164412E+03  0.00000000000E+00 0.  1.
          4    1    6    6  503    0  0.40085301534E+02  0.18317993274E+02 -0.33543082753E+01  0.44199905663E+02  0.00000000000E+00 0. -1.
         -4    1    6    6    0  503  0.43840315087E+03 -0.67707873973E+02  0.96490051899E+02  0.45397357743E+03  0.00000000000E+00 0.  1.
<mgrwt>
<rscale>  0 0.14057425E+04</rscale>
<asrwt>0</asrwt>
<pdfrwt beam="1">  1        1 0.13843716E+00 0.14057425E+04</pdfrwt>
<pdfrwt beam="2">  1       -2 0.84464098E-01 0.14057425E+04</pdfrwt>
<totfact> 0.19006804E+01</totfact>
</mgrwt>
</event>
<event>
12    5  0.5197392E-008  0.1345595E+04  0.7818608E-02  0.8994169E-01
         -2   -1    0    0    0  501 -0.00000000000E+00  0.00000000000E+00  0.96267344273E+03  0.96267344273E+03  0.00000000000E+00 0.  1.
          1   -1    0    0  501    0  0.00000000000E+00 -0.00000000000E+00 -0.47020759561E+03  0.47020759561E+03  0.00000000000E+00 0. -1.
        -24    2    1    2    0    0 -0.34242936536E+03  0.10539796761E+03  0.24348507728E+03  0.44046574269E+03  0.79740114047E+02 0.  0.
        254    2    1    2    0    0  0.34242936536E+03 -0.10539796761E+03  0.24898076984E+03  0.99241529565E+03  0.89136417555E+03 0.  0.
         23    2    4    4    0    0  0.20028416120E+03 -0.17503697198E+03  0.56295714498E+03  0.62960796872E+03  0.93454590007E+02 0.  0.
         23    2    4    4    0    0  0.14214520416E+03  0.69639004373E+02 -0.31397637515E+03  0.36280732693E+03  0.89404375353E+02 0.  0.
          3    1    3    3  502    0 -0.45952119017E+01  0.17046779560E+02  0.87340009998E+01  0.19697498300E+02  0.00000000000E+00 0. -1.
         -2    1    3    3    0  502 -0.33783415346E+03  0.88351188047E+02  0.23475107628E+03  0.42076824439E+03  0.00000000000E+00 0.  1.
         13    1    5    5    0    0  0.18138596794E+03 -0.12699526885E+03  0.50824766218E+03  0.55438646609E+03  0.00000000000E+00 0.  1.
        -13    1    5    5    0    0  0.18898193262E+02 -0.48041703130E+02  0.54709482807E+02  0.75221502626E+02  0.00000000000E+00 0. -1.
          4    1    6    6  503    0  0.21874743520E+02  0.35116876143E+02 -0.26111071302E+02  0.48923281152E+02  0.00000000000E+00 0. -1.
         -4    1    6    6    0  503  0.12027046064E+03  0.34522128230E+02 -0.28786530385E+03  0.31388404578E+03  0.00000000000E+00 0.  1.
<mgrwt>
<rscale>  0 0.13455948E+04</rscale>
<asrwt>0</asrwt>
<pdfrwt beam="1">  1        1 0.72339630E-01 0.13455948E+04</pdfrwt>
<pdfrwt beam="2">  1       -2 0.14810361E+00 0.13455948E+04</pdfrwt>
<totfact> 0.12783670E+01</totfact>
</mgrwt>
</event>
<event>
12    5  0.5197392E-008  0.1972974E+04  0.7818608E-02  0.8619361E-01
          1   -1    0    0  501    0  0.00000000000E+00  0.00000000000E+00  0.34349532890E+04  0.34349532890E+04  0.00000000000E+00 0. -1.
         -4   -1    0    0    0  501 -0.00000000000E+00 -0.00000000000E+00 -0.28331002903E+03  0.28331002903E+03  0.00000000000E+00 0.  1.
        -24    2    1    2    0    0  0.52763255335E+03 -0.51604564467E+03  0.17257304801E+04  0.18786289857E+04  0.80012230250E+02 0.  0.
        254    2    1    2    0    0 -0.52763255335E+03  0.51604564467E+03  0.14259127799E+04  0.18396343324E+04  0.89795768409E+03 0.  0.
         23    2    4    4    0    0 -0.15946344559E+03  0.58367928334E+03  0.12959852016E+04  0.14333148967E+04  0.93294448209E+02 0.  0.
         23    2    4    4    0    0 -0.36816910776E+03 -0.67633638671E+02  0.12992757823E+03  0.40631943566E+03  0.89952805538E+02 0.  0.
          1    1    3    3  502    0  0.46203838615E+03 -0.41039492557E+03  0.14312654779E+04  0.15589818259E+04  0.00000000000E+00 0. -1.
         -2    1    3    3    0  502  0.65594167203E+02 -0.10565071910E+03  0.29446500223E+03  0.31964715978E+03  0.00000000000E+00 0.  1.
         13    1    5    5    0    0 -0.14708468219E+02  0.17988734503E+03  0.44853087476E+03  0.48348292788E+03  0.00000000000E+00 0.  1.
        -13    1    5    5    0    0 -0.14475497737E+03  0.40379193832E+03  0.84745432687E+03  0.94983196885E+03  0.00000000000E+00 0. -1.
          2    1    6    6  503    0 -0.24373448094E+03 -0.82172434543E+02  0.65404028085E+02  0.26539874357E+03  0.00000000000E+00 0. -1.
         -2    1    6    6    0  503 -0.12443462682E+03  0.14538795871E+02  0.64523550144E+02  0.14092069209E+03  0.00000000000E+00 0.  1.
<mgrwt>
<rscale>  0 0.19729741E+04</rscale>
<asrwt>0</asrwt>
<pdfrwt beam="1">  1        1 0.52845432E+00 0.19729741E+04</pdfrwt>
<pdfrwt beam="2">  1       -4 0.43586161E-01 0.19729741E+04</pdfrwt>
<totfact> 0.67134848E-01</totfact>
</mgrwt>
</event>
<event>
12    5  0.5197392E-008  0.2884963E+04  0.7818608E-02  0.8277366E-01
          1   -1    0    0  501    0  0.00000000000E+00  0.00000000000E+00  0.37066924819E+04  0.37066924819E+04  0.00000000000E+00 0. -1.
         -2   -1    0    0    0  501 -0.00000000000E+00 -0.00000000000E+00 -0.56135016964E+03  0.56135016964E+03  0.00000000000E+00 0.  1.
        -24    2    1    2    0    0  0.45172284604E+03 -0.88975774276E+03  0.18530346627E+03  0.10179813860E+04  0.78907269572E+02 0.  0.
        254    2    1    2    0    0 -0.45172284604E+03  0.88975774276E+03  0.29600388460E+04  0.32500612655E+04  0.89741065825E+03 0.  0.
         23    2    4    4    0    0 -0.17531761291E+02  0.88434362395E+03  0.17928481491E+04  0.20012955872E+04  0.92241714906E+02 0.  0.
         23    2    4    4    0    0 -0.43419108475E+03  0.54141188131E+01  0.11671906969E+04  0.12487656783E+04  0.92360086563E+02 0.  0.
          3    1    3    3  502    0  0.73375887723E+02 -0.13511705403E+03  0.57664948467E+02  0.16421292723E+03  0.00000000000E+00 0. -1.
         -4    1    3    3    0  502  0.37834695831E+03 -0.75464068873E+03  0.12763851780E+03  0.85376845876E+03  0.00000000000E+00 0.  1.
         13    1    5    5    0    0 -0.42327511910E+02  0.76688312006E+03  0.15129083379E+04  0.16967006150E+04  0.00000000000E+00 0.  1.
        -13    1    5    5    0    0  0.24795750619E+02  0.11746050390E+03  0.27993981115E+03  0.30459497220E+03  0.00000000000E+00 0. -1.
          2    1    6    6  503    0 -0.39128247990E+03  0.31175505362E+02  0.10635884959E+04  0.11337082428E+04  0.00000000000E+00 0. -1.
         -2    1    6    6    0  503 -0.42908604849E+02 -0.25761386549E+02  0.10360220103E+03  0.11505743551E+03  0.00000000000E+00 0.  1.
<mgrwt>
<rscale>  0 0.28849627E+04</rscale>
<asrwt>0</asrwt>
<pdfrwt beam="1">  1        1 0.57026037E+00 0.28849627E+04</pdfrwt>
<pdfrwt beam="2">  1       -2 0.86361567E-01 0.28849627E+04</pdfrwt>
<totfact> 0.14966028E-01</totfact>
</mgrwt>
</event>
<event>
12    5  0.5197392E-008  0.1031877E+04  0.7818608E-02  0.9274258E-01
         -4   -1    0    0    0  501 -0.00000000000E+00  0.00000000000E+00  0.32446519409E+03  0.32446519409E+03  0.00000000000E+00 0.  1.
          3   -1    0    0  501    0  0.00000000000E+00 -0.00000000000E+00 -0.82040389011E+03  0.82040389011E+03  0.00000000000E+00 0. -1.
        -24    2    1    2    0    0 -0.32461792385E+02  0.36818192779E+02 -0.16946205960E+03  0.19340624506E+03  0.79241647529E+02 0.  0.
        254    2    1    2    0    0  0.32461792385E+02 -0.36818192779E+02 -0.32647663643E+03  0.95146283913E+03  0.89234813432E+03 0.  0.
         23    2    4    4    0    0  0.33850706047E+03  0.55016676039E+02 -0.47031883239E+03  0.58912846409E+03  0.90877271445E+02 0.  0.
         23    2    4    4    0    0 -0.30604526808E+03 -0.91834868818E+02  0.14384219596E+03  0.36233437504E+03  0.92186076782E+02 0.  0.
          3    1    3    3  502    0 -0.84724055863E+01  0.50093816892E+02 -0.15348041581E+03  0.16167068437E+03  0.00000000000E+00 0. -1.
         -4    1    3    3    0  502 -0.23989386798E+02 -0.13275624113E+02 -0.15981643786E+02  0.31735560696E+02  0.00000000000E+00 0.  1.
         13    1    5    5    0    0  0.21528305954E+03  0.56878797847E+02 -0.36227239964E+03  0.42523321238E+03  0.00000000000E+00 0. -1.
        -13    1    5    5    0    0  0.12322400092E+03 -0.18621218083E+01 -0.10804643276E+03  0.16389525171E+03  0.00000000000E+00 0.  1.
          1    1    6    6  503    0 -0.27607678255E+03 -0.10894216608E+03  0.11875347746E+03  0.31967041437E+03  0.00000000000E+00 0. -1.
         -1    1    6    6    0  503 -0.29968485533E+02  0.17107297258E+02  0.25088718502E+02  0.42663960678E+02  0.00000000000E+00 0.  1.
<mgrwt>
<rscale>  0 0.10318769E+04</rscale>
<asrwt>0</asrwt>
<pdfrwt beam="1">  1        3 0.12621598E+00 0.10318769E+04</pdfrwt>
<pdfrwt beam="2">  1       -4 0.49917723E-01 0.10318769E+04</pdfrwt>
<totfact> 0.44140358E+00</totfact>
</mgrwt>
</event>
<event>
12    5  0.5197392E-008  0.1403356E+04  0.7818608E-02  0.8951393E-01
          1   -1    0    0  501    0  0.00000000000E+00  0.00000000000E+00  0.46127459470E+03  0.46127459470E+03  0.00000000000E+00 0. -1.
         -2   -1    0    0    0  501 -0.00000000000E+00 -0.00000000000E+00 -0.10673733106E+04  0.10673733106E+04  0.00000000000E+00 0.  1.
        -24    2    1    2    0    0  0.14565931777E+03  0.39840644559E+03 -0.73759073711E+02  0.43809792522E+03  0.80901535104E+02 0.  0.
        254    2    1    2    0    0 -0.14565931777E+03 -0.39840644559E+03 -0.53233964222E+03  0.10905499801E+04  0.85203839802E+03 0.  0.
         23    2    4    4    0    0  0.21181891311E+02 -0.58209046085E+03 -0.57461216280E+03  0.82318207006E+03  0.90396934084E+02 0.  0.
         23    2    4    4    0    0 -0.16684120908E+03  0.18368401526E+03  0.42272520575E+02  0.26736791006E+03  0.90126726471E+02 0.  0.
          1    1    3    3  502    0  0.13953805562E+03  0.35384623382E+03 -0.41239492585E+02  0.38259472279E+03  0.00000000000E+00 0. -1.
         -2    1    3    3    0  502  0.61212621491E+01  0.44560211770E+02 -0.32519581126E+02  0.55503202429E+02  0.00000000000E+00 0.  1.
         13    1    5    5    0    0  0.27212079316E+02 -0.47593058915E+03 -0.41877970215E+03  0.63452885031E+03  0.00000000000E+00 0. -1.
        -13    1    5    5    0    0 -0.60301880055E+01 -0.10615987171E+03 -0.15583246065E+03  0.18865321974E+03  0.00000000000E+00 0.  1.
          3    1    6    6  503    0 -0.10985819156E+02  0.81962207386E+00  0.23994293716E+02  0.26402388789E+02  0.00000000000E+00 0.  1.
         -3    1    6    6    0  503 -0.15585538992E+03  0.18286439319E+03  0.18278226859E+02  0.24096552127E+03  0.00000000000E+00 0. -1.
<mgrwt>
<rscale>  0 0.14033563E+04</rscale>
<asrwt>0</asrwt>
<pdfrwt beam="1">  1        1 0.70965323E-01 0.14033563E+04</pdfrwt>
<pdfrwt beam="2">  1       -2 0.16421128E+00 0.14033563E+04</pdfrwt>
<totfact> 0.98883815E+00</totfact>
</mgrwt>
</event>
<event>
12    5  0.5197392E-008  0.1675160E+04  0.7818608E-02  0.8775660E-01
         -2   -1    0    0    0  501 -0.00000000000E+00  0.00000000000E+00  0.15263487886E+03  0.15263487886E+03  0.00000000000E+00 0.  1.
          1   -1    0    0  501    0  0.00000000000E+00 -0.00000000000E+00 -0.45961989195E+04  0.45961989195E+04  0.00000000000E+00 0. -1.
        -24    2    1    2    0    0 -0.72365434690E+02 -0.18027501282E+03 -0.31585627990E+04  0.31655674563E+04  0.81009437255E+02 0.  0.
        254    2    1    2    0    0  0.72365434690E+02  0.18027501282E+03 -0.12850012416E+04  0.15832663420E+04  0.90430541432E+03 0.  0.
         23    2    4    4    0    0  0.29394785211E+03  0.21121637867E+03 -0.11793631760E+03  0.39145819250E+03  0.91174794155E+02 0.  0.
         23    2    4    4    0    0 -0.22158241742E+03 -0.30941365852E+02 -0.11670649240E+04  0.11918081495E+04  0.91159160352E+02 0.  0.
          1    1    3    3  502    0 -0.70895515673E+02 -0.17203531697E+03 -0.24864259461E+04  0.24933784931E+04  0.00000000000E+00 0. -1.
         -2    1    3    3    0  502 -0.14699190166E+01 -0.82396958479E+01 -0.67213685295E+03  0.67218896327E+03  0.00000000000E+00 0.  1.
         13    1    5    5    0    0  0.69801765105E+02  0.95401579592E+01 -0.35402486017E+02  0.78845653284E+02  0.00000000000E+00 0.  1.
        -13    1    5    5    0    0  0.22414608700E+03  0.20167622072E+03 -0.82533831582E+02  0.31261253922E+03  0.00000000000E+00 0. -1.
          3    1    6    6  503    0 -0.19057890166E+03 -0.40551097497E+02 -0.80308574513E+03  0.82638454929E+03  0.00000000000E+00 0. -1.
         -3    1    6    6    0  503 -0.31003515758E+02  0.96097316451E+01 -0.36397917886E+03  0.36542360019E+03  0.00000000000E+00 0.  1.
<mgrwt>
<rscale>  0 0.16751600E+04</rscale>
<asrwt>0</asrwt>
<pdfrwt beam="1">  1        1 0.70710756E+00 0.16751600E+04</pdfrwt>
<pdfrwt beam="2">  1       -2 0.23482288E-01 0.16751600E+04</pdfrwt>
<totfact> 0.35241079E-01</totfact>
</mgrwt>
</event>
<event>
12    5  0.5197392E-008  0.3157972E+04  0.7818608E-02  0.8200006E-01
          1   -1    0    0  501    0  0.00000000000E+00  0.00000000000E+00  0.32839802884E+04  0.32839802884E+04  0.00000000000E+00 0. -1.
         -2   -1    0    0    0  501 -0.00000000000E+00 -0.00000000000E+00 -0.75919949824E+03  0.75919949824E+03  0.00000000000E+00 0.  1.
        -24    2    1    2    0    0  0.12111401915E+04  0.79204112148E+03  0.12393028898E+04  0.19068763714E+04  0.78205765083E+02 0.  0.
        254    2    1    2    0    0 -0.12111401915E+04 -0.79204112148E+03  0.12854779003E+04  0.21363034152E+04  0.90396302348E+03 0.  0.
         23    2    4    4    0    0 -0.13043335175E+04 -0.61521636073E+03  0.93250739764E+03  0.17200376957E+04  0.95825531955E+02 0.  0.
         23    2    4    4    0    0  0.93193325991E+02 -0.17682476074E+03  0.35297050270E+03  0.41626571948E+03  0.93471821502E+02 0.  0.
          3    1    3    3  502    0  0.10059991539E+03  0.68757279453E+02  0.13430939747E+03  0.18134751364E+03  0.00000000000E+00 0. -1.
         -4    1    3    3    0  502  0.11105402761E+04  0.72328384202E+03  0.11049934923E+04  0.17255288578E+04  0.00000000000E+00 0.  1.
         13    1    5    5    0    0 -0.42461122619E+03 -0.15131617837E+03  0.28739508598E+03  0.53459069828E+03  0.00000000000E+00 0.  1.
        -13    1    5    5    0    0 -0.87972229131E+03 -0.46390018237E+03  0.64511231166E+03  0.11854469974E+04  0.00000000000E+00 0. -1.
          2    1    6    6  503    0  0.10526960820E+03 -0.10942121406E+03  0.25376928238E+03  0.29572544898E+03  0.00000000000E+00 0. -1.
         -2    1    6    6    0  503 -0.12076282211E+02 -0.67403546687E+02  0.99201220324E+02  0.12054027050E+03  0.00000000000E+00 0.  1.
<mgrwt>
<rscale>  0 0.31579716E+04</rscale>
<asrwt>0</asrwt>
<pdfrwt beam="1">  1        1 0.50522773E+00 0.31579716E+04</pdfrwt>
<pdfrwt beam="2">  1       -2 0.11679992E+00 0.31579716E+04</pdfrwt>
<totfact> 0.15397893E-01</totfact>
</mgrwt>
</event>
<event>
12    5  0.5197392E-008  0.1335371E+04  0.7818608E-02  0.9001976E-01
          1   -1    0    0  501    0  0.00000000000E+00  0.00000000000E+00  0.60254062388E+03  0.60254062388E+03  0.00000000000E+00 0. -1.
         -2   -1    0    0    0  501 -0.00000000000E+00 -0.00000000000E+00 -0.73987405194E+03  0.73987405194E+03  0.00000000000E+00 0.  1.
        -24    2    1    2    0    0  0.23795782291E+03 -0.24286400960E+03  0.12008964832E+03  0.36949773655E+03  0.80623824255E+02 0.  0.
        254    2    1    2    0    0 -0.23795782291E+03  0.24286400960E+03 -0.25742307639E+03  0.97291693927E+03  0.87446776831E+03 0.  0.
         23    2    4    4    0    0 -0.34468589791E+03  0.10901821205E+02 -0.49688232512E+03  0.61095578653E+03  0.86300116772E+02 0.  0.
         23    2    4    4    0    0  0.10672807500E+03  0.23196218840E+03  0.23945924873E+03  0.36196115274E+03  0.92074999074E+02 0.  0.
          3    1    3    3  502    0  0.55900781803E+02 -0.97247645202E+02  0.66108552726E+02  0.13020116223E+03  0.00000000000E+00 0. -1.
         -4    1    3    3    0  502  0.18205704111E+03 -0.14561636440E+03  0.53981095597E+02  0.23929657432E+03  0.00000000000E+00 0.  1.
         13    1    5    5    0    0 -0.57147386586E+02 -0.48063031224E+01 -0.14710894624E+03  0.15789226203E+03  0.00000000000E+00 0.  1.
        -13    1    5    5    0    0 -0.28753851132E+03  0.15708124327E+02 -0.34977337887E+03  0.45306352450E+03  0.00000000000E+00 0. -1.
          4    1    6    6  503    0  0.94379968660E+02  0.10163136809E+03  0.14406149004E+03  0.19997556445E+03  0.00000000000E+00 0. -1.
         -4    1    6    6    0  503  0.12348106339E+02  0.13033082031E+03  0.95397758688E+02  0.16198558829E+03  0.00000000000E+00 0.  1.
<mgrwt>
<rscale>  0 0.13353714E+04</rscale>
<asrwt>0</asrwt>
<pdfrwt beam="1">  1        1 0.92698557E-01 0.13353714E+04</pdfrwt>
<pdfrwt beam="2">  1       -2 0.11382678E+00 0.13353714E+04</pdfrwt>
<totfact> 0.17645847E+01</totfact>
</mgrwt>
</event>
<event>
12    5  0.5197392E-008  0.1780363E+04  0.7818608E-02  0.8716813E-01
          1   -1    0    0  501    0  0.00000000000E+00  0.00000000000E+00  0.99236492206E+03  0.99236492206E+03  0.00000000000E+00 0. -1.
         -2   -1    0    0    0  501 -0.00000000000E+00 -0.00000000000E+00 -0.79851956711E+03  0.79851956711E+03  0.00000000000E+00 0.  1.
        -24    2    1    2    0    0 -0.32885200264E+03 -0.79013227539E+02  0.66002231080E+03  0.74619223630E+03  0.82381266055E+02 0.  0.
        254    2    1    2    0    0  0.32885200264E+03  0.79013227539E+02 -0.46617695585E+03  0.10446922529E+04  0.87159292061E+03 0.  0.
         23    2    4    4    0    0  0.11215151594E+02  0.29002808396E+03  0.13050689009E+03  0.33066776031E+03  0.89816759198E+02 0.  0.
         23    2    4    4    0    0  0.31763685105E+03 -0.21101485642E+03 -0.59668384594E+03  0.71402449256E+03  0.91536469212E+02 0.  0.
          1    1    3    3  502    0 -0.30531072476E+03 -0.85390549762E+02  0.56271510222E+03  0.64587496539E+03  0.00000000000E+00 0. -1.
         -2    1    3    3    0  502 -0.23541277880E+02  0.63773222226E+01  0.97307208580E+02  0.10031727092E+03  0.00000000000E+00 0.  1.
         13    1    5    5    0    0  0.50249117300E+00 -0.61637626489E+01  0.76269836169E+01  0.98191316553E+01  0.00000000000E+00 0. -1.
        -13    1    5    5    0    0  0.10712660421E+02  0.29619184661E+03  0.12287990647E+03  0.32084862865E+03  0.00000000000E+00 0.  1.
          3    1    6    6  503    0  0.10755367817E+02  0.71425606784E+01 -0.39441655543E+02  0.41501063865E+02  0.00000000000E+00 0. -1.
         -3    1    6    6    0  503  0.30688148323E+03 -0.21815741710E+03 -0.55724219040E+03  0.67252342870E+03  0.00000000000E+00 0.  1.
<mgrwt>
<rscale>  0 0.17803627E+04</rscale>
<asrwt>0</asrwt>
<pdfrwt beam="1">  1        1 0.15267153E+00 0.17803627E+04</pdfrwt>
<pdfrwt beam="2">  1       -2 0.12284916E+00 0.17803627E+04</pdfrwt>
<totfact> 0.63654329E+00</totfact>
</mgrwt>
</event>
<event>
12    5  0.5197392E-008  0.2104999E+04  0.7818608E-02  0.8559044E-01
         -2   -1    0    0    0  501 -0.00000000000E+00  0.00000000000E+00  0.61405303642E+03  0.61405303642E+03  0.00000000000E+00 0.  1.
          1   -1    0    0  501    0  0.00000000000E+00 -0.00000000000E+00 -0.18040058097E+04  0.18040058097E+04  0.00000000000E+00 0. -1.
        -24    2    1    2    0    0 -0.43735210741E+03 -0.73258592618E+03 -0.46161045348E+03  0.97339454455E+03  0.80335070202E+02 0.  0.
        254    2    1    2    0    0  0.43735210741E+03  0.73258592618E+03 -0.72834231977E+03  0.14446643015E+04  0.91028204655E+03 0.  0.
         23    2    4    4    0    0 -0.71510673339E+02  0.65443447908E+03 -0.62573545865E+03  0.91277837268E+03  0.90670996525E+02 0.  0.
         23    2    4    4    0    0  0.50886278075E+03  0.78151447110E+02 -0.10260686113E+03  0.53188592886E+03  0.85589105929E+02 0.  0.
          1    1    3    3  502    0 -0.14886486894E+03 -0.25547700990E+03 -0.20388329436E+03  0.35916242776E+03  0.00000000000E+00 0. -1.
         -2    1    3    3    0  502 -0.28848723847E+03 -0.47710891628E+03 -0.25772715912E+03  0.61423211680E+03  0.00000000000E+00 0.  1.
         13    1    5    5    0    0 -0.76888447617E+02  0.65422564444E+03 -0.61724618530E+03  0.90272691358E+03  0.00000000000E+00 0.  1.
        -13    1    5    5    0    0  0.53777742783E+01  0.20883463170E+00 -0.84892733442E+01  0.10051459098E+02  0.00000000000E+00 0. -1.
          1    1    6    6  503    0  0.21921181833E+03 -0.68889325213E+01 -0.29618917688E+02  0.22131100057E+03  0.00000000000E+00 0. -1.
         -1    1    6    6    0  503  0.28965096242E+03  0.85040379631E+02 -0.72987943438E+02  0.31057492830E+03  0.00000000000E+00 0.  1.
<mgrwt>
<rscale>  0 0.21049990E+04</rscale>
<asrwt>0</asrwt>
<pdfrwt beam="1">  1        1 0.27753935E+00 0.21049990E+04</pdfrwt>
<pdfrwt beam="2">  1       -2 0.94469700E-01 0.21049990E+04</pdfrwt>
<totfact> 0.30861117E+00</totfact>
</mgrwt>
</event>
<event>
12    5  0.5197392E-008  0.1258077E+04  0.7818608E-02  0.9063488E-01
         -2   -1    0    0    0  501 -0.00000000000E+00  0.00000000000E+00  0.19027222230E+03  0.19027222230E+03  0.00000000000E+00 0.  1.
          1   -1    0    0  501    0  0.00000000000E+00 -0.00000000000E+00 -0.20795960716E+04  0.20795960716E+04  0.00000000000E+00 0. -1.
        -24    2    1    2    0    0  0.15814587885E+03  0.17155820208E+03 -0.12506746059E+03  0.28019007860E+03  0.91772952168E+02 0.  0.
        254    2    1    2    0    0 -0.15814587885E+03 -0.17155820208E+03 -0.17642563887E+04  0.19896782153E+04  0.88981821717E+03 0.  0.
         23    2    4    4    0    0  0.26083264889E+03 -0.32996183715E+03 -0.11181825810E+04  0.11982756193E+04  0.92863828995E+02 0.  0.
         23    2    4    4    0    0 -0.41897852774E+03  0.15840363507E+03 -0.64607380766E+03  0.79140259591E+03  0.90950456611E+02 0.  0.
          3    1    3    3  502    0  0.12183554754E+02 -0.10228123933E+02 -0.16822157433E+02  0.23152505401E+02  0.00000000000E+00 0. -1.
         -4    1    3    3    0  502  0.14596232409E+03  0.18178632601E+03 -0.10824530315E+03  0.25703757320E+03  0.00000000000E+00 0.  1.
         13    1    5    5    0    0  0.24279645851E+03 -0.30960671330E+03 -0.95553550096E+03  0.10333704712E+04  0.00000000000E+00 0. -1.
        -13    1    5    5    0    0  0.18036190381E+02 -0.20355123852E+02 -0.16264708005E+03  0.16490514813E+03  0.00000000000E+00 0.  1.
          2    1    6    6  503    0 -0.39736384348E+03  0.16377175921E+03 -0.58146868480E+03  0.72306641785E+03  0.00000000000E+00 0. -1.
         -2    1    6    6    0  503 -0.21614684264E+02 -0.53681241328E+01 -0.64605122858E+02  0.68336178061E+02  0.00000000000E+00 0.  1.
<mgrwt>
<rscale>  0 0.12580769E+04</rscale>
<asrwt>0</asrwt>
<pdfrwt beam="1">  1        1 0.31993787E+00 0.12580769E+04</pdfrwt>
<pdfrwt beam="2">  1       -2 0.29272649E-01 0.12580769E+04</pdfrwt>
<totfact> 0.24485670E+01</totfact>
</mgrwt>
</event>
<event>
12    5  0.5197392E-008  0.1829380E+04  0.7818608E-02  0.8690830E-01
         -2   -1    0    0    0  501 -0.00000000000E+00  0.00000000000E+00  0.36361654792E+03  0.36361654792E+03  0.00000000000E+00 0.  1.
          1   -1    0    0  501    0  0.00000000000E+00 -0.00000000000E+00 -0.23009350201E+04  0.23009350201E+04  0.00000000000E+00 0. -1.
        -24    2    1    2    0    0 -0.64646684191E+03 -0.22621362899E+03 -0.90779616297E+03  0.11400220358E+04  0.80401398536E+02 0.  0.
        254    2    1    2    0    0  0.64646684191E+03  0.22621362899E+03 -0.10295223092E+04  0.15245295323E+04  0.89172985032E+03 0.  0.
         23    2    4    4    0    0  0.40056352801E+03 -0.13569467822E+03 -0.33212236508E+02  0.43250710113E+03  0.84232738301E+02 0.  0.
         23    2    4    4    0    0  0.24590331390E+03  0.36190830722E+03 -0.99631007274E+03  0.10920224312E+04  0.91832273778E+02 0.  0.
          3    1    3    3  502    0 -0.24147182145E+03 -0.94805729194E+02 -0.40755222363E+03  0.48311032056E+03  0.00000000000E+00 0. -1.
         -4    1    3    3    0  502 -0.40499502046E+03 -0.13140789980E+03 -0.50024393934E+03  0.65691171521E+03  0.00000000000E+00 0.  1.
         13    1    5    5    0    0  0.35833303019E+03 -0.12266585309E+03 -0.26183749470E+01  0.37875629094E+03  0.00000000000E+00 0. -1.
        -13    1    5    5    0    0  0.42230497817E+02 -0.13028825131E+02 -0.30593861561E+02  0.53750810184E+02  0.00000000000E+00 0.  1.
          3    1    6    6  503    0  0.24302092716E+03  0.36738940564E+03 -0.97621580008E+03  0.10709955344E+04  0.00000000000E+00 0. -1.
         -3    1    6    6    0  503  0.28823867389E+01 -0.54810984207E+01 -0.20094272661E+02  0.21026896751E+02  0.00000000000E+00 0.  1.
<mgrwt>
<rscale>  0 0.18293803E+04</rscale>
<asrwt>0</asrwt>
<pdfrwt beam="1">  1        1 0.35399000E+00 0.18293803E+04</pdfrwt>
<pdfrwt beam="2">  1       -2 0.55941009E-01 0.18293803E+04</pdfrwt>
<totfact> 0.46124749E+00</totfact>
</mgrwt>
</event>
<event>
12    5  0.5197392E-008  0.1893582E+04  0.7818608E-02  0.8658057E-01
         -4   -1    0    0    0  501 -0.00000000000E+00  0.00000000000E+00  0.89209632912E+03  0.89209632912E+03  0.00000000000E+00 0.  1.
          1   -1    0    0  501    0  0.00000000000E+00 -0.00000000000E+00 -0.10048393191E+04  0.10048393191E+04  0.00000000000E+00 0. -1.
        -24    2    1    2    0    0 -0.68139588232E+03  0.25469939535E+03  0.37462501667E+02  0.73277736912E+03  0.79919354567E+02 0.  0.
        254    2    1    2    0    0  0.68139588232E+03 -0.25469939535E+03 -0.15020549166E+03  0.11641582791E+04  0.89639872749E+03 0.  0.
         23    2    4    4    0    0  0.79171301566E+03 -0.43100096471E+03 -0.29198349989E+02  0.90682411963E+03  0.94372186316E+02 0.  0.
         23    2    4    4    0    0 -0.11031713334E+03  0.17630156936E+03 -0.12100714167E+03  0.25733415947E+03  0.91247071352E+02 0.  0.
          1    1    3    3  502    0 -0.54518468543E+03  0.19199613532E+03 -0.86949451470E+00  0.57800485571E+03  0.00000000000E+00 0. -1.
         -2    1    3    3    0  502 -0.13621119689E+03  0.62703260034E+02  0.38331996182E+02  0.15477251341E+03  0.00000000000E+00 0.  1.
         13    1    5    5    0    0  0.44760762994E+03 -0.25256217891E+03 -0.62715687044E+02  0.51775815011E+03  0.00000000000E+00 0.  1.
        -13    1    5    5    0    0  0.34410538572E+03 -0.17843878580E+03  0.33517337055E+02  0.38906596952E+03  0.00000000000E+00 0. -1.
          1    1    6    6  503    0 -0.13065376955E+02 -0.71731509587E+01 -0.23730161610E+02  0.28022825334E+02  0.00000000000E+00 0. -1.
         -1    1    6    6    0  503 -0.97251756390E+02  0.18347472032E+03 -0.97276980058E+02  0.22931133414E+03  0.00000000000E+00 0.  1.
<mgrwt>
<rscale>  0 0.18935823E+04</rscale>
<asrwt>0</asrwt>
<pdfrwt beam="1">  1        1 0.15459066E+00 0.18935823E+04</pdfrwt>
<pdfrwt beam="2">  1       -4 0.13724559E+00 0.18935823E+04</pdfrwt>
<totfact> 0.25636309E+00</totfact>
</mgrwt>
</event>
<event>
12    5  0.5197392E-008  0.2122369E+04  0.7818608E-02  0.8551453E-01
          3   -1    0    0  501    0  0.00000000000E+00  0.00000000000E+00  0.13677346460E+04  0.13677346460E+04  0.00000000000E+00 0. -1.
         -4   -1    0    0    0  501 -0.00000000000E+00 -0.00000000000E+00 -0.82334174773E+03  0.82334174773E+03  0.00000000000E+00 0.  1.
        -24    2    1    2    0    0  0.55087230496E+03  0.52282505421E+03 -0.20486721763E+03  0.79062228905E+03  0.79414692571E+02 0.  0.
        254    2    1    2    0    0 -0.55087230496E+03 -0.52282505421E+03  0.74926011589E+03  0.14004541047E+04  0.90723461375E+03 0.  0.
         23    2    4    4    0    0  0.64273395661E+02 -0.25852662965E+03  0.66200848959E+03  0.71919689475E+03  0.89564755912E+02 0.  0.
         23    2    4    4    0    0 -0.61514570062E+03 -0.26429842456E+03  0.87251626304E+02  0.68125720994E+03  0.90778023665E+02 0.  0.
          1    1    3    3  502    0  0.25885328602E+03  0.20938098948E+03 -0.59322620646E+02  0.33817834904E+03  0.00000000000E+00 0. -1.
         -2    1    3    3    0  502  0.29201901894E+03  0.31344406474E+03 -0.14554459698E+03  0.45244394001E+03  0.00000000000E+00 0.  1.
         13    1    5    5    0    0  0.74599651323E+02 -0.15762415280E+03  0.48203726881E+03  0.51261136355E+03  0.00000000000E+00 0.  1.
        -13    1    5    5    0    0 -0.10326255663E+02 -0.10090247685E+03  0.17997122078E+03  0.20658553120E+03  0.00000000000E+00 0. -1.
          3    1    6    6  503    0 -0.43591819186E+03 -0.14153346581E+03  0.64280803742E+02  0.46280494128E+03  0.00000000000E+00 0. -1.
         -3    1    6    6    0  503 -0.17922750876E+03 -0.12276495876E+03  0.22970822562E+02  0.21845226866E+03  0.00000000000E+00 0.  1.
<mgrwt>
<rscale>  0 0.21223695E+04</rscale>
<asrwt>0</asrwt>
<pdfrwt beam="1">  1        3 0.21042072E+00 0.21223695E+04</pdfrwt>
<pdfrwt beam="2">  1       -4 0.12666796E+00 0.21223695E+04</pdfrwt>
<totfact> 0.12338049E-01</totfact>
</mgrwt>
</event>
<event>
12    5  0.5197392E-008  0.1381791E+04  0.7818608E-02  0.8967105E-01
          1   -1    0    0  501    0  0.00000000000E+00  0.00000000000E+00  0.76496595249E+03  0.76496595249E+03  0.00000000000E+00 0. -1.
         -2   -1    0    0    0  501 -0.00000000000E+00 -0.00000000000E+00 -0.62399737302E+03  0.62399737302E+03  0.00000000000E+00 0.  1.
        -24    2    1    2    0    0  0.20221866102E+03  0.44162668640E+02  0.38733884632E+03  0.44639077603E+03  0.79941321558E+02 0.  0.
        254    2    1    2    0    0 -0.20221866102E+03 -0.44162668640E+02 -0.24637026685E+03  0.94257254948E+03  0.88594693661E+03 0.  0.
         23    2    4    4    0    0 -0.18038941214E+03 -0.35873928785E+02  0.31358141428E+03  0.37484643805E+03  0.91374339734E+02 0.  0.
         23    2    4    4    0    0 -0.21829248872E+02 -0.82887398553E+01 -0.55995168112E+03  0.56772611143E+03  0.90674324307E+02 0.  0.
          1    1    3    3  502    0  0.12318890122E+03  0.65147381357E+02  0.26161981393E+03  0.29641965812E+03  0.00000000000E+00 0. -1.
         -2    1    3    3    0  502  0.79029759798E+02 -0.20984712716E+02  0.12571903239E+03  0.14997111791E+03  0.00000000000E+00 0.  1.
         13    1    5    5    0    0 -0.33971600586E+02  0.25639108378E+02  0.39439783881E+02  0.58025253789E+02  0.00000000000E+00 0. -1.
        -13    1    5    5    0    0 -0.14641781156E+03 -0.61513037163E+02  0.27414163040E+03  0.31682118426E+03  0.00000000000E+00 0.  1.
          1    1    6    6  503    0 -0.29438825985E+02 -0.46075568049E+02 -0.30186737140E+03  0.30677925674E+03  0.00000000000E+00 0. -1.
         -1    1    6    6    0  503  0.76095771131E+01  0.37786828193E+02 -0.25808430972E+03  0.26094685469E+03  0.00000000000E+00 0.  1.
<mgrwt>
<rscale>  0 0.13817912E+04</rscale>
<asrwt>0</asrwt>
<pdfrwt beam="1">  1        1 0.11768707E+00 0.13817912E+04</pdfrwt>
<pdfrwt beam="2">  1       -2 0.95999596E-01 0.13817912E+04</pdfrwt>
<totfact> 0.18470484E+01</totfact>
</mgrwt>
</event>
<event>
12    5  0.5197392E-008  0.2391050E+04  0.7818608E-02  0.8442862E-01
         -2   -1    0    0    0  501 -0.00000000000E+00  0.00000000000E+00  0.10679791997E+04  0.10679791997E+04  0.00000000000E+00 0.  1.
          1   -1    0    0  501    0  0.00000000000E+00 -0.00000000000E+00 -0.13383032027E+04  0.13383032027E+04  0.00000000000E+00 0. -1.
        -24    2    1    2    0    0 -0.58064738833E+03  0.72242734689E+03  0.34775515840E+03  0.99321425930E+03  0.80549696248E+02 0.  0.
        254    2    1    2    0    0  0.58064738833E+03 -0.72242734689E+03 -0.61807916135E+03  0.14130681431E+04  0.86930263209E+03 0.  0.
         23    2    4    4    0    0 -0.65961901252E+02 -0.37964595247E+01 -0.40250143593E+03  0.41815008230E+03  0.92068995206E+02 0.  0.
         23    2    4    4    0    0  0.64660928958E+03 -0.71863088737E+03 -0.21557772543E+03  0.99491806077E+03  0.94097111029E+02 0.  0.
          3    1    3    3  502    0 -0.40658828285E+02  0.45496406798E+02  0.27092567626E+01  0.61077028589E+02  0.00000000000E+00 0. -1.
         -2    1    3    3    0  502 -0.53998856005E+03  0.67693094009E+03  0.34504590163E+03  0.93213723071E+03  0.00000000000E+00 0.  1.
         13    1    5    5    0    0 -0.52481356154E+02 -0.25337045462E+02 -0.10944332615E+03  0.12399233951E+03  0.00000000000E+00 0. -1.
        -13    1    5    5    0    0 -0.13480545097E+02  0.21540585938E+02 -0.29305810977E+03  0.29415774279E+03  0.00000000000E+00 0.  1.
          3    1    6    6  503    0  0.55678908369E+03 -0.66047325780E+03 -0.18251191653E+03  0.88292106536E+03  0.00000000000E+00 0.  1.
         -3    1    6    6    0  503  0.89820205898E+02 -0.58157629568E+02 -0.33065808893E+02  0.11199699542E+03  0.00000000000E+00 0. -1.
<mgrwt>
<rscale>  0 0.23910500E+04</rscale>
<asrwt>0</asrwt>
<pdfrwt beam="1">  1        1 0.20589280E+00 0.23910500E+04</pdfrwt>
<pdfrwt beam="2">  1       -2 0.16430449E+00 0.23910500E+04</pdfrwt>
<totfact> 0.15660989E+00</totfact>
</mgrwt>
</event>
<event>
12    5  0.5197392E-008  0.2561423E+04  0.7818608E-02  0.8381424E-01
         -2   -1    0    0    0  501 -0.00000000000E+00  0.00000000000E+00  0.14173564414E+04  0.14173564414E+04  0.00000000000E+00 0.  1.
          1   -1    0    0  501    0  0.00000000000E+00 -0.00000000000E+00 -0.11572399147E+04  0.11572399147E+04  0.00000000000E+00 0. -1.
        -24    2    1    2    0    0 -0.32151216096E+03 -0.97265941808E+03 -0.34625395538E+03  0.10842202022E+04  0.78773294852E+02 0.  0.
        254    2    1    2    0    0  0.32151216096E+03  0.97265941808E+03  0.60637048212E+03  0.14903761539E+04  0.89671595576E+03 0.  0.
         23    2    4    4    0    0  0.80672540626E+02  0.10490094638E+04  0.61138342697E+03  0.12200854202E+04  0.88824680013E+02 0.  0.
         23    2    4    4    0    0  0.24083962034E+03 -0.76350045706E+02 -0.50129448443E+01  0.27029073375E+03  0.95910890581E+02 0.  0.
          1    1    3    3  502    0 -0.20832581310E+03 -0.68702335662E+03 -0.20904417073E+03  0.74773003301E+03  0.00000000000E+00 0. -1.
         -2    1    3    3    0  502 -0.11318634786E+03 -0.28563606146E+03 -0.13720978465E+03  0.33649016918E+03  0.00000000000E+00 0.  1.
         13    1    5    5    0    0  0.67805393662E+02  0.85616172815E+03  0.53748255833E+03  0.10131623644E+04  0.00000000000E+00 0.  1.
        -13    1    5    5    0    0  0.12867146964E+02  0.19284773563E+03  0.73900868634E+02  0.20692305574E+03  0.00000000000E+00 0. -1.
          1    1    6    6  503    0  0.10308322353E+03  0.64035139417E+01  0.26275023334E+02  0.10657172616E+03  0.00000000000E+00 0. -1.
         -1    1    6    6    0  503  0.13775639680E+03 -0.82753559648E+02 -0.31287968178E+02  0.16371900759E+03  0.00000000000E+00 0.  1.
<mgrwt>
<rscale>  0 0.25614226E+04</rscale>
<asrwt>0</asrwt>
<pdfrwt beam="1">  1        1 0.17803691E+00 0.25614226E+04</pdfrwt>
<pdfrwt beam="2">  1       -2 0.21805484E+00 0.25614226E+04</pdfrwt>
<totfact> 0.90581504E-01</totfact>
</mgrwt>
</event>
<event>
12    5  0.5197392E-008  0.1818643E+04  0.7818608E-02  0.8696448E-01
         -2   -1    0    0    0  501 -0.00000000000E+00  0.00000000000E+00  0.46160575296E+03  0.46160575296E+03  0.00000000000E+00 0.  1.
          1   -1    0    0  501    0  0.00000000000E+00 -0.00000000000E+00 -0.17912805138E+04  0.17912805138E+04  0.00000000000E+00 0. -1.
        -24    2    1    2    0    0 -0.46982687729E+03  0.26182642464E+03  0.18751281132E+02  0.54258297964E+03  0.68951490049E+02 0.  0.
        254    2    1    2    0    0  0.46982687729E+03 -0.26182642464E+03 -0.13484260420E+04  0.17103032872E+04  0.90420914178E+03 0.  0.
         23    2    4    4    0    0 -0.21656173556E+03 -0.21401558310E+03 -0.23251576391E+03  0.39610539517E+03  0.10066900462E+03 0.  0.
         23    2    4    4    0    0  0.68638861285E+03 -0.47810841540E+02 -0.11159102781E+04  0.13141978920E+04  0.91897476429E+02 0.  0.
          3    1    3    3  502    0 -0.20212666068E+03  0.92269855481E+02 -0.21174270725E+02  0.22319781121E+03  0.00000000000E+00 0. -1.
         -4    1    3    3    0  502 -0.26770021662E+03  0.16955656916E+03  0.39925551857E+02  0.31938516843E+03  0.00000000000E+00 0.  1.
         13    1    5    5    0    0 -0.83761502305E+02 -0.31063216531E+02 -0.99861730119E+02  0.13398984227E+03  0.00000000000E+00 0.  1.
        -13    1    5    5    0    0 -0.13280023326E+03 -0.18295236657E+03 -0.13265403380E+03  0.26211555289E+03  0.00000000000E+00 0. -1.
          3    1    6    6  503    0  0.59873744813E+03 -0.11009539214E+02 -0.95036983093E+03  0.11233034128E+04  0.00000000000E+00 0. -1.
         -3    1    6    6    0  503  0.87651164718E+02 -0.36801302326E+02 -0.16554044717E+03  0.19089447917E+03  0.00000000000E+00 0.  1.
<mgrwt>
<rscale>  0 0.18186428E+04</rscale>
<asrwt>0</asrwt>
<pdfrwt beam="1">  1        1 0.27558162E+00 0.18186428E+04</pdfrwt>
<pdfrwt beam="2">  1       -2 0.71016270E-01 0.18186428E+04</pdfrwt>
<totfact> 0.61524630E+00</totfact>
</mgrwt>
</event>
<event>
12    5  0.5197392E-008  0.2907131E+04  0.7818608E-02  0.8270759E-01
         -2   -1    0    0    0  501 -0.00000000000E+00  0.00000000000E+00  0.67099949204E+03  0.67099949204E+03  0.00000000000E+00 0.  1.
          1   -1    0    0  501    0  0.00000000000E+00 -0.00000000000E+00 -0.31488145015E+04  0.31488145015E+04  0.00000000000E+00 0. -1.
        -24    2    1    2    0    0 -0.12583350576E+04 -0.12558057451E+03 -0.66205969865E+03  0.14296230663E+04  0.79507668769E+02 0.  0.
        254    2    1    2    0    0  0.12583350576E+04  0.12558057451E+03 -0.18157553108E+04  0.23901909272E+04  0.90380734778E+03 0.  0.
         23    2    4    4    0    0  0.50035433377E+03  0.44552046814E+03 -0.11206512052E+04  0.13092862970E+04  0.97614225571E+02 0.  0.
         23    2    4    4    0    0  0.75798072380E+03 -0.31993989363E+03 -0.69510410558E+03  0.10809046301E+04  0.91042784891E+02 0.  0.
          3    1    3    3  502    0 -0.23345167910E+03  0.74585866247E+01 -0.11824367744E+03  0.26179550081E+03  0.00000000000E+00 0. -1.
         -4    1    3    3    0  502 -0.10248833785E+04 -0.13303916113E+03 -0.54381602122E+03  0.11678275655E+04  0.00000000000E+00 0.  1.
         13    1    5    5    0    0  0.30431613359E+00 -0.10210757952E+01 -0.23484474751E+02  0.23508631572E+02  0.00000000000E+00 0. -1.
        -13    1    5    5    0    0  0.50005001764E+03  0.44654154393E+03 -0.10971667304E+04  0.12857776654E+04  0.00000000000E+00 0.  1.
          3    1    6    6  503    0  0.34474430545E+03 -0.12479967484E+03 -0.36337722370E+03  0.51620403106E+03  0.00000000000E+00 0. -1.
         -3    1    6    6    0  503  0.41323641835E+03 -0.19514021879E+03 -0.33172688188E+03  0.56470059909E+03  0.00000000000E+00 0.  1.
<mgrwt>
<rscale>  0 0.29071312E+04</rscale>
<asrwt>0</asrwt>
<pdfrwt beam="1">  1        1 0.48443299E+00 0.29071312E+04</pdfrwt>
<pdfrwt beam="2">  1       -2 0.10323069E+00 0.29071312E+04</pdfrwt>
<totfact> 0.26815917E-01</totfact>
</mgrwt>
</event>
<event>
12    5  0.5197392E-008  0.1317329E+04  0.7818608E-02  0.9015935E-01
          1   -1    0    0  501    0  0.00000000000E+00  0.00000000000E+00  0.11701722479E+04  0.11701722479E+04  0.00000000000E+00 0. -1.
         -2   -1    0    0    0  501 -0.00000000000E+00 -0.00000000000E+00 -0.37074812041E+03  0.37074812041E+03  0.00000000000E+00 0.  1.
        -24    2    1    2    0    0 -0.24924931561E+02  0.38120584849E+02 -0.18597913469E+03  0.20679356878E+03  0.78108324426E+02 0.  0.
        254    2    1    2    0    0  0.24924931561E+02 -0.38120584849E+02  0.98540326216E+03  0.13341267995E+04  0.89822062819E+03 0.  0.
         23    2    4    4    0    0 -0.39543859593E+03 -0.56277533920E+02  0.24459348410E+03  0.47716340249E+03  0.91214561559E+02 0.  0.
         23    2    4    4    0    0  0.42036352749E+03  0.18156949070E+02  0.74080977806E+03  0.85696339703E+03  0.92476843202E+02 0.  0.
          3    1    3    3  502    0 -0.63201109141E+01 -0.15891917454E+02 -0.62579405095E+01  0.18211498064E+02  0.00000000000E+00 0. -1.
         -4    1    3    3    0  502 -0.18604820647E+02  0.54012502303E+02 -0.17972119419E+03  0.18858207072E+03  0.00000000000E+00 0.  1.
         13    1    5    5    0    0 -0.32827065359E+03 -0.52712382701E+02  0.23940503513E+03  0.40970109610E+03  0.00000000000E+00 0.  1.
        -13    1    5    5    0    0 -0.67167942331E+02 -0.35651512183E+01  0.51884489648E+01  0.67462306386E+02  0.00000000000E+00 0. -1.
          3    1    6    6  503    0  0.31822644078E+03  0.46727227697E+00  0.62626818339E+03  0.70248140437E+03  0.00000000000E+00 0. -1.
         -3    1    6    6    0  503  0.10213708670E+03  0.17689676794E+02  0.11454159467E+03  0.15448199266E+03  0.00000000000E+00 0.  1.
<mgrwt>
<rscale>  0 0.13173294E+04</rscale>
<asrwt>0</asrwt>
<pdfrwt beam="1">  1        1 0.18002650E+00 0.13173294E+04</pdfrwt>
<pdfrwt beam="2">  1       -2 0.57038173E-01 0.13173294E+04</pdfrwt>
<totfact> 0.27867408E+01</totfact>
</mgrwt>
</event>
<event>
12    5  0.5197392E-008  0.1297030E+04  0.7818608E-02  0.9031923E-01
          1   -1    0    0  501    0  0.00000000000E+00  0.00000000000E+00  0.43397363343E+03  0.43397363343E+03  0.00000000000E+00 0. -1.
         -2   -1    0    0    0  501 -0.00000000000E+00 -0.00000000000E+00 -0.96911861269E+03  0.96911861269E+03  0.00000000000E+00 0.  1.
        -24    2    1    2    0    0 -0.20173973972E+03  0.84027705708E+02 -0.40912081165E+03  0.47084451606E+03  0.80963830627E+02 0.  0.
        254    2    1    2    0    0  0.20173973972E+03 -0.84027705708E+02 -0.12602416761E+03  0.93224773006E+03  0.89746540962E+03 0.  0.
         23    2    4    4    0    0  0.49272811691E+03 -0.26738402787E+03 -0.77362172207E+02  0.57308123648E+03  0.90343690204E+02 0.  0.
         23    2    4    4    0    0 -0.29098837719E+03  0.18335632216E+03 -0.48661995400E+02  0.35916649358E+03  0.91317050894E+02 0.  0.
          1    1    3    3  502    0 -0.12194515586E+02 -0.53902498163E+01 -0.27497882229E+01  0.13613314759E+02  0.00000000000E+00 0. -1.
         -2    1    3    3    0  502 -0.18954522414E+03  0.89417955524E+02 -0.40637102343E+03  0.45723120130E+03  0.00000000000E+00 0.  1.
         13    1    5    5    0    0  0.29320937206E+03 -0.16228046866E+03 -0.90696463321E+02  0.34717795845E+03  0.00000000000E+00 0.  1.
        -13    1    5    5    0    0  0.19951874485E+03 -0.10510355920E+03  0.13334291115E+02  0.22590327803E+03  0.00000000000E+00 0. -1.
          1    1    6    6  503    0 -0.27349976270E+03  0.15860987418E+03 -0.67766724536E+02  0.32334430773E+03  0.00000000000E+00 0. -1.
         -1    1    6    6    0  503 -0.17488614484E+02  0.24746447981E+02  0.19104729135E+02  0.35822185857E+02  0.00000000000E+00 0.  1.
<mgrwt>
<rscale>  0 0.12970303E+04</rscale>
<asrwt>0</asrwt>
<pdfrwt beam="1">  1        1 0.66765175E-01 0.12970303E+04</pdfrwt>
<pdfrwt beam="2">  1       -2 0.14909517E+00 0.12970303E+04</pdfrwt>
<totfact> 0.14050909E+01</totfact>
</mgrwt>
</event>
<event>
12    5  0.5197392E-008  0.2841633E+04  0.7818608E-02  0.8290458E-01
          1   -1    0    0  501    0  0.00000000000E+00  0.00000000000E+00  0.15535706039E+04  0.15535706039E+04  0.00000000000E+00 0. -1.
         -2   -1    0    0    0  501 -0.00000000000E+00 -0.00000000000E+00 -0.12994064445E+04  0.12994064445E+04  0.00000000000E+00 0.  1.
        -24    2    1    2    0    0 -0.31593619149E+03 -0.21684193183E+03 -0.11069452584E+04  0.11739621213E+04  0.77608998637E+02 0.  0.
        254    2    1    2    0    0  0.31593619149E+03  0.21684193183E+03  0.13611094177E+04  0.16790149271E+04  0.90533760450E+03 0.  0.
         23    2    4    4    0    0  0.42311510202E+02 -0.33657902495E+03  0.60403774995E+03  0.69820719451E+03  0.86925135488E+02 0.  0.
         23    2    4    4    0    0  0.27362468128E+03  0.55342095677E+03  0.75707166774E+03  0.98080773262E+03  0.87641751838E+02 0.  0.
          1    1    3    3  502    0 -0.89630097256E+02 -0.76129179134E+02 -0.24497778078E+03  0.27174127277E+03  0.00000000000E+00 0. -1.
         -2    1    3    3    0  502 -0.22630609423E+03 -0.14071275269E+03 -0.86196747759E+03  0.90222084851E+03  0.00000000000E+00 0.  1.
         13    1    5    5    0    0  0.40431058078E+02 -0.19823363982E+03  0.43514692072E+03  0.47987924421E+03  0.00000000000E+00 0. -1.
        -13    1    5    5    0    0  0.18804521244E+01 -0.13834538513E+03  0.16889082923E+03  0.21832795030E+03  0.00000000000E+00 0.  1.
          4    1    6    6  503    0 -0.13017583798E+01  0.15410840817E+02  0.41458994397E+02  0.44249709671E+02  0.00000000000E+00 0. -1.
         -4    1    6    6    0  503  0.27492643966E+03  0.53801011596E+03  0.71561267334E+03  0.93655802295E+03  0.00000000000E+00 0.  1.
<mgrwt>
<rscale>  0 0.28416331E+04</rscale>
<asrwt>0</asrwt>
<pdfrwt beam="1">  1        1 0.23901086E+00 0.28416331E+04</pdfrwt>
<pdfrwt beam="2">  1       -2 0.19990869E+00 0.28416331E+04</pdfrwt>
<totfact> 0.60615121E-01</totfact>
</mgrwt>
</event>
<event>
12    5  0.5197392E-008  0.1148054E+04  0.7818608E-02  0.9159581E-01
         -2   -1    0    0    0  501 -0.00000000000E+00  0.00000000000E+00  0.44953324395E+03  0.44953324395E+03  0.00000000000E+00 0.  1.
          1   -1    0    0  501    0  0.00000000000E+00 -0.00000000000E+00 -0.73299749770E+03  0.73299749770E+03  0.00000000000E+00 0. -1.
        -24    2    1    2    0    0 -0.38411714593E+02 -0.14548152408E+03 -0.16446548581E+03  0.24130123449E+03  0.92396190814E+02 0.  0.
        254    2    1    2    0    0  0.38411714593E+02  0.14548152408E+03 -0.11899876794E+03  0.94122950715E+03  0.92147270425E+03 0.  0.
         23    2    4    4    0    0 -0.37608962703E+03 -0.10884389175E+03  0.77496880568E+02  0.40909954670E+03  0.89812428311E+02 0.  0.
         23    2    4    4    0    0  0.41450134163E+03  0.25432541584E+03 -0.19649564851E+03  0.53212996045E+03  0.89771797190E+02 0.  0.
          3    1    3    3  502    0 -0.52116378732E+02 -0.13701472796E+03 -0.16980741914E+03  0.22432947244E+03  0.00000000000E+00 0. -1.
         -4    1    3    3    0  502  0.13704664138E+02 -0.84667961248E+01  0.53419333221E+01  0.16971762059E+02  0.00000000000E+00 0.  1.
         13    1    5    5    0    0 -0.15924591020E+03 -0.11130813263E+01  0.22871798931E+02  0.16088386510E+03  0.00000000000E+00 0.  1.
        -13    1    5    5    0    0 -0.21684371684E+03 -0.10773081043E+03  0.54625081637E+02  0.24821568160E+03  0.00000000000E+00 0. -1.
          2    1    6    6  503    0  0.39152103180E+03  0.24204050842E+03 -0.20613663464E+03  0.50434575264E+03  0.00000000000E+00 0. -1.
         -2    1    6    6    0  503  0.22980309827E+02  0.12284907414E+02  0.96409861376E+01  0.27784207810E+02  0.00000000000E+00 0.  1.
<mgrwt>
<rscale>  0 0.11480536E+04</rscale>
<asrwt>0</asrwt>
<pdfrwt beam="1">  1        1 0.11276885E+00 0.11480536E+04</pdfrwt>
<pdfrwt beam="2">  1       -2 0.69158961E-01 0.11480536E+04</pdfrwt>
<totfact> 0.42162069E+01</totfact>
</mgrwt>
</event>
<event>
12    5  0.5197392E-008  0.1604785E+04  0.7818608E-02  0.8817614E-01
         -4   -1    0    0    0  501 -0.00000000000E+00  0.00000000000E+00  0.57285040568E+03  0.57285040568E+03  0.00000000000E+00 0.  1.
          3   -1    0    0  501    0  0.00000000000E+00 -0.00000000000E+00 -0.11239123131E+04  0.11239123131E+04  0.00000000000E+00 0. -1.
        -24    2    1    2    0    0 -0.25575267447E+03  0.35856170124E+03  0.15024358993E+03  0.47212046275E+03  0.79678547533E+02 0.  0.
        254    2    1    2    0    0  0.25575267447E+03 -0.35856170124E+03 -0.70130549735E+03  0.12246422560E+04  0.90218807935E+03 0.  0.
         23    2    4    4    0    0  0.30529535739E+03 -0.23702209565E+03 -0.89095673540E+03  0.97558867430E+03  0.92653267629E+02 0.  0.
         23    2    4    4    0    0 -0.49542682920E+02 -0.12153960559E+03  0.18965123805E+03  0.24905358172E+03  0.93987984954E+02 0.  0.
          3    1    3    3  502    0 -0.44570354868E+02  0.34637163939E+02  0.42644183326E+02  0.70744441692E+02  0.00000000000E+00 0. -1.
         -4    1    3    3    0  502 -0.21118231960E+03  0.32392453730E+03  0.10759940661E+03  0.40137602106E+03  0.00000000000E+00 0.  1.
         13    1    5    5    0    0  0.10237048225E+03 -0.40088673881E+02 -0.32170203211E+03  0.33996913812E+03  0.00000000000E+00 0. -1.
        -13    1    5    5    0    0  0.20292487514E+03 -0.19693342177E+03 -0.56925470329E+03  0.63561953618E+03  0.00000000000E+00 0.  1.
          2    1    6    6  503    0 -0.66124170752E+02 -0.58353458442E+02  0.69471005774E+02  0.11226643627E+03  0.00000000000E+00 0. -1.
         -2    1    6    6    0  503  0.16581487832E+02 -0.63186147150E+02  0.12018023227E+03  0.13678714545E+03  0.00000000000E+00 0.  1.
<mgrwt>
<rscale>  0 0.16047849E+04</rscale>
<asrwt>0</asrwt>
<pdfrwt beam="1">  1        3 0.17290959E+00 0.16047849E+04</pdfrwt>
<pdfrwt beam="2">  1       -4 0.88130832E-01 0.16047849E+04</pdfrwt>
<totfact> 0.54131318E-01</totfact>
</mgrwt>
</event>
<event>
12    5  0.5197392E-008  0.2831042E+04  0.7818608E-02  0.8293695E-01
          1   -1    0    0  501    0  0.00000000000E+00  0.00000000000E+00  0.17210526915E+04  0.17210526915E+04  0.00000000000E+00 0. -1.
         -2   -1    0    0    0  501 -0.00000000000E+00 -0.00000000000E+00 -0.11642289755E+04  0.11642289755E+04  0.00000000000E+00 0.  1.
        -24    2    1    2    0    0  0.12325105107E+04  0.29409281326E+03  0.24095277430E+03  0.12921888728E+04  0.78237470653E+02 0.  0.
        254    2    1    2    0    0 -0.12325105107E+04 -0.29409281326E+03  0.31587094177E+03  0.15930927942E+04  0.91246778417E+03 0.  0.
         23    2    4    4    0    0 -0.18047553226E+03 -0.20703976140E+03 -0.25853304058E+03  0.38795870958E+03  0.90751015010E+02 0.  0.
         23    2    4    4    0    0 -0.10520349785E+04 -0.87053051857E+02  0.57440398235E+03  0.12051340846E+04  0.89735150125E+02 0.  0.
          1    1    3    3  502    0  0.47103435239E+02  0.16651044537E+02 -0.48041598213E+01  0.50190346154E+02  0.00000000000E+00 0. -1.
         -2    1    3    3    0  502  0.11854070755E+04  0.27744176872E+03  0.24575693413E+03  0.12419985267E+04  0.00000000000E+00 0.  1.
         13    1    5    5    0    0 -0.79588964535E+02 -0.11187058038E+03 -0.18676548767E+03  0.23179900219E+03  0.00000000000E+00 0. -1.
        -13    1    5    5    0    0 -0.10088656772E+03 -0.95169181023E+02 -0.71767552906E+02  0.15615970739E+03  0.00000000000E+00 0.  1.
          1    1    6    6  503    0 -0.97778905045E+03 -0.61986953494E+02  0.51543661737E+03  0.11070631039E+04  0.00000000000E+00 0. -1.
         -1    1    6    6    0  503 -0.74245928005E+02 -0.25066098364E+02  0.58967364977E+02  0.98070980646E+02  0.00000000000E+00 0.  1.
<mgrwt>
<rscale>  0 0.28310418E+04</rscale>
<asrwt>0</asrwt>
<pdfrwt beam="1">  1        1 0.26477734E+00 0.28310418E+04</pdfrwt>
<pdfrwt beam="2">  1       -2 0.17911215E+00 0.28310418E+04</pdfrwt>
<totfact> 0.64335878E-01</totfact>
</mgrwt>
</event>
<event>
12    5  0.5197392E-008  0.1702089E+04  0.7818608E-02  0.8760174E-01
          1   -1    0    0  501    0  0.00000000000E+00  0.00000000000E+00  0.42324668158E+04  0.42324668158E+04  0.00000000000E+00 0. -1.
         -2   -1    0    0    0  501 -0.00000000000E+00 -0.00000000000E+00 -0.17112400872E+03  0.17112400872E+03  0.00000000000E+00 0.  1.
        -24    2    1    2    0    0  0.45366352735E+03  0.36769149464E+03  0.19269082373E+04  0.20150571889E+04  0.80451777700E+02 0.  0.
        254    2    1    2    0    0 -0.45366352735E+03 -0.36769149464E+03  0.21344345698E+04  0.23885336356E+04  0.89904080233E+03 0.  0.
         23    2    4    4    0    0 -0.87285950813E+02  0.27167668936E+03  0.89365313580E+03  0.94253906535E+03  0.91306636348E+02 0.  0.
         23    2    4    4    0    0 -0.36637757654E+03 -0.63936818400E+03  0.12407814340E+04  0.14459945702E+04  0.91310058908E+02 0.  0.
          3    1    3    3  502    0  0.62720290348E+01 -0.37002656745E+01  0.37575871502E+02  0.38275010560E+02  0.00000000000E+00 0. -1.
         -4    1    3    3    0  502  0.44739149832E+03  0.37139176031E+03  0.18893323658E+04  0.19767821784E+04  0.00000000000E+00 0.  1.
         13    1    5    5    0    0 -0.29986630360E+01  0.13125425632E+03  0.31784983184E+03  0.34389705928E+03  0.00000000000E+00 0. -1.
        -13    1    5    5    0    0 -0.84287287777E+02  0.14042243304E+03  0.57580330396E+03  0.59864200607E+03  0.00000000000E+00 0.  1.
          4    1    6    6  503    0 -0.30944908798E+03 -0.56354862967E+03  0.10199730628E+04  0.12056910238E+04  0.00000000000E+00 0.  1.
         -4    1    6    6    0  503 -0.56928488559E+02 -0.75819554326E+02  0.22080837119E+03  0.24030354641E+03  0.00000000000E+00 0. -1.
<mgrwt>
<rscale>  0 0.17020889E+04</rscale>
<asrwt>0</asrwt>
<pdfrwt beam="1">  1        1 0.65114866E+00 0.17020889E+04</pdfrwt>
<pdfrwt beam="2">  1       -2 0.26326774E-01 0.17020889E+04</pdfrwt>
<totfact> 0.65463691E-01</totfact>
</mgrwt>
</event>
<event>
12    5  0.5197392E-008  0.1723520E+04  0.7818608E-02  0.8748063E-01
          1   -1    0    0  501    0  0.00000000000E+00  0.00000000000E+00  0.53307711684E+03  0.53307711684E+03  0.00000000000E+00 0. -1.
         -2   -1    0    0    0  501 -0.00000000000E+00 -0.00000000000E+00 -0.13931003019E+04  0.13931003019E+04  0.00000000000E+00 0.  1.
        -24    2    1    2    0    0 -0.49688812868E+03 -0.21738542865E+03 -0.45751774776E+03  0.71429507125E+03  0.82101901824E+02 0.  0.
        254    2    1    2    0    0  0.49688812868E+03  0.21738542865E+03 -0.40250543728E+03  0.12118823475E+04  0.10062275886E+04 0.  0.
         23    2    4    4    0    0 -0.86336291790E+02 -0.45015913017E+02 -0.53555587729E+03  0.55191615871E+03  0.91164471381E+02 0.  0.
         23    2    4    4    0    0  0.58322442047E+03  0.26240134167E+03  0.13305044001E+03  0.65996618876E+03  0.94062542957E+02 0.  0.
          1    1    3    3  502    0 -0.31649344169E+02 -0.36097911154E+02 -0.27439679517E+02  0.55296258355E+02  0.00000000000E+00 0. -1.
         -2    1    3    3    0  502 -0.46523878451E+03 -0.18128751750E+03 -0.43007806824E+03  0.65899881289E+03  0.00000000000E+00 0.  1.
         13    1    5    5    0    0 -0.97804209957E+02 -0.19293469446E+02 -0.47180192895E+03  0.48221879018E+03  0.00000000000E+00 0. -1.
        -13    1    5    5    0    0  0.11467918167E+02 -0.25722443570E+02 -0.63753948342E+02  0.69697368526E+02  0.00000000000E+00 0.  1.
          3    1    6    6  503    0  0.55699013490E+03  0.26953823246E+03  0.12241806762E+03  0.63077337643E+03  0.00000000000E+00 0. -1.
         -3    1    6    6    0  503  0.26234285567E+02 -0.71368907909E+01  0.10632372390E+02  0.29192812335E+02  0.00000000000E+00 0.  1.
<mgrwt>
<rscale>  0 0.17235195E+04</rscale>
<asrwt>0</asrwt>
<pdfrwt beam="1">  1        1 0.82011864E-01 0.17235195E+04</pdfrwt>
<pdfrwt beam="2">  1       -2 0.21432312E+00 0.17235195E+04</pdfrwt>
<totfact> 0.36161913E+00</totfact>
</mgrwt>
</event>
<event>
12    5  0.5197392E-008  0.1730477E+04  0.7818608E-02  0.8744170E-01
          1   -1    0    0  501    0  0.00000000000E+00  0.00000000000E+00  0.29123228431E+04  0.29123228431E+04  0.00000000000E+00 0. -1.
         -2   -1    0    0    0  501 -0.00000000000E+00 -0.00000000000E+00 -0.25705868033E+03  0.25705868033E+03  0.00000000000E+00 0.  1.
        -24    2    1    2    0    0 -0.43119142220E+03  0.44151077776E+03  0.12272161157E+04  0.13758508181E+04  0.77770620858E+02 0.  0.
        254    2    1    2    0    0  0.43119142220E+03 -0.44151077776E+03  0.14280480471E+04  0.17935307054E+04  0.89250958366E+03 0.  0.
         23    2    4    4    0    0  0.41373786815E+03  0.11065286635E+03  0.99105352989E+03  0.10832902102E+04  0.88924124691E+02 0.  0.
         23    2    4    4    0    0  0.17453554048E+02 -0.55216364411E+03  0.43699451722E+03  0.71024049524E+03  0.91038654315E+02 0.  0.
          3    1    3    3  502    0 -0.77784684879E+02  0.46445336770E+02  0.14892802103E+03  0.17431919561E+03  0.00000000000E+00 0. -1.
         -4    1    3    3    0  502 -0.35340673732E+03  0.39506544099E+03  0.10782880947E+04  0.12015316224E+04  0.00000000000E+00 0.  1.
         13    1    5    5    0    0  0.41451879368E+03  0.11676188732E+03  0.96887747307E+03  0.10602748353E+04  0.00000000000E+00 0. -1.
        -13    1    5    5    0    0 -0.78092553275E+00 -0.61090209641E+01  0.22176056819E+02  0.23015374815E+02  0.00000000000E+00 0.  1.
          4    1    6    6  503    0 -0.17684255145E+02 -0.46131267864E+03  0.37510935604E+03  0.59483539685E+03  0.00000000000E+00 0. -1.
         -4    1    6    6    0  503  0.35137809193E+02 -0.90850965473E+02  0.61885161177E+02  0.11540509840E+03  0.00000000000E+00 0.  1.
<mgrwt>
<rscale>  0 0.17304772E+04</rscale>
<asrwt>0</asrwt>
<pdfrwt beam="1">  1        1 0.44804965E+00 0.17304772E+04</pdfrwt>
<pdfrwt beam="2">  1       -2 0.39547491E-01 0.17304772E+04</pdfrwt>
<totfact> 0.35008415E+00</totfact>
</mgrwt>
</event>
<event>
12    5  0.5197392E-008  0.1435810E+04  0.7818608E-02  0.8928298E-01
         -2   -1    0    0    0  501 -0.00000000000E+00  0.00000000000E+00  0.13433423619E+04  0.13433423619E+04  0.00000000000E+00 0.  1.
          1   -1    0    0  501    0  0.00000000000E+00 -0.00000000000E+00 -0.38366051424E+03  0.38366051424E+03  0.00000000000E+00 0. -1.
        -24    2    1    2    0    0  0.64021241242E+02 -0.39509540293E+03  0.41417917621E+03  0.58150788447E+03  0.80049565547E+02 0.  0.
        254    2    1    2    0    0 -0.64021241242E+02  0.39509540293E+03  0.54550267149E+03  0.11454949917E+04  0.92433030606E+03 0.  0.
         23    2    4    4    0    0 -0.19175575215E+03 -0.19723479680E+02  0.65370544059E+03  0.68795752325E+03  0.93784149014E+02 0.  0.
         23    2    4    4    0    0  0.12773451091E+03  0.41481888261E+03 -0.10820276910E+03  0.45753746847E+03  0.96134724064E+02 0.  0.
          3    1    3    3  502    0  0.66252827108E+02 -0.20554113788E+03  0.18736491864E+03  0.28590594467E+03  0.00000000000E+00 0. -1.
         -2    1    3    3    0  502 -0.22315858664E+01 -0.18955426505E+03  0.22681425758E+03  0.29560193980E+03  0.00000000000E+00 0.  1.
         13    1    5    5    0    0 -0.43759348362E+01  0.19415985436E+02  0.10369323638E+03  0.10558606237E+03  0.00000000000E+00 0. -1.
        -13    1    5    5    0    0 -0.18737981731E+03 -0.39139465116E+02  0.55001220421E+03  0.58237146087E+03  0.00000000000E+00 0.  1.
          2    1    6    6  503    0  0.11997135447E+03  0.37078535834E+03 -0.64497357033E+02  0.39501242628E+03  0.00000000000E+00 0.  1.
         -2    1    6    6    0  503  0.77631564351E+01  0.44033524269E+02 -0.43705412062E+02  0.62525042190E+02  0.00000000000E+00 0. -1.
<mgrwt>
<rscale>  0 0.14358098E+04</rscale>
<asrwt>0</asrwt>
<pdfrwt beam="1">  1        1 0.59024695E-01 0.14358098E+04</pdfrwt>
<pdfrwt beam="2">  1       -2 0.20666805E+00 0.14358098E+04</pdfrwt>
<totfact> 0.64786808E+00</totfact>
</mgrwt>
</event>
<event>
12    5  0.5197392E-008  0.1449955E+04  0.7818608E-02  0.8918432E-01
          1   -1    0    0  501    0  0.00000000000E+00  0.00000000000E+00  0.58593527394E+03  0.58593527394E+03  0.00000000000E+00 0. -1.
         -2   -1    0    0    0  501 -0.00000000000E+00 -0.00000000000E+00 -0.89701399122E+03  0.89701399122E+03  0.00000000000E+00 0.  1.
        -24    2    1    2    0    0  0.39770209302E+03  0.11666388387E+03  0.47189354715E+02  0.42442175943E+03  0.78291622122E+02 0.  0.
        254    2    1    2    0    0 -0.39770209302E+03 -0.11666388387E+03 -0.35826807199E+03  0.10585275057E+04  0.90573012116E+03 0.  0.
         23    2    4    4    0    0 -0.37234852577E+03  0.27372627401E+03  0.64546530144E+02  0.47549185107E+03  0.91415251187E+02 0.  0.
         23    2    4    4    0    0 -0.25353567245E+02 -0.39039015788E+03 -0.42281460214E+03  0.58303565466E+03  0.90061690421E+02 0.  0.
          3    1    3    3  502    0  0.31602294669E+03  0.96298314865E+02  0.68921645047E+02  0.33748194239E+03  0.00000000000E+00 0. -1.
         -4    1    3    3    0  502  0.81679146325E+02  0.20365569003E+02 -0.21732290332E+02  0.86939817048E+02  0.00000000000E+00 0.  1.
         13    1    5    5    0    0 -0.35049996703E+02  0.22260450613E+02 -0.20430679255E+02  0.46275723497E+02  0.00000000000E+00 0.  1.
        -13    1    5    5    0    0 -0.33729852907E+03  0.25146582340E+03  0.84977209399E+02  0.42921612757E+03  0.00000000000E+00 0. -1.
          3    1    6    6  503    0  0.15344458168E+02 -0.31587633497E+03 -0.32404981094E+03  0.45279309995E+03  0.00000000000E+00 0. -1.
         -3    1    6    6    0  503 -0.40698025413E+02 -0.74513822905E+02 -0.98764791196E+02  0.13024255471E+03  0.00000000000E+00 0.  1.
<mgrwt>
<rscale>  0 0.14499547E+04</rscale>
<asrwt>0</asrwt>
<pdfrwt beam="1">  1        1 0.90143889E-01 0.14499547E+04</pdfrwt>
<pdfrwt beam="2">  1       -2 0.13800215E+00 0.14499547E+04</pdfrwt>
<totfact> 0.11222840E+01</totfact>
</mgrwt>
</event>
<event>
12    5  0.8548978E-008  0.1915438E+04  0.7818608E-02  0.8647210E-01
          1   -1    0    0  501    0  0.00000000000E+00  0.00000000000E+00  0.12587334768E+04  0.12587334768E+04  0.00000000000E+00 0. -1.
         -2   -1    0    0    0  501 -0.00000000000E+00 -0.00000000000E+00 -0.72868943889E+03  0.72868943889E+03  0.00000000000E+00 0.  1.
        -24    2    1    2    0    0 -0.52948345230E+03 -0.13754406236E+03 -0.31531931789E+03  0.63638990502E+03  0.79339420383E+02 0.  0.
        254    2    1    2    0    0  0.52948345230E+03  0.13754406236E+03  0.84536335577E+03  0.13510330106E+04  0.90076628334E+03 0.  0.
         23    2    4    4    0    0  0.52817751567E+03  0.33216560987E+03  0.92736383360E+03  0.11211149404E+04  0.87118018823E+02 0.  0.
         23    2    4    4    0    0  0.13059366325E+01 -0.19462154751E+03 -0.82000477832E+02  0.22991807027E+03  0.90878976924E+02 0.  0.
          3    1    3    3  502    0 -0.49742968321E+02 -0.38252025125E+02 -0.40098247700E+02  0.74467776871E+02  0.00000000000E+00 0. -1.
         -4    1    3    3    0  502 -0.47974048398E+03 -0.99292037234E+02 -0.27522107019E+03  0.56192212815E+03  0.00000000000E+00 0.  1.
         13    1    5    5    0    0  0.40782987149E+03  0.26477392218E+03  0.78103128188E+03  0.92002190040E+03  0.00000000000E+00 0. -1.
        -13    1    5    5    0    0  0.12034764417E+03  0.67391687686E+02  0.14633255172E+03  0.20109303996E+03  0.00000000000E+00 0.  1.
          2    1    6    6  503    0  0.68556634887E+00 -0.14172707541E+03 -0.10064674655E+03  0.17382980612E+03  0.00000000000E+00 0. -1.
         -2    1    6    6    0  503  0.62037028365E+00 -0.52894472104E+02  0.18646268718E+02  0.56088264152E+02  0.00000000000E+00 0.  1.
<mgrwt>
<rscale>  0 0.19154381E+04</rscale>
<asrwt>0</asrwt>
<pdfrwt beam="1">  1        1 0.19365130E+00 0.19154381E+04</pdfrwt>
<pdfrwt beam="2">  1       -2 0.11210607E+00 0.19154381E+04</pdfrwt>
<totfact> 0.49814970E+00</totfact>
</mgrwt>
</event>
<event>
12    5  0.5197392E-008  0.1656480E+04  0.7818608E-02  0.8786582E-01
         -4   -1    0    0    0  501 -0.00000000000E+00  0.00000000000E+00  0.19891095856E+04  0.19891095856E+04  0.00000000000E+00 0.  1.
          3   -1    0    0  501    0  0.00000000000E+00 -0.00000000000E+00 -0.34486848090E+03  0.34486848090E+03  0.00000000000E+00 0. -1.
        -24    2    1    2    0    0 -0.27243782110E+03 -0.49313214094E+03  0.73310658077E+03  0.92811864552E+03  0.80977074568E+02 0.  0.
        254    2    1    2    0    0  0.27243782110E+03  0.49313214094E+03  0.91113452395E+03  0.14058594210E+04  0.91042458011E+03 0.  0.
         23    2    4    4    0    0  0.46366273561E+03  0.16364539799E+03  0.10693965255E+03  0.51117829038E+03  0.90023366894E+02 0.  0.
         23    2    4    4    0    0 -0.19122491452E+03  0.32948674295E+03  0.80419487140E+03  0.89468113061E+03  0.92717056538E+02 0.  0.
          1    1    3    3  502    0 -0.21751492247E+03 -0.34715931669E+03  0.48269031416E+03  0.63310526142E+03  0.00000000000E+00 0. -1.
         -2    1    3    3    0  502 -0.54922898630E+02 -0.14597282425E+03  0.25041626661E+03  0.29501338410E+03  0.00000000000E+00 0.  1.
         13    1    5    5    0    0  0.27245926799E+03  0.68534228288E+02  0.23587588109E+02  0.28193504123E+03  0.00000000000E+00 0. -1.
        -13    1    5    5    0    0  0.19120346763E+03  0.95111169706E+02  0.83352064442E+02  0.22924324915E+03  0.00000000000E+00 0.  1.
          4    1    6    6  503    0 -0.81098508901E+02  0.22822138519E+03  0.51304992680E+03  0.56734662790E+03  0.00000000000E+00 0. -1.
         -4    1    6    6    0  503 -0.11012640562E+03  0.10126535776E+03  0.29114494460E+03  0.32733450271E+03  0.00000000000E+00 0.  1.
<mgrwt>
<rscale>  0 0.16564796E+04</rscale>
<asrwt>0</asrwt>
<pdfrwt beam="1">  1        3 0.53056691E-01 0.16564796E+04</pdfrwt>
<pdfrwt beam="2">  1       -4 0.30601685E+00 0.16564796E+04</pdfrwt>
<totfact> 0.21800788E-01</totfact>
</mgrwt>
</event>
<event>
12    5  0.5197392E-008  0.2947054E+04  0.7818608E-02  0.8259014E-01
          1   -1    0    0  501    0  0.00000000000E+00  0.00000000000E+00  0.11273505503E+04  0.11273505503E+04  0.00000000000E+00 0. -1.
         -2   -1    0    0    0  501 -0.00000000000E+00 -0.00000000000E+00 -0.19260039228E+04  0.19260039228E+04  0.00000000000E+00 0.  1.
        -24    2    1    2    0    0 -0.38391969878E+03  0.67234785617E+03  0.76493072675E+03  0.10914647033E+04  0.82037839332E+02 0.  0.
        254    2    1    2    0    0  0.38391969878E+03 -0.67234785617E+03 -0.15635840993E+04  0.19618897698E+04  0.89708988319E+03 0.  0.
         23    2    4    4    0    0 -0.69010439430E+02 -0.70390393661E+03 -0.10564764551E+04  0.12747071362E+04  0.92155249985E+02 0.  0.
         23    2    4    4    0    0  0.45293013821E+03  0.31556080446E+02 -0.50710764419E+03  0.68718263363E+03  0.94447407907E+02 0.  0.
          3    1    3    3  502    0 -0.35368062149E+03  0.57322983871E+03  0.63976832929E+03  0.92897036829E+03  0.00000000000E+00 0. -1.
         -4    1    3    3    0  502 -0.30239077282E+02  0.99118017458E+02  0.12516239747E+03  0.16249433504E+03  0.00000000000E+00 0.  1.
         13    1    5    5    0    0 -0.65634449004E+02 -0.38076348999E+03 -0.63956993483E+03  0.74722046127E+03  0.00000000000E+00 0. -1.
        -13    1    5    5    0    0 -0.33759904262E+01 -0.32314044662E+03 -0.41690652028E+03  0.52748667491E+03  0.00000000000E+00 0.  1.
          3    1    6    6  503    0  0.15854129287E+03 -0.27875085943E+02 -0.14414625608E+03  0.21607985817E+03  0.00000000000E+00 0. -1.
         -3    1    6    6    0  503  0.29438884533E+03  0.59431166389E+02 -0.36296138811E+03  0.47110277547E+03  0.00000000000E+00 0.  1.
<mgrwt>
<rscale>  0 0.29470538E+04</rscale>
<asrwt>0</asrwt>
<pdfrwt beam="1">  1        1 0.17343855E+00 0.29470538E+04</pdfrwt>
<pdfrwt beam="2">  1       -2 0.29630829E+00 0.29470538E+04</pdfrwt>
<totfact> 0.30376699E-01</totfact>
</mgrwt>
</event>
<event>
12    5  0.5197392E-008  0.1454390E+04  0.7818608E-02  0.8915362E-01
          1   -1    0    0  501    0  0.00000000000E+00  0.00000000000E+00  0.16615238293E+04  0.16615238293E+04  0.00000000000E+00 0. -1.
         -4   -1    0    0    0  501 -0.00000000000E+00 -0.00000000000E+00 -0.31826984094E+03  0.31826984094E+03  0.00000000000E+00 0.  1.
        -24    2    1    2    0    0  0.35642428644E+03 -0.26870963162E+03  0.47255971303E+03  0.65462818207E+03  0.77344917654E+02 0.  0.
        254    2    1    2    0    0 -0.35642428644E+03  0.26870963162E+03  0.87069427538E+03  0.13251654882E+04  0.89370683778E+03 0.  0.
         23    2    4    4    0    0 -0.76402438591E+02  0.23117930199E+03 -0.12363091679E+03  0.28757707210E+03  0.90192940533E+02 0.  0.
         23    2    4    4    0    0 -0.28002184785E+03  0.37530329635E+02  0.99432519217E+03  0.10375884161E+04  0.89924260127E+02 0.  0.
          3    1    3    3  502    0  0.17702197353E+03 -0.11832877025E+03  0.27840935278E+03  0.35049999243E+03  0.00000000000E+00 0. -1.
         -4    1    3    3    0  502  0.17940231291E+03 -0.15038086137E+03  0.19415036026E+03  0.30412818964E+03  0.00000000000E+00 0.  1.
         13    1    5    5    0    0 -0.68500346334E+02  0.77228736235E+02 -0.68368102563E+02  0.12381749713E+03  0.00000000000E+00 0. -1.
        -13    1    5    5    0    0 -0.79020922571E+01  0.15395056575E+03 -0.55262814230E+02  0.16375957497E+03  0.00000000000E+00 0.  1.
          3    1    6    6  503    0  0.60361801954E+01  0.14868781193E+00  0.85537621739E+01  0.10470168420E+02  0.00000000000E+00 0. -1.
         -3    1    6    6    0  503 -0.28605802804E+03  0.37381641823E+02  0.98577142999E+03  0.10271182477E+04  0.00000000000E+00 0.  1.
<mgrwt>
<rscale>  0 0.14543905E+04</rscale>
<asrwt>0</asrwt>
<pdfrwt beam="1">  1        1 0.25561904E+00 0.14543905E+04</pdfrwt>
<pdfrwt beam="2">  1       -4 0.48964592E-01 0.14543905E+04</pdfrwt>
<totfact> 0.97624642E+00</totfact>
</mgrwt>
</event>
<event>
12    5  0.5197392E-008  0.1361109E+04  0.7818608E-02  0.8982461E-01
         -4   -1    0    0    0  501 -0.00000000000E+00  0.00000000000E+00  0.17836297087E+04  0.17836297087E+04  0.00000000000E+00 0.  1.
          3   -1    0    0  501    0  0.00000000000E+00 -0.00000000000E+00 -0.25966970611E+03  0.25966970611E+03  0.00000000000E+00 0. -1.
        -24    2    1    2    0    0 -0.76163071916E+02 -0.32882169951E+03  0.19545295538E+03  0.39806839430E+03  0.79574274606E+02 0.  0.
        254    2    1    2    0    0  0.76163071916E+02  0.32882169951E+03  0.13285070472E+04  0.16452310205E+04  0.90990637584E+03 0.  0.
         23    2    4    4    0    0 -0.31600418075E+03  0.42923067590E+03  0.61075039401E+03  0.81571141917E+03  0.90947568416E+02 0.  0.
         23    2    4    4    0    0  0.39216725266E+03 -0.10040897639E+03  0.71775665324E+03  0.82951960138E+03  0.95136949744E+02 0.  0.
          1    1    3    3  502    0 -0.83506971989E+02 -0.24577039795E+03  0.12140606281E+03  0.28655878100E+03  0.00000000000E+00 0. -1.
         -2    1    3    3    0  502  0.73439000725E+01 -0.83051301561E+02  0.74046892570E+02  0.11150961330E+03  0.00000000000E+00 0.  1.
         13    1    5    5    0    0 -0.21274405967E+03  0.31192206454E+03  0.36965072870E+03  0.52839102046E+03  0.00000000000E+00 0. -1.
        -13    1    5    5    0    0 -0.10326012107E+03  0.11730861136E+03  0.24109966532E+03  0.28732039871E+03  0.00000000000E+00 0.  1.
          2    1    6    6  503    0  0.17534936904E+03 -0.38698456453E+02  0.41387888886E+03  0.45115485856E+03  0.00000000000E+00 0. -1.
         -2    1    6    6    0  503  0.21681788362E+03 -0.61710519932E+02  0.30387776438E+03  0.37836474282E+03  0.00000000000E+00 0.  1.
<mgrwt>
<rscale>  0 0.13611093E+04</rscale>
<asrwt>0</asrwt>
<pdfrwt beam="1">  1        3 0.39949187E-01 0.13611093E+04</pdfrwt>
<pdfrwt beam="2">  1       -4 0.27440456E+00 0.13611093E+04</pdfrwt>
<totfact> 0.62310357E-01</totfact>
</mgrwt>
</event>
<event>
12    5  0.5197392E-008  0.1559751E+04  0.7818608E-02  0.8845663E-01
          1   -1    0    0  501    0  0.00000000000E+00  0.00000000000E+00  0.20761969983E+04  0.20761969983E+04  0.00000000000E+00 0. -1.
         -2   -1    0    0    0  501 -0.00000000000E+00 -0.00000000000E+00 -0.29294223667E+03  0.29294223667E+03  0.00000000000E+00 0.  1.
        -24    2    1    2    0    0  0.40769234340E+03  0.12706962714E+03  0.15357965601E+03  0.46072493474E+03  0.79504828444E+02 0.  0.
        254    2    1    2    0    0 -0.40769234340E+03 -0.12706962714E+03  0.16296751056E+04  0.19084143002E+04  0.89657373062E+03 0.  0.
         23    2    4    4    0    0 -0.67722063347E+03 -0.13238436260E+02  0.10475666484E+04  0.12505934580E+04  0.88233053507E+02 0.  0.
         23    2    4    4    0    0  0.26952829008E+03 -0.11383119088E+03  0.58210845714E+03  0.65782084217E+03  0.90966836555E+02 0.  0.
          1    1    3    3  502    0  0.36517877839E+03  0.13329318664E+03  0.15295607895E+03  0.41775372635E+03  0.00000000000E+00 0. -1.
         -2    1    3    3    0  502  0.42513565009E+02 -0.62235594992E+01  0.62357706636E+00  0.42971208396E+02  0.00000000000E+00 0.  1.
         13    1    5    5    0    0 -0.30132013524E+03  0.28434734363E+02  0.51599674747E+03  0.59820983059E+03  0.00000000000E+00 0.  1.
        -13    1    5    5    0    0 -0.37590049823E+03 -0.41673170623E+02  0.53156990097E+03  0.65238362743E+03  0.00000000000E+00 0. -1.
          3    1    6    6  503    0  0.10118762910E+03 -0.34105564788E+02  0.12609895551E+03  0.16523641370E+03  0.00000000000E+00 0.  1.
         -3    1    6    6    0  503  0.16834066097E+03 -0.79725626094E+02  0.45600950163E+03  0.49258442847E+03  0.00000000000E+00 0. -1.
<mgrwt>
<rscale>  0 0.15597510E+04</rscale>
<asrwt>0</asrwt>
<pdfrwt beam="1">  1        1 0.31941491E+00 0.15597510E+04</pdfrwt>
<pdfrwt beam="2">  1       -2 0.45068038E-01 0.15597510E+04</pdfrwt>
<totfact> 0.10445782E+01</totfact>
</mgrwt>
</event>
<event>
12    5  0.5197392E-008  0.1634021E+04  0.7818608E-02  0.8799916E-01
          1   -1    0    0  501    0  0.00000000000E+00  0.00000000000E+00  0.21207329585E+04  0.21207329585E+04  0.00000000000E+00 0. -1.
         -2   -1    0    0    0  501 -0.00000000000E+00 -0.00000000000E+00 -0.31475266619E+03  0.31475266619E+03  0.00000000000E+00 0.  1.
        -24    2    1    2    0    0 -0.30509120633E+03  0.31593478208E+03  0.11907273114E+04  0.12716407309E+04  0.79644131974E+02 0.  0.
        254    2    1    2    0    0  0.30509120633E+03 -0.31593478208E+03  0.61525298096E+03  0.11638448938E+04  0.88493122645E+03 0.  0.
         23    2    4    4    0    0 -0.23806156229E+03 -0.28700071396E+03  0.74805020282E+02  0.39155665444E+03  0.93156348817E+02 0.  0.
         23    2    4    4    0    0  0.54315276862E+03 -0.28934068122E+02  0.54044796068E+03  0.77228823937E+03  0.92157561309E+02 0.  0.
          1    1    3    3  502    0 -0.89560937286E+02  0.53384777997E+02  0.33913698155E+03  0.35480274557E+03  0.00000000000E+00 0. -1.
         -2    1    3    3    0  502 -0.21553026905E+03  0.26255000409E+03  0.85159032983E+03  0.91683798535E+03  0.00000000000E+00 0.  1.
         13    1    5    5    0    0 -0.13966594435E+03 -0.14298582429E+03 -0.45581155497E+01  0.19993073395E+03  0.00000000000E+00 0. -1.
        -13    1    5    5    0    0 -0.98395617937E+02 -0.14401488967E+03  0.79363135831E+02  0.19162592050E+03  0.00000000000E+00 0.  1.
          1    1    6    6  503    0  0.28205265939E+03 -0.57830508543E+02  0.30646110574E+03  0.42049551688E+03  0.00000000000E+00 0. -1.
         -1    1    6    6    0  503  0.26110010923E+03  0.28896440421E+02  0.23398685493E+03  0.35179272248E+03  0.00000000000E+00 0.  1.
<mgrwt>
<rscale>  0 0.16340212E+04</rscale>
<asrwt>0</asrwt>
<pdfrwt beam="1">  1        1 0.32626660E+00 0.16340212E+04</pdfrwt>
<pdfrwt beam="2">  1       -2 0.48423489E-01 0.16340212E+04</pdfrwt>
<totfact> 0.83774301E+00</totfact>
</mgrwt>
</event>
<event>
12    5  0.5197392E-008  0.1606332E+04  0.7818608E-02  0.8816667E-01
          1   -1    0    0  501    0  0.00000000000E+00  0.00000000000E+00  0.13674892806E+04  0.13674892806E+04  0.00000000000E+00 0. -1.
         -2   -1    0    0    0  501 -0.00000000000E+00 -0.00000000000E+00 -0.47172262519E+03  0.47172262519E+03  0.00000000000E+00 0.  1.
        -24    2    1    2    0    0  0.25466939274E+03 -0.23850667828E+03  0.79741795841E+03  0.87408281724E+03  0.80021470987E+02 0.  0.
        254    2    1    2    0    0 -0.25466939274E+03  0.23850667828E+03  0.98348696973E+02  0.96512908853E+03  0.89446059508E+03 0.  0.
         23    2    4    4    0    0 -0.39678080327E+03  0.32379928078E+03  0.36702714943E+03  0.63652669630E+03  0.90423042477E+02 0.  0.
         23    2    4    4    0    0  0.14211141052E+03 -0.85292602507E+02 -0.26867845246E+03  0.32860239223E+03  0.91219188314E+02 0.  0.
          1    1    3    3  502    0  0.14301150883E+03 -0.11963955956E+03  0.33002708195E+03  0.37905644789E+03  0.00000000000E+00 0. -1.
         -2    1    3    3    0  502  0.11165788392E+03 -0.11886711872E+03  0.46739087646E+03  0.49502636935E+03  0.00000000000E+00 0.  1.
         13    1    5    5    0    0 -0.69076259906E+02  0.67847152406E+02  0.30254349655E+02  0.10144008796E+03  0.00000000000E+00 0.  1.
        -13    1    5    5    0    0 -0.32770454336E+03  0.25595212838E+03  0.33677279978E+03  0.53508660834E+03  0.00000000000E+00 0. -1.
          3    1    6    6  503    0  0.38058615052E+02 -0.62614784059E+01 -0.13999532578E+03  0.14521141668E+03  0.00000000000E+00 0. -1.
         -3    1    6    6    0  503  0.10405279547E+03 -0.79031124102E+02 -0.12868312667E+03  0.18339097555E+03  0.00000000000E+00 0.  1.
<mgrwt>
<rscale>  0 0.16063320E+04</rscale>
<asrwt>0</asrwt>
<pdfrwt beam="1">  1        1 0.21038296E+00 0.16063320E+04</pdfrwt>
<pdfrwt beam="2">  1       -2 0.72572712E-01 0.16063320E+04</pdfrwt>
<totfact> 0.11702623E+01</totfact>
</mgrwt>
</event>
<event>
12    5  0.5197392E-008  0.2107925E+04  0.7818608E-02  0.8557760E-01
          1   -1    0    0  501    0  0.00000000000E+00  0.00000000000E+00  0.20496032708E+04  0.20496032708E+04  0.00000000000E+00 0. -1.
         -2   -1    0    0    0  501 -0.00000000000E+00 -0.00000000000E+00 -0.54197682521E+03  0.54197682521E+03  0.00000000000E+00 0.  1.
        -24    2    1    2    0    0 -0.36405233045E+03  0.36645979944E+03 -0.22449436678E+03  0.56890197088E+03  0.80155148546E+02 0.  0.
        254    2    1    2    0    0  0.36405233045E+03 -0.36645979944E+03  0.17321208123E+04  0.20226781251E+04  0.90783115464E+03 0.  0.
         23    2    4    4    0    0  0.25729088460E+03 -0.47506021720E+03  0.17597977111E+04  0.18431060711E+04  0.90946117004E+02 0.  0.
         23    2    4    4    0    0  0.10676144585E+03  0.10860041776E+03 -0.27676898729E+02  0.17957205400E+03  0.91038754376E+02 0.  0.
          3    1    3    3  502    0 -0.10043885087E+03  0.78662992494E+02 -0.22847466423E+02  0.12960646541E+03  0.00000000000E+00 0. -1.
         -4    1    3    3    0  502 -0.26361347958E+03  0.28779680695E+03 -0.20164690035E+03  0.43929550547E+03  0.00000000000E+00 0.  1.
         13    1    5    5    0    0  0.70712293951E+02 -0.17604165934E+03  0.49469684607E+03  0.52982625817E+03  0.00000000000E+00 0. -1.
        -13    1    5    5    0    0  0.18657859065E+03 -0.29901855786E+03  0.12651008650E+04  0.13132798129E+04  0.00000000000E+00 0.  1.
          1    1    6    6  503    0  0.85246115453E+02  0.88009590505E+02  0.19214197021E+02  0.12402327841E+03  0.00000000000E+00 0. -1.
         -1    1    6    6    0  503  0.21515330396E+02  0.20590827252E+02 -0.46891095750E+02  0.55548775590E+02  0.00000000000E+00 0.  1.
<mgrwt>
<rscale>  0 0.21079255E+04</rscale>
<asrwt>0</asrwt>
<pdfrwt beam="1">  1        1 0.31532358E+00 0.21079255E+04</pdfrwt>
<pdfrwt beam="2">  1       -2 0.83381051E-01 0.21079255E+04</pdfrwt>
<totfact> 0.28020635E+00</totfact>
</mgrwt>
</event>
<event>
12    5  0.5197392E-008  0.1237883E+04  0.7818608E-02  0.9080329E-01
          1   -1    0    0  501    0  0.00000000000E+00  0.00000000000E+00  0.69463376322E+03  0.69463376322E+03  0.00000000000E+00 0. -1.
         -2   -1    0    0    0  501 -0.00000000000E+00 -0.00000000000E+00 -0.55149676299E+03  0.55149676299E+03  0.00000000000E+00 0.  1.
        -24    2    1    2    0    0  0.19662707422E+03  0.19192516537E+03  0.12140213397E+02  0.28643055522E+03  0.79985015877E+02 0.  0.
        254    2    1    2    0    0 -0.19662707422E+03 -0.19192516537E+03  0.13099678683E+03  0.95969997099E+03  0.91014636226E+03 0.  0.
         23    2    4    4    0    0 -0.22693094118E+03 -0.53374880357E+03  0.14522165302E+03  0.60457058855E+03  0.89614901955E+02 0.  0.
         23    2    4    4    0    0  0.30303866960E+02  0.34182363821E+03 -0.14224866191E+02  0.35512938244E+03  0.90292898218E+02 0.  0.
          1    1    3    3  502    0  0.11013011178E+03  0.12450188848E+03 -0.30067495389E+02  0.16891837092E+03  0.00000000000E+00 0. -1.
         -2    1    3    3    0  502  0.86496962437E+02  0.67423276881E+02  0.42207708786E+02  0.11751218429E+03  0.00000000000E+00 0.  1.
         13    1    5    5    0    0 -0.12528796513E+03 -0.18417578760E+03  0.59633082486E+02  0.23059466488E+03  0.00000000000E+00 0.  1.
        -13    1    5    5    0    0 -0.10164297604E+03 -0.34957301597E+03  0.85588570531E+02  0.37397592366E+03  0.00000000000E+00 0. -1.
          3    1    6    6  503    0  0.83672954170E+01  0.30112980398E+03  0.12913260221E+02  0.30152267372E+03  0.00000000000E+00 0. -1.
         -3    1    6    6    0  503  0.21936571543E+02  0.40693834220E+02 -0.27138126412E+02  0.53606708720E+02  0.00000000000E+00 0.  1.
<mgrwt>
<rscale>  0 0.12378825E+04</rscale>
<asrwt>0</asrwt>
<pdfrwt beam="1">  1        1 0.10686673E+00 0.12378825E+04</pdfrwt>
<pdfrwt beam="2">  1       -2 0.84845656E-01 0.12378825E+04</pdfrwt>
<totfact> 0.28832773E+01</totfact>
</mgrwt>
</event>
<event>
12    5  0.5197392E-008  0.1167388E+04  0.7818608E-02  0.9141891E-01
         -2   -1    0    0    0  501 -0.00000000000E+00  0.00000000000E+00  0.39424932199E+03  0.39424932199E+03  0.00000000000E+00 0.  1.
          1   -1    0    0  501    0  0.00000000000E+00 -0.00000000000E+00 -0.86417058945E+03  0.86417058945E+03  0.00000000000E+00 0. -1.
        -24    2    1    2    0    0 -0.19310394024E+03  0.43667130212E+02  0.17746776774E+02  0.21474056758E+03  0.81256466079E+02 0.  0.
        254    2    1    2    0    0  0.19310394024E+03 -0.43667130212E+02 -0.48766804423E+03  0.10436793439E+04  0.90124941133E+03 0.  0.
         23    2    4    4    0    0 -0.56221587913E+02 -0.43599612010E+03 -0.24393101819E+03  0.51100434728E+03  0.91485614248E+02 0.  0.
         23    2    4    4    0    0  0.24932552816E+03  0.39232898989E+03 -0.24373702605E+03  0.53267499657E+03  0.90827632434E+02 0.  0.
          3    1    3    3  502    0 -0.10888759829E+02  0.19462480332E+02  0.21372409441E+02  0.30889045253E+02  0.00000000000E+00 0. -1.
         -4    1    3    3    0  502 -0.18221518041E+03  0.24204649880E+02 -0.36256326672E+01  0.18385152233E+03  0.00000000000E+00 0.  1.
         13    1    5    5    0    0 -0.26373005087E+02 -0.40441452294E+03 -0.22567302212E+03  0.46386954489E+03  0.00000000000E+00 0.  1.
        -13    1    5    5    0    0 -0.29848582827E+02 -0.31581597156E+02 -0.18257996068E+02  0.47134802388E+02  0.00000000000E+00 0. -1.
          4    1    6    6  503    0  0.91450975047E+02  0.11777404376E+03 -0.34377581697E+02  0.15302230015E+03  0.00000000000E+00 0. -1.
         -4    1    6    6    0  503  0.15787455311E+03  0.27455494613E+03 -0.20935944435E+03  0.37965269642E+03  0.00000000000E+00 0.  1.
<mgrwt>
<rscale>  0 0.11673880E+04</rscale>
<asrwt>0</asrwt>
<pdfrwt beam="1">  1        1 0.13294932E+00 0.11673880E+04</pdfrwt>
<pdfrwt beam="2">  1       -2 0.60653743E-01 0.11673880E+04</pdfrwt>
<totfact> 0.42880535E+01</totfact>
</mgrwt>
</event>
<event>
12    5  0.5197392E-008  0.2517830E+04  0.7818608E-02  0.8396661E-01
          1   -1    0    0  501    0  0.00000000000E+00  0.00000000000E+00  0.84268496649E+03  0.84268496649E+03  0.00000000000E+00 0. -1.
         -2   -1    0    0    0  501 -0.00000000000E+00 -0.00000000000E+00 -0.18807349341E+04  0.18807349341E+04  0.00000000000E+00 0.  1.
        -24    2    1    2    0    0  0.64185707703E+03  0.81658996240E+03 -0.88026244838E+02  0.10455210940E+04  0.81031254346E+02 0.  0.
        254    2    1    2    0    0 -0.64185707703E+03 -0.81658996240E+03 -0.95002372281E+03  0.16778988066E+04  0.91323581696E+03 0.  0.
         23    2    4    4    0    0 -0.21387279974E+03 -0.19052528290E+03 -0.85733617707E+03  0.90825876976E+03  0.88697319226E+02 0.  0.
         23    2    4    4    0    0 -0.42798427729E+03 -0.62606467949E+03 -0.92687545736E+02  0.76964003687E+03  0.92883156193E+02 0.  0.
          1    1    3    3  502    0  0.60839566352E+03  0.74737049478E+03 -0.94766125741E+02  0.96834320282E+03  0.00000000000E+00 0. -1.
         -2    1    3    3    0  502  0.33461413510E+02  0.69219467621E+02  0.67398809030E+01  0.77177891176E+02  0.00000000000E+00 0.  1.
         13    1    5    5    0    0 -0.18254961492E+03 -0.19517488473E+03 -0.74215603065E+03  0.78880490070E+03  0.00000000000E+00 0.  1.
        -13    1    5    5    0    0 -0.31323184819E+02  0.46496018223E+01 -0.11518014642E+03  0.11945386907E+03  0.00000000000E+00 0. -1.
          1    1    6    6  503    0 -0.20822923354E+03 -0.33151636442E+03 -0.91974431286E+02  0.40214650264E+03  0.00000000000E+00 0. -1.
         -1    1    6    6    0  503 -0.21975504376E+03 -0.29454831508E+03 -0.71311445005E+00  0.36749353424E+03  0.00000000000E+00 0.  1.
<mgrwt>
<rscale>  0 0.25178301E+04</rscale>
<asrwt>0</asrwt>
<pdfrwt beam="1">  1        1 0.12964384E+00 0.25178301E+04</pdfrwt>
<pdfrwt beam="2">  1       -2 0.28934384E+00 0.25178301E+04</pdfrwt>
<totfact> 0.58358392E-01</totfact>
</mgrwt>
</event>
<event>
12    5  0.5197392E-008  0.1079345E+04  0.7818608E-02  0.9225560E-01
         -4   -1    0    0    0  501 -0.00000000000E+00  0.00000000000E+00  0.28969472527E+03  0.28969472527E+03  0.00000000000E+00 0.  1.
          3   -1    0    0  501    0  0.00000000000E+00 -0.00000000000E+00 -0.10053568784E+04  0.10053568784E+04  0.00000000000E+00 0. -1.
        -24    2    1    2    0    0 -0.91020677013E+02 -0.10117927940E+03 -0.10254327385E+03  0.18838112297E+03  0.80313848475E+02 0.  0.
        254    2    1    2    0    0  0.91020677013E+02  0.10117927940E+03 -0.61311887932E+03  0.11066704807E+04  0.91119854178E+03 0.  0.
         23    2    4    4    0    0 -0.61032270170E+02 -0.54950837542E+02 -0.79694846163E+03  0.80759382508E+03  0.10166810344E+03 0.  0.
         23    2    4    4    0    0  0.15205294718E+03  0.15613011694E+03  0.18382958232E+03  0.29907665565E+03  0.90315106481E+02 0.  0.
          1    1    3    3  502    0 -0.11552275171E+02 -0.28605658122E+02 -0.69116508206E+02  0.75689037811E+02  0.00000000000E+00 0. -1.
         -2    1    3    3    0  502 -0.79468401842E+02 -0.72573621277E+02 -0.33426765645E+02  0.11269208516E+03  0.00000000000E+00 0.  1.
         13    1    5    5    0    0 -0.48862762217E+02  0.19755494267E+02 -0.40383416529E+03  0.40725898657E+03  0.00000000000E+00 0.  1.
        -13    1    5    5    0    0 -0.12169507953E+02 -0.74706331809E+02 -0.39311429635E+03  0.40033483851E+03  0.00000000000E+00 0. -1.
          4    1    6    6  503    0  0.89136669753E+02  0.14723626922E+03  0.12803273050E+03  0.21451397378E+03  0.00000000000E+00 0. -1.
         -4    1    6    6    0  503  0.62916277430E+02  0.88938477254E+01  0.55796851820E+02  0.84562681876E+02  0.00000000000E+00 0.  1.
<mgrwt>
<rscale>  0 0.10793453E+04</rscale>
<asrwt>0</asrwt>
<pdfrwt beam="1">  1        3 0.15467029E+00 0.10793453E+04</pdfrwt>
<pdfrwt beam="2">  1       -4 0.44568420E-01 0.10793453E+04</pdfrwt>
<totfact> 0.33260482E+00</totfact>
</mgrwt>
</event>
<event>
12    5  0.5197392E-008  0.1328693E+04  0.7818608E-02  0.9007116E-01
          1   -1    0    0  501    0  0.00000000000E+00  0.00000000000E+00  0.78762386577E+03  0.78762386577E+03  0.00000000000E+00 0. -1.
         -2   -1    0    0    0  501 -0.00000000000E+00 -0.00000000000E+00 -0.56036422490E+03  0.56036422490E+03  0.00000000000E+00 0.  1.
        -24    2    1    2    0    0  0.22484653136E+03 -0.24372487721E+03 -0.41970873998E+02  0.34357352968E+03  0.79520045266E+02 0.  0.
        254    2    1    2    0    0 -0.22484653136E+03  0.24372487721E+03  0.26923051487E+03  0.10044145610E+04  0.90906862324E+03 0.  0.
         23    2    4    4    0    0 -0.20634424363E+02  0.11705276039E+03  0.58096870288E+03  0.60055600933E+03  0.94951347735E+02 0.  0.
         23    2    4    4    0    0 -0.20421210700E+03  0.12667211682E+03 -0.31173818801E+03  0.40385855166E+03  0.90402555588E+02 0.  0.
          1    1    3    3  502    0  0.17698213290E+03 -0.17637113391E+03  0.22225470049E+01  0.24986874946E+03  0.00000000000E+00 0. -1.
         -2    1    3    3    0  502  0.47864398465E+02 -0.67353743302E+02 -0.44193421003E+02  0.93704780226E+02  0.00000000000E+00 0.  1.
         13    1    5    5    0    0  0.17915903253E+02  0.10899700442E+03  0.37832048138E+03  0.39411637012E+03  0.00000000000E+00 0. -1.
        -13    1    5    5    0    0 -0.38550327616E+02  0.80557559754E+01  0.20264822150E+03  0.20643963922E+03  0.00000000000E+00 0.  1.
          4    1    6    6  503    0 -0.17728823217E+03  0.72367057973E+02 -0.26679227916E+03  0.32839949538E+03  0.00000000000E+00 0. -1.
         -4    1    6    6    0  503 -0.26923874834E+02  0.54305058843E+02 -0.44945908849E+02  0.75459056277E+02  0.00000000000E+00 0.  1.
<mgrwt>
<rscale>  0 0.13286929E+04</rscale>
<asrwt>0</asrwt>
<pdfrwt beam="1">  1        1 0.12117290E+00 0.13286929E+04</pdfrwt>
<pdfrwt beam="2">  1       -2 0.86209881E-01 0.13286929E+04</pdfrwt>
<totfact> 0.22718021E+01</totfact>
</mgrwt>
</event>
<event>
12    5  0.5197392E-008  0.2393178E+04  0.7818608E-02  0.8442062E-01
          1   -1    0    0  501    0  0.00000000000E+00  0.00000000000E+00  0.98774281498E+03  0.98774281498E+03  0.00000000000E+00 0. -1.
         -2   -1    0    0    0  501 -0.00000000000E+00 -0.00000000000E+00 -0.14495929172E+04  0.14495929172E+04  0.00000000000E+00 0.  1.
        -24    2    1    2    0    0  0.34868920941E+03  0.33579436488E+03 -0.11196861385E+04  0.12223892800E+04  0.78717740747E+02 0.  0.
        254    2    1    2    0    0 -0.34868920941E+03 -0.33579436488E+03  0.65783603635E+03  0.12149464522E+04  0.89944683594E+03 0.  0.
         23    2    4    4    0    0 -0.20492745237E+03  0.29320254943E+03  0.21924190970E+03  0.42943930737E+03  0.91586614866E+02 0.  0.
         23    2    4    4    0    0 -0.14376175704E+03 -0.62899691430E+03  0.43859412665E+03  0.78550714480E+03  0.91389855074E+02 0.  0.
          1    1    3    3  502    0  0.10276070417E+03  0.10051702708E+03 -0.24850459494E+03  0.28708529876E+03  0.00000000000E+00 0. -1.
         -2    1    3    3    0  502  0.24592850523E+03  0.23527733779E+03 -0.87118154358E+03  0.93530398120E+03  0.00000000000E+00 0.  1.
         13    1    5    5    0    0 -0.11583632032E+02 -0.20240262610E+01 -0.33178651282E+01  0.12218242197E+02  0.00000000000E+00 0.  1.
        -13    1    5    5    0    0 -0.19334382034E+03  0.29522657569E+03  0.22255977483E+03  0.41722106518E+03  0.00000000000E+00 0. -1.
          2    1    6    6  503    0 -0.11776803027E+03 -0.55950025337E+03  0.41873960271E+03  0.70869788863E+03  0.00000000000E+00 0. -1.
         -2    1    6    6    0  503 -0.25993726770E+02 -0.69496660933E+02  0.19854523942E+02  0.76809256169E+02  0.00000000000E+00 0.  1.
<mgrwt>
<rscale>  0 0.23931778E+04</rscale>
<asrwt>0</asrwt>
<pdfrwt beam="1">  1        1 0.15196043E+00 0.23931778E+04</pdfrwt>
<pdfrwt beam="2">  1       -2 0.22301429E+00 0.23931778E+04</pdfrwt>
<totfact> 0.11504451E+00</totfact>
</mgrwt>
</event>
<event>
12    5  0.5197392E-008  0.2557916E+04  0.7818608E-02  0.8382638E-01
          1   -1    0    0  501    0  0.00000000000E+00  0.00000000000E+00  0.18722624648E+04  0.18722624648E+04  0.00000000000E+00 0. -1.
         -2   -1    0    0    0  501 -0.00000000000E+00 -0.00000000000E+00 -0.87366695586E+03  0.87366695586E+03  0.00000000000E+00 0.  1.
        -24    2    1    2    0    0  0.85669258343E+03 -0.70965321566E+03  0.39493914678E+03  0.11832237042E+04  0.80694085380E+02 0.  0.
        254    2    1    2    0    0 -0.85669258343E+03  0.70965321566E+03  0.60365636214E+03  0.15627057165E+04  0.91657966580E+03 0.  0.
         23    2    4    4    0    0 -0.84033821865E+03  0.51321802469E+03  0.79651859572E+03  0.12697258037E+04  0.90557610337E+02 0.  0.
         23    2    4    4    0    0 -0.16354364779E+02  0.19643519097E+03 -0.19286223358E+03  0.29297991273E+03  0.98929968274E+02 0.  0.
          1    1    3    3  502    0  0.55354404844E+02 -0.23771325703E+02  0.14873322977E+02  0.62051605923E+02  0.00000000000E+00 0. -1.
         -2    1    3    3    0  502  0.80133817858E+03 -0.68588188996E+03  0.38006582380E+03  0.11211720982E+04  0.00000000000E+00 0.  1.
         13    1    5    5    0    0 -0.70089874913E+03  0.46064594483E+03  0.65452446875E+03  0.10638872230E+04  0.00000000000E+00 0. -1.
        -13    1    5    5    0    0 -0.13943946952E+03  0.52572079861E+02  0.14199412697E+03  0.20583858077E+03  0.00000000000E+00 0.  1.
          2    1    6    6  503    0  0.44612038177E+01  0.19930057961E+03 -0.17080660766E+03  0.26251765768E+03  0.00000000000E+00 0. -1.
         -2    1    6    6    0  503 -0.20815568597E+02 -0.28653886404E+01 -0.22055625916E+02  0.30462255048E+02  0.00000000000E+00 0.  1.
<mgrwt>
<rscale>  0 0.25579162E+04</rscale>
<asrwt>0</asrwt>
<pdfrwt beam="1">  1        1 0.28804038E+00 0.25579162E+04</pdfrwt>
<pdfrwt beam="2">  1       -2 0.13441030E+00 0.25579162E+04</pdfrwt>
<totfact> 0.11274757E+00</totfact>
</mgrwt>
</event>
<event>
12    5  0.5197392E-008  0.3602339E+04  0.7818608E-02  0.8089956E-01
          1   -1    0    0  501    0  0.00000000000E+00  0.00000000000E+00  0.19311723787E+04  0.19311723787E+04  0.00000000000E+00 0. -1.
         -2   -1    0    0    0  501 -0.00000000000E+00 -0.00000000000E+00 -0.16799180208E+04  0.16799180208E+04  0.00000000000E+00 0.  1.
        -24    2    1    2    0    0 -0.55991017075E+03  0.11193622310E+04  0.12541722858E+04  0.17735869741E+04  0.78685630968E+02 0.  0.
        254    2    1    2    0    0  0.55991017075E+03 -0.11193622310E+04 -0.10029179279E+04  0.18375034255E+04  0.89671805210E+03 0.  0.
         23    2    4    4    0    0  0.77979558319E+03 -0.67450559370E+03 -0.68098652334E+03  0.12389867574E+04  0.91140509891E+02 0.  0.
         23    2    4    4    0    0 -0.21988541245E+03 -0.44485663731E+03 -0.32193140455E+03  0.59851666806E+03  0.91298139847E+02 0.  0.
          3    1    3    3  502    0 -0.48109916628E+03  0.97347713407E+03  0.11233627575E+04  0.15623885635E+04  0.00000000000E+00 0. -1.
         -4    1    3    3    0  502 -0.78811004470E+02  0.14588509695E+03  0.13080952836E+03  0.21119841062E+03  0.00000000000E+00 0.  1.
         13    1    5    5    0    0  0.70359467655E+03 -0.58318290450E+03 -0.62759977415E+03  0.11086159143E+04  0.00000000000E+00 0.  1.
        -13    1    5    5    0    0  0.76200906648E+02 -0.91322689209E+02 -0.53386749186E+02  0.13037084309E+03  0.00000000000E+00 0. -1.
          4    1    6    6  503    0 -0.17704066189E+03 -0.35901502100E+03 -0.29964499498E+03  0.50002230379E+03  0.00000000000E+00 0. -1.
         -4    1    6    6    0  503 -0.42844750554E+02 -0.85841616315E+02 -0.22286409563E+02  0.98494364269E+02  0.00000000000E+00 0.  1.
<mgrwt>
<rscale>  0 0.36023388E+04</rscale>
<asrwt>0</asrwt>
<pdfrwt beam="1">  1        1 0.29710344E+00 0.36023388E+04</pdfrwt>
<pdfrwt beam="2">  1       -2 0.25844893E+00 0.36023388E+04</pdfrwt>
<totfact> 0.13456549E-01</totfact>
</mgrwt>
</event>
<event>
12    5  0.5197392E-008  0.1589881E+04  0.7818608E-02  0.8826789E-01
          1   -1    0    0  501    0  0.00000000000E+00  0.00000000000E+00  0.75786597975E+03  0.75786597975E+03  0.00000000000E+00 0. -1.
         -2   -1    0    0    0  501 -0.00000000000E+00 -0.00000000000E+00 -0.83382836701E+03  0.83382836701E+03  0.00000000000E+00 0.  1.
        -24    2    1    2    0    0 -0.13884716839E+03  0.44776260071E+03  0.22876627677E+03  0.52775682777E+03  0.80145973754E+02 0.  0.
        254    2    1    2    0    0  0.13884716839E+03 -0.44776260071E+03 -0.30472866402E+03  0.10639375190E+04  0.90517048277E+03 0.  0.
         23    2    4    4    0    0  0.13791830955E+03 -0.59498866711E+03 -0.50660500972E+03  0.79857523395E+03  0.89670476196E+02 0.  0.
         23    2    4    4    0    0  0.92885884189E+00  0.14722606640E+03  0.20187634570E+03  0.26536228504E+03  0.89368372274E+02 0.  0.
          1    1    3    3  502    0 -0.45667382906E+02  0.13595873790E+03  0.11214426061E+03  0.18206214176E+03  0.00000000000E+00 0. -1.
         -2    1    3    3    0  502 -0.93179785483E+02  0.31180386281E+03  0.11662201615E+03  0.34569468601E+03  0.00000000000E+00 0.  1.
         13    1    5    5    0    0  0.71404443826E+02 -0.24921955612E+03 -0.16086243603E+03  0.30509950029E+03  0.00000000000E+00 0. -1.
        -13    1    5    5    0    0  0.66513865721E+02 -0.34576911099E+03 -0.34574257369E+03  0.49347573366E+03  0.00000000000E+00 0.  1.
          3    1    6    6  503    0 -0.43063419396E+02  0.84219742599E+02  0.98631434258E+02  0.13665863660E+03  0.00000000000E+00 0. -1.
         -3    1    6    6    0  503  0.43992278238E+02  0.63006323800E+02  0.10324491145E+03  0.12870364844E+03  0.00000000000E+00 0.  1.
<mgrwt>
<rscale>  0 0.15898807E+04</rscale>
<asrwt>0</asrwt>
<pdfrwt beam="1">  1        1 0.11659477E+00 0.15898807E+04</pdfrwt>
<pdfrwt beam="2">  1       -2 0.12828129E+00 0.15898807E+04</pdfrwt>
<totfact> 0.91008323E+00</totfact>
</mgrwt>
</event>
<event>
12    5  0.5197392E-008  0.2461874E+04  0.7818608E-02  0.8416695E-01
          1   -1    0    0  501    0  0.00000000000E+00  0.00000000000E+00  0.68939148764E+03  0.68939148764E+03  0.00000000000E+00 0. -1.
         -2   -1    0    0    0  501 -0.00000000000E+00 -0.00000000000E+00 -0.21978896444E+04  0.21978896444E+04  0.00000000000E+00 0.  1.
        -24    2    1    2    0    0 -0.29941266631E+03  0.25185244749E+03  0.50633683048E+03  0.64914699722E+03  0.10925766811E+03 0.  0.
        254    2    1    2    0    0  0.29941266631E+03 -0.25185244749E+03 -0.20148349872E+04  0.22381341348E+04  0.89252830743E+03 0.  0.
         23    2    4    4    0    0  0.58729235030E+03 -0.46301579667E+02 -0.10560501019E+04  0.12121188664E+04  0.83271769508E+02 0.  0.
         23    2    4    4    0    0 -0.28787968399E+03 -0.20555086782E+03 -0.95878488531E+03  0.10260152684E+04  0.91175670684E+02 0.  0.
          1    1    3    3  502    0 -0.21054987712E+03  0.11776533190E+03  0.34792296598E+03  0.42337963391E+03  0.00000000000E+00 0. -1.
         -2    1    3    3    0  502 -0.88862789189E+02  0.13408711559E+03  0.15841386451E+03  0.22576736331E+03  0.00000000000E+00 0.  1.
         13    1    5    5    0    0  0.14743088401E+03  0.24013362181E+02 -0.25349159502E+03  0.29422864556E+03  0.00000000000E+00 0. -1.
        -13    1    5    5    0    0  0.43986146629E+03 -0.70314941848E+02 -0.80255850691E+03  0.91789022088E+03  0.00000000000E+00 0.  1.
          2    1    6    6  503    0 -0.11310664622E+03 -0.13180149728E+03 -0.51091893115E+03  0.53963219170E+03  0.00000000000E+00 0. -1.
         -2    1    6    6    0  503 -0.17477303777E+03 -0.73749370541E+02 -0.44786595416E+03  0.48638307668E+03  0.00000000000E+00 0.  1.
<mgrwt>
<rscale>  0 0.24618744E+04</rscale>
<asrwt>0</asrwt>
<pdfrwt beam="1">  1        1 0.10606023E+00 0.24618744E+04</pdfrwt>
<pdfrwt beam="2">  1       -2 0.33813687E+00 0.24618744E+04</pdfrwt>
<totfact> 0.40258177E-01</totfact>
</mgrwt>
</event>
<event>
12    5  0.5197392E-008  0.1402408E+04  0.7818608E-02  0.8952078E-01
          1   -1    0    0  501    0  0.00000000000E+00  0.00000000000E+00  0.11592253095E+04  0.11592253095E+04  0.00000000000E+00 0. -1.
         -2   -1    0    0    0  501 -0.00000000000E+00 -0.00000000000E+00 -0.42415113367E+03  0.42415113367E+03  0.00000000000E+00 0.  1.
        -24    2    1    2    0    0  0.13465161703E+02 -0.45096045952E+03  0.91878117090E+02  0.46719620807E+03  0.79272074591E+02 0.  0.
        254    2    1    2    0    0 -0.13465161703E+02  0.45096045952E+03  0.64319605878E+03  0.11161802351E+04  0.79284960784E+03 0.  0.
         23    2    4    4    0    0 -0.14965191707E+03  0.25897677262E+03 -0.10250091414E+03  0.32913244365E+03  0.91416973363E+02 0.  0.
         23    2    4    4    0    0  0.13618675537E+03  0.19198368689E+03  0.74569697292E+03  0.78704779149E+03  0.89306675515E+02 0.  0.
          3    1    3    3  502    0  0.45045224685E+01 -0.25495490448E+03  0.11780293693E+02  0.25526666324E+03  0.00000000000E+00 0. -1.
         -4    1    3    3    0  502  0.89606392343E+01 -0.19600555503E+03  0.80097823396E+02  0.21192954483E+03  0.00000000000E+00 0.  1.
         13    1    5    5    0    0 -0.29110680316E+02  0.12099543053E+02  0.87680317566E+01  0.32721690534E+02  0.00000000000E+00 0. -1.
        -13    1    5    5    0    0 -0.12054123676E+03  0.24687722957E+03 -0.11126894590E+03  0.29641075311E+03  0.00000000000E+00 0.  1.
          3    1    6    6  503    0 -0.13109957243E+02  0.17148953205E+02  0.54561055150E+02  0.58675943231E+02  0.00000000000E+00 0. -1.
         -3    1    6    6    0  503  0.14929671261E+03  0.17483473369E+03  0.69113591777E+03  0.72837184826E+03  0.00000000000E+00 0.  1.
<mgrwt>
<rscale>  0 0.14024075E+04</rscale>
<asrwt>0</asrwt>
<pdfrwt beam="1">  1        1 0.17834235E+00 0.14024075E+04</pdfrwt>
<pdfrwt beam="2">  1       -2 0.65254021E-01 0.14024075E+04</pdfrwt>
<totfact> 0.21193637E+01</totfact>
</mgrwt>
</event>
<event>
12    5  0.5197392E-008  0.2147729E+04  0.7818608E-02  0.8540505E-01
         -2   -1    0    0    0  501 -0.00000000000E+00  0.00000000000E+00  0.85041388778E+03  0.85041388778E+03  0.00000000000E+00 0.  1.
          1   -1    0    0  501    0  0.00000000000E+00 -0.00000000000E+00 -0.13560273304E+04  0.13560273304E+04  0.00000000000E+00 0. -1.
        -24    2    1    2    0    0  0.38758733307E+03  0.77135087873E+03 -0.17349960879E+02  0.86718592896E+03  0.80649211743E+02 0.  0.
        254    2    1    2    0    0 -0.38758733307E+03 -0.77135087873E+03 -0.48826348170E+03  0.13392552892E+04  0.89999854619E+03 0.  0.
         23    2    4    4    0    0 -0.42652736530E+03 -0.17794794906E+03  0.11786799334E+03  0.48535254343E+03  0.89906404847E+02 0.  0.
         23    2    4    4    0    0  0.38940032230E+02 -0.59340292968E+03 -0.60613147504E+03  0.85390274575E+03  0.90062040376E+02 0.  0.
          1    1    3    3  502    0  0.18768171780E+03  0.33071697291E+03 -0.42771872639E+02  0.38265856381E+03  0.00000000000E+00 0. -1.
         -2    1    3    3    0  502  0.19990561527E+03  0.44063390583E+03  0.25421911760E+02  0.48452736515E+03  0.00000000000E+00 0.  1.
         13    1    5    5    0    0 -0.31879834772E+03 -0.17337945206E+03  0.95100950307E+02  0.37514931914E+03  0.00000000000E+00 0. -1.
        -13    1    5    5    0    0 -0.10772901758E+03 -0.45684969995E+01  0.22767043028E+02  0.11020322428E+03  0.00000000000E+00 0.  1.
          4    1    6    6  503    0  0.59217840983E+01 -0.35953347852E+03 -0.42199302686E+03  0.55441636377E+03  0.00000000000E+00 0. -1.
         -4    1    6    6    0  503  0.33018248132E+02 -0.23386945115E+03 -0.18413844818E+03  0.29948638198E+03  0.00000000000E+00 0.  1.
<mgrwt>
<rscale>  0 0.21477285E+04</rscale>
<asrwt>0</asrwt>
<pdfrwt beam="1">  1        1 0.20861959E+00 0.21477285E+04</pdfrwt>
<pdfrwt beam="2">  1       -2 0.13083291E+00 0.21477285E+04</pdfrwt>
<totfact> 0.28343775E+00</totfact>
</mgrwt>
</event>
<event>
12    5  0.5197392E-008  0.2277945E+04  0.7818608E-02  0.8486668E-01
         -4   -1    0    0    0  501 -0.00000000000E+00  0.00000000000E+00  0.56439031608E+03  0.56439031608E+03  0.00000000000E+00 0.  1.
          1   -1    0    0  501    0  0.00000000000E+00 -0.00000000000E+00 -0.22985125377E+04  0.22985125377E+04  0.00000000000E+00 0. -1.
        -24    2    1    2    0    0 -0.35069023077E+03 -0.13296593560E+03  0.36678473456E+03  0.52964124785E+03  0.72974186730E+02 0.  0.
        254    2    1    2    0    0  0.35069023077E+03  0.13296593560E+03 -0.21009069561E+04  0.23332616059E+04  0.94320522963E+03 0.  0.
         23    2    4    4    0    0  0.59516371003E+03 -0.79578410794E+02 -0.90085837934E+03  0.10864771757E+04  0.91292214680E+02 0.  0.
         23    2    4    4    0    0 -0.24447347926E+03  0.21254434640E+03 -0.12000485768E+04  0.12467844302E+04  0.97017768898E+02 0.  0.
          1    1    3    3  502    0  0.94168181769E+00 -0.88285290628E+01  0.12024991984E+02  0.14947579144E+02  0.00000000000E+00 0. -1.
         -2    1    3    3    0  502 -0.35163191258E+03 -0.12413740654E+03  0.35475974258E+03  0.51469366870E+03  0.00000000000E+00 0.  1.
         13    1    5    5    0    0  0.17592143907E+03 -0.48576184180E+02 -0.33583180288E+03  0.38221852156E+03  0.00000000000E+00 0.  1.
        -13    1    5    5    0    0  0.41924227096E+03 -0.31002226614E+02 -0.56502657646E+03  0.70425865413E+03  0.00000000000E+00 0. -1.
          3    1    6    6  503    0 -0.14940815464E+03  0.13239184596E+03 -0.90221353212E+03  0.92403444475E+03  0.00000000000E+00 0. -1.
         -3    1    6    6    0  503 -0.95065324624E+02  0.80152500434E+02 -0.29783504468E+03  0.32274998546E+03  0.00000000000E+00 0.  1.
<mgrwt>
<rscale>  0 0.22779449E+04</rscale>
<asrwt>0</asrwt>
<pdfrwt beam="1">  1        1 0.35361732E+00 0.22779449E+04</pdfrwt>
<pdfrwt beam="2">  1       -4 0.86829278E-01 0.22779449E+04</pdfrwt>
<totfact> 0.95864036E-01</totfact>
</mgrwt>
</event>
<event>
12    5  0.5197392E-008  0.1746339E+04  0.7818608E-02  0.8735368E-01
          1   -1    0    0  501    0  0.00000000000E+00  0.00000000000E+00  0.73248106813E+03  0.73248106813E+03  0.00000000000E+00 0. -1.
         -2   -1    0    0    0  501 -0.00000000000E+00 -0.00000000000E+00 -0.10408802338E+04  0.10408802338E+04  0.00000000000E+00 0.  1.
        -24    2    1    2    0    0  0.17585626660E+03 -0.20603807130E+03  0.50355926785E+03  0.57753098958E+03  0.81197255882E+02 0.  0.
        254    2    1    2    0    0 -0.17585626660E+03  0.20603807130E+03 -0.81195843355E+03  0.11958303124E+04  0.83507875368E+03 0.  0.
         23    2    4    4    0    0  0.11543194031E+03 -0.25392966471E+03 -0.13909354224E+03  0.32509809180E+03  0.92395607796E+02 0.  0.
         23    2    4    4    0    0 -0.29128820691E+03  0.45996773600E+03 -0.67286489131E+03  0.87073222057E+03  0.94912066304E+02 0.  0.
          3    1    3    3  502    0  0.57859372913E+02 -0.76352490693E+02  0.10514062831E+03  0.14223910008E+03  0.00000000000E+00 0. -1.
         -4    1    3    3    0  502  0.11799689368E+03 -0.12968558061E+03  0.39841863954E+03  0.43529188951E+03  0.00000000000E+00 0.  1.
         13    1    5    5    0    0 -0.12852509423E+02 -0.78720857054E+01 -0.89575025608E+00  0.15098314487E+02  0.00000000000E+00 0.  1.
        -13    1    5    5    0    0  0.12828444973E+03 -0.24605757900E+03 -0.13819779198E+03  0.30999977731E+03  0.00000000000E+00 0. -1.
          3    1    6    6  503    0 -0.26348882559E+03  0.45187922716E+03 -0.64609902400E+03  0.83130328158E+03  0.00000000000E+00 0. -1.
         -3    1    6    6    0  503 -0.27799381316E+02  0.80885088394E+01 -0.26765867313E+02  0.39428938989E+02  0.00000000000E+00 0.  1.
<mgrwt>
<rscale>  0 0.17463391E+04</rscale>
<asrwt>0</asrwt>
<pdfrwt beam="1">  1        1 0.11268940E+00 0.17463391E+04</pdfrwt>
<pdfrwt beam="2">  1       -2 0.16013542E+00 0.17463391E+04</pdfrwt>
<totfact> 0.52985079E+00</totfact>
</mgrwt>
</event>
<event>
12    5  0.5197392E-008  0.1730325E+04  0.7818608E-02  0.8744255E-01
          1   -1    0    0  501    0  0.00000000000E+00  0.00000000000E+00  0.12302646023E+04  0.12302646023E+04  0.00000000000E+00 0. -1.
         -2   -1    0    0    0  501 -0.00000000000E+00 -0.00000000000E+00 -0.60841068056E+03  0.60841068056E+03  0.00000000000E+00 0.  1.
        -24    2    1    2    0    0 -0.42554691352E+03  0.26927256695E+03  0.63382236932E+03  0.81347743864E+03  0.80105283250E+02 0.  0.
        254    2    1    2    0    0  0.42554691352E+03 -0.26927256695E+03 -0.11968447604E+02  0.10251978442E+04  0.89291068148E+03 0.  0.
         23    2    4    4    0    0 -0.21167688483E+03 -0.20016617166E+03 -0.18202749761E+03  0.35591843929E+03  0.93114583672E+02 0.  0.
         23    2    4    4    0    0  0.63722379835E+03 -0.69106395284E+02  0.17005905000E+03  0.66927940491E+03  0.90470869820E+02 0.  0.
          3    1    3    3  502    0 -0.29013950671E+03  0.22409118290E+03  0.47311179879E+03  0.59852532591E+03  0.00000000000E+00 0. -1.
         -4    1    3    3    0  502 -0.13540740681E+03  0.45181384047E+02  0.16071057053E+03  0.21495211273E+03  0.00000000000E+00 0.  1.
         13    1    5    5    0    0 -0.18047476111E+03 -0.15823402357E+03 -0.10303595305E+03  0.26120021676E+03  0.00000000000E+00 0.  1.
        -13    1    5    5    0    0 -0.31202123719E+02 -0.41932148090E+02 -0.78991544556E+02  0.94718222531E+02  0.00000000000E+00 0. -1.
          1    1    6    6  503    0  0.23044925125E+03 -0.47478528114E+02  0.10129354071E+03  0.25616683904E+03  0.00000000000E+00 0. -1.
         -1    1    6    6    0  503  0.40677454710E+03 -0.21627867170E+02  0.68765509296E+02  0.41311256587E+03  0.00000000000E+00 0.  1.
<mgrwt>
<rscale>  0 0.17303250E+04</rscale>
<asrwt>0</asrwt>
<pdfrwt beam="1">  1        1 0.18927148E+00 0.17303250E+04</pdfrwt>
<pdfrwt beam="2">  1       -2 0.93601644E-01 0.17303250E+04</pdfrwt>
<totfact> 0.81587394E+00</totfact>
</mgrwt>
</event>
<event>
12    5  0.5197392E-008  0.3276646E+04  0.7818608E-02  0.8168863E-01
          1   -1    0    0  501    0  0.00000000000E+00  0.00000000000E+00  0.19904546332E+04  0.19904546332E+04  0.00000000000E+00 0. -1.
         -2   -1    0    0    0  501 -0.00000000000E+00 -0.00000000000E+00 -0.13484872590E+04  0.13484872590E+04  0.00000000000E+00 0.  1.
        -24    2    1    2    0    0 -0.12947943078E+04 -0.16964413795E+03 -0.48524470856E+03  0.13952801266E+04  0.77927989898E+02 0.  0.
        254    2    1    2    0    0  0.12947943078E+04  0.16964413795E+03  0.11272120828E+04  0.19436617655E+04  0.89551244904E+03 0.  0.
         23    2    4    4    0    0  0.17479576630E+03 -0.27794434658E+03  0.96007625093E+02  0.35410441849E+03  0.91465050184E+02 0.  0.
         23    2    4    4    0    0  0.11199985415E+04  0.44758848453E+03  0.10312044577E+04  0.15895573471E+04  0.92616098570E+02 0.  0.
          1    1    3    3  502    0 -0.33851294602E+02  0.17206688364E+01 -0.24825764048E+02  0.42014157234E+02  0.00000000000E+00 0. -1.
         -2    1    3    3    0  502 -0.12609430132E+04 -0.17136480679E+03 -0.46041894451E+03  0.13532659694E+04  0.00000000000E+00 0.  1.
         13    1    5    5    0    0  0.20776546170E+02 -0.46466338335E+02  0.51716198616E+02  0.72562736086E+02  0.00000000000E+00 0.  1.
        -13    1    5    5    0    0  0.15401922013E+03 -0.23147800825E+03  0.44291426477E+02  0.28154168241E+03  0.00000000000E+00 0. -1.
          2    1    6    6  503    0  0.11104745570E+04  0.44198486853E+03  0.10311057531E+04  0.15785067120E+04  0.00000000000E+00 0. -1.
         -2    1    6    6    0  503  0.95239844619E+01  0.56036160027E+01  0.98704547546E-01  0.11050635046E+02  0.00000000000E+00 0.  1.
<mgrwt>
<rscale>  0 0.32766463E+04</rscale>
<asrwt>0</asrwt>
<pdfrwt beam="1">  1        1 0.30622379E+00 0.32766463E+04</pdfrwt>
<pdfrwt beam="2">  1       -2 0.20745958E+00 0.32766463E+04</pdfrwt>
<totfact> 0.26288196E-01</totfact>
</mgrwt>
</event>
<event>
12    5  0.5197392E-008  0.2504972E+04  0.7818608E-02  0.8401216E-01
          1   -1    0    0  501    0  0.00000000000E+00  0.00000000000E+00  0.12209981269E+04  0.12209981269E+04  0.00000000000E+00 0. -1.
         -2   -1    0    0    0  501 -0.00000000000E+00 -0.00000000000E+00 -0.12847856036E+04  0.12847856036E+04  0.00000000000E+00 0.  1.
        -24    2    1    2    0    0 -0.98491002526E+03 -0.46535524364E+03  0.55516821338E+02  0.10935479744E+04  0.78497097443E+02 0.  0.
        254    2    1    2    0    0  0.98491002526E+03  0.46535524364E+03 -0.11930429808E+03  0.14122357561E+04  0.89082717435E+03 0.  0.
         23    2    4    4    0    0 -0.66991207573E+02  0.31101601839E+03  0.38868031107E+02  0.33308520365E+03  0.90643496528E+02 0.  0.
         23    2    4    4    0    0  0.10519012328E+04  0.15433922525E+03 -0.15817232918E+03  0.10791505524E+04  0.96076162448E+02 0.  0.
          1    1    3    3  502    0 -0.35894136663E+03 -0.18356066636E+03  0.56358941989E+02  0.40707462860E+03  0.00000000000E+00 0. -1.
         -2    1    3    3    0  502 -0.62596865864E+03 -0.28179457728E+03 -0.84212065077E+00  0.68647334584E+03  0.00000000000E+00 0.  1.
         13    1    5    5    0    0 -0.81680020603E+02  0.19601206022E+03  0.44688545867E+02  0.21700096693E+03  0.00000000000E+00 0. -1.
        -13    1    5    5    0    0  0.14688813031E+02  0.11500395817E+03 -0.58205147596E+01  0.11608423672E+03  0.00000000000E+00 0.  1.
          3    1    6    6  503    0  0.57600803028E+03  0.91122644698E+02 -0.38812367306E+02  0.58446127945E+03  0.00000000000E+00 0. -1.
         -3    1    6    6    0  503  0.47589320255E+03  0.63216580551E+02 -0.11935996188E+03  0.49468927297E+03  0.00000000000E+00 0.  1.
<mgrwt>
<rscale>  0 0.25049717E+04</rscale>
<asrwt>0</asrwt>
<pdfrwt beam="1">  1        1 0.18784587E+00 0.25049717E+04</pdfrwt>
<pdfrwt beam="2">  1       -2 0.19765932E+00 0.25049717E+04</pdfrwt>
<totfact> 0.11076497E+00</totfact>
</mgrwt>
</event>
<event>
12    5  0.5197392E-008  0.1414794E+04  0.7818608E-02  0.8943179E-01
          1   -1    0    0  501    0  0.00000000000E+00  0.00000000000E+00  0.57537621396E+03  0.57537621396E+03  0.00000000000E+00 0. -1.
         -2   -1    0    0    0  501 -0.00000000000E+00 -0.00000000000E+00 -0.86971011941E+03  0.86971011941E+03  0.00000000000E+00 0.  1.
        -24    2    1    2    0    0  0.26641059471E+02  0.16529287339E+03  0.29967093807E+03  0.35254633732E+03  0.80341575749E+02 0.  0.
        254    2    1    2    0    0 -0.26641059471E+02 -0.16529287339E+03 -0.59400484351E+03  0.10925399961E+04  0.90153780221E+03 0.  0.
         23    2    4    4    0    0  0.11081983106E+03 -0.22136704648E+03  0.16612019083E+03  0.31253123789E+03  0.93784074530E+02 0.  0.
         23    2    4    4    0    0 -0.13746089053E+03  0.56074173091E+02 -0.76012503434E+03  0.78000875816E+03  0.92648721815E+02 0.  0.
          3    1    3    3  502    0 -0.16911428708E+02  0.60028079557E+02  0.16360279517E+03  0.17508638252E+03  0.00000000000E+00 0. -1.
         -4    1    3    3    0  502  0.43552488179E+02  0.10526479383E+03  0.13606814290E+03  0.17745995480E+03  0.00000000000E+00 0.  1.
         13    1    5    5    0    0  0.83800287545E+02 -0.20321156878E+03  0.17242900823E+03  0.27937285616E+03  0.00000000000E+00 0. -1.
        -13    1    5    5    0    0  0.27019543513E+02 -0.18155477695E+02 -0.63088174034E+01  0.33158381731E+02  0.00000000000E+00 0.  1.
          4    1    6    6  503    0 -0.14702977546E+03  0.33960705782E+02 -0.65521194413E+03  0.67236431801E+03  0.00000000000E+00 0. -1.
         -4    1    6    6    0  503  0.95688849345E+01  0.22113467309E+02 -0.10491309022E+03  0.10764444015E+03  0.00000000000E+00 0.  1.
<mgrwt>
<rscale>  0 0.14147940E+04</rscale>
<asrwt>0</asrwt>
<pdfrwt beam="1">  1        1 0.88519418E-01 0.14147940E+04</pdfrwt>
<pdfrwt beam="2">  1       -2 0.13380156E+00 0.14147940E+04</pdfrwt>
<totfact> 0.12505400E+01</totfact>
</mgrwt>
</event>
<event>
12    5  0.5197392E-008  0.1252181E+04  0.7818608E-02  0.9068370E-01
          1   -1    0    0  501    0  0.00000000000E+00  0.00000000000E+00  0.69576754790E+03  0.69576754790E+03  0.00000000000E+00 0. -1.
         -2   -1    0    0    0  501 -0.00000000000E+00 -0.00000000000E+00 -0.56339125928E+03  0.56339125928E+03  0.00000000000E+00 0.  1.
        -24    2    1    2    0    0 -0.27581387892E+02  0.26061398929E+03 -0.72140356867E+02  0.28384248690E+03  0.81743145955E+02 0.  0.
        254    2    1    2    0    0  0.27581387892E+02 -0.26061398929E+03  0.20451664548E+03  0.97531632028E+03  0.91691574420E+03 0.  0.
         23    2    4    4    0    0 -0.10652659450E+03 -0.57917929771E+03  0.11109647669E+03  0.60628072634E+03  0.91854873398E+02 0.  0.
         23    2    4    4    0    0  0.13410798239E+03  0.31856530842E+03  0.93420168786E+02  0.36903559394E+03  0.89393148447E+02 0.  0.
          1    1    3    3  502    0 -0.12949972304E+02  0.72069406194E+02 -0.59427094547E+02  0.94304192155E+02  0.00000000000E+00 0. -1.
         -2    1    3    3    0  502 -0.14631415588E+02  0.18854458309E+03 -0.12713262320E+02  0.18953829474E+03  0.00000000000E+00 0.  1.
         13    1    5    5    0    0 -0.12209898453E+03 -0.54253535521E+03  0.10635490904E+03  0.56618383971E+03  0.00000000000E+00 0. -1.
        -13    1    5    5    0    0  0.15572390034E+02 -0.36643942505E+02  0.47415676527E+01  0.40096886631E+02  0.00000000000E+00 0.  1.
          3    1    6    6  503    0  0.88882768861E+02  0.15705531497E+03  0.75755340942E+01  0.18062089380E+03  0.00000000000E+00 0. -1.
         -3    1    6    6    0  503  0.45225213527E+02  0.16150999346E+03  0.85844634692E+02  0.18841470014E+03  0.00000000000E+00 0.  1.
<mgrwt>
<rscale>  0 0.12521811E+04</rscale>
<asrwt>0</asrwt>
<pdfrwt beam="1">  1        1 0.10704116E+00 0.12521811E+04</pdfrwt>
<pdfrwt beam="2">  1       -2 0.86675578E-01 0.12521811E+04</pdfrwt>
<totfact> 0.27364071E+01</totfact>
</mgrwt>
</event>
<event>
12    5  0.5197392E-008  0.1898447E+04  0.7818608E-02  0.8655630E-01
          1   -1    0    0  501    0  0.00000000000E+00  0.00000000000E+00  0.82332174393E+03  0.82332174393E+03  0.00000000000E+00 0. -1.
         -2   -1    0    0    0  501 -0.00000000000E+00 -0.00000000000E+00 -0.10943776305E+04  0.10943776305E+04  0.00000000000E+00 0.  1.
        -24    2    1    2    0    0 -0.24408951896E+03 -0.53970783089E+03  0.33308114645E+03  0.68427298671E+03  0.80138843483E+02 0.  0.
        254    2    1    2    0    0  0.24408951896E+03  0.53970783089E+03 -0.60413703299E+03  0.12334263877E+04  0.89749365636E+03 0.  0.
         23    2    4    4    0    0  0.46345849031E+03  0.50124320934E+03 -0.69287795555E+03  0.97704093276E+03  0.92144429319E+02 0.  0.
         23    2    4    4    0    0 -0.21936897135E+03  0.38464621545E+02  0.88740922566E+02  0.25638545491E+03  0.90864060286E+02 0.  0.
          1    1    3    3  502    0 -0.22108258366E+03 -0.52686494599E+03  0.31939287533E+03  0.65458077341E+03  0.00000000000E+00 0. -1.
         -2    1    3    3    0  502 -0.23006935299E+02 -0.12842884901E+02  0.13688271126E+02  0.29692213303E+02  0.00000000000E+00 0.  1.
         13    1    5    5    0    0  0.24855852797E+03  0.32763513489E+03 -0.44413984229E+03  0.60529854035E+03  0.00000000000E+00 0. -1.
        -13    1    5    5    0    0  0.21489996234E+03  0.17360807446E+03 -0.24873811326E+03  0.37174239242E+03  0.00000000000E+00 0.  1.
          4    1    6    6  503    0 -0.16924221282E+03 -0.76450707466E+01  0.44473706735E+02  0.17515502932E+03  0.00000000000E+00 0. -1.
         -4    1    6    6    0  503 -0.50126758528E+02  0.46109692291E+02  0.44267215831E+02  0.81230425588E+02  0.00000000000E+00 0.  1.
<mgrwt>
<rscale>  0 0.18984466E+04</rscale>
<asrwt>0</asrwt>
<pdfrwt beam="1">  1        1 0.12666488E+00 0.18984466E+04</pdfrwt>
<pdfrwt beam="2">  1       -2 0.16836579E+00 0.18984466E+04</pdfrwt>
<totfact> 0.37866301E+00</totfact>
</mgrwt>
</event>
<event>
12    5  0.5197392E-008  0.1689795E+04  0.7818608E-02  0.8767206E-01
          1   -1    0    0  501    0  0.00000000000E+00  0.00000000000E+00  0.33541864874E+04  0.33541864874E+04  0.00000000000E+00 0. -1.
         -2   -1    0    0    0  501 -0.00000000000E+00 -0.00000000000E+00 -0.21282402345E+03  0.21282402345E+03  0.00000000000E+00 0.  1.
        -24    2    1    2    0    0  0.78855413401E+02 -0.21866878892E+03 -0.41436626214E+02  0.24943444869E+03  0.80413523334E+02 0.  0.
        254    2    1    2    0    0 -0.78855413401E+02  0.21866878892E+03  0.31827990902E+04  0.33175760622E+04  0.90667892023E+03 0.  0.
         23    2    4    4    0    0 -0.12000298191E+03  0.24441048978E+03  0.24511816332E+03  0.37791636317E+03  0.92739745415E+02 0.  0.
         23    2    4    4    0    0  0.41147568510E+02 -0.25741700863E+02  0.29376809268E+04  0.29396596990E+04  0.96302442196E+02 0.  0.
          3    1    3    3  502    0  0.27003736177E+02 -0.73998420400E+01 -0.94814703955E+01  0.29561084395E+02  0.00000000000E+00 0. -1.
         -4    1    3    3    0  502  0.51851677223E+02 -0.21126894688E+03 -0.31955155818E+02  0.21987336430E+03  0.00000000000E+00 0.  1.
         13    1    5    5    0    0 -0.13530776773E+03  0.22275730349E+03  0.22857157435E+03  0.34666117876E+03  0.00000000000E+00 0.  1.
        -13    1    5    5    0    0  0.15304785815E+02  0.21653186294E+02  0.16546588973E+02  0.31255184404E+02  0.00000000000E+00 0. -1.
          1    1    6    6  503    0 -0.18040210314E+02  0.22257887448E+02  0.53075795542E+03  0.53153068583E+03  0.00000000000E+00 0. -1.
         -1    1    6    6    0  503  0.59187778824E+02 -0.47999588311E+02  0.24069229714E+04  0.24081290132E+04  0.00000000000E+00 0.  1.
<mgrwt>
<rscale>  0 0.16897946E+04</rscale>
<asrwt>0</asrwt>
<pdfrwt beam="1">  1        1 0.51602865E+00 0.16897946E+04</pdfrwt>
<pdfrwt beam="2">  1       -2 0.32742160E-01 0.16897946E+04</pdfrwt>
<totfact> 0.23779758E+00</totfact>
</mgrwt>
</event>
<event>
12    5  0.5197392E-008  0.1255980E+04  0.7818608E-02  0.9065221E-01
         -2   -1    0    0    0  501 -0.00000000000E+00  0.00000000000E+00  0.29927561261E+03  0.29927561261E+03  0.00000000000E+00 0.  1.
          1   -1    0    0  501    0  0.00000000000E+00 -0.00000000000E+00 -0.13177523765E+04  0.13177523765E+04  0.00000000000E+00 0. -1.
        -24    2    1    2    0    0  0.21351648754E+03  0.69902457158E+02  0.40374976486E+01  0.23845284739E+03  0.79798590661E+02 0.  0.
        254    2    1    2    0    0 -0.21351648754E+03 -0.69902457158E+02 -0.10225142615E+04  0.13785751417E+04  0.89691602860E+03 0.  0.
         23    2    4    4    0    0 -0.27718899254E+03  0.34480996172E+03 -0.73188534257E+03  0.86003775433E+03  0.91000752257E+02 0.  0.
         23    2    4    4    0    0  0.63672504993E+02 -0.41471241887E+03 -0.29062891895E+03  0.51853738739E+03  0.91516530355E+02 0.  0.
          3    1    3    3  502    0  0.68861989108E+02  0.32551237255E+02 -0.35317121872E+02  0.83957463564E+02  0.00000000000E+00 0. -1.
         -4    1    3    3    0  502  0.14465449844E+03  0.37351219903E+02  0.39354619521E+02  0.15449538383E+03  0.00000000000E+00 0.  1.
         13    1    5    5    0    0 -0.20119822866E+02 -0.17156658525E+01 -0.34064921463E+02  0.39600121916E+02  0.00000000000E+00 0. -1.
        -13    1    5    5    0    0 -0.25706916967E+03  0.34652562757E+03 -0.69782042111E+03  0.82043763241E+03  0.00000000000E+00 0.  1.
          3    1    6    6  503    0  0.85177506713E+02 -0.30283727157E+03 -0.22810984007E+03  0.38858682407E+03  0.00000000000E+00 0. -1.
         -3    1    6    6    0  503 -0.21505001720E+02 -0.11187514731E+03 -0.62519078880E+02  0.12995056332E+03  0.00000000000E+00 0.  1.
<mgrwt>
<rscale>  0 0.12559795E+04</rscale>
<asrwt>0</asrwt>
<pdfrwt beam="1">  1        1 0.20273113E+00 0.12559795E+04</pdfrwt>
<pdfrwt beam="2">  1       -2 0.46042402E-01 0.12559795E+04</pdfrwt>
<totfact> 0.33972417E+01</totfact>
</mgrwt>
</event>
<event>
12    5  0.5197392E-008  0.1650921E+04  0.7818608E-02  0.8789862E-01
         -2   -1    0    0    0  501 -0.00000000000E+00  0.00000000000E+00  0.13678538845E+04  0.13678538845E+04  0.00000000000E+00 0.  1.
          1   -1    0    0  501    0  0.00000000000E+00 -0.00000000000E+00 -0.49814146309E+03  0.49814146309E+03  0.00000000000E+00 0. -1.
        -24    2    1    2    0    0 -0.68088848507E+02 -0.12758687670E+03 -0.32562420619E+03  0.36508753854E+03  0.79644740810E+02 0.  0.
        254    2    1    2    0    0  0.68088848507E+02  0.12758687670E+03  0.11953366276E+04  0.15009078090E+04  0.89609156651E+03 0.  0.
         23    2    4    4    0    0  0.42415656760E+03 -0.11338657941E+03  0.44663139395E+03  0.63278981390E+03  0.90432495749E+02 0.  0.
         23    2    4    4    0    0 -0.35606771909E+03  0.24097345611E+03  0.74870523365E+03  0.86811799515E+03  0.90647115032E+02 0.  0.
          3    1    3    3  502    0 -0.38542413902E+02 -0.12461199387E+03 -0.29437586514E+03  0.32197952832E+03  0.00000000000E+00 0. -1.
         -4    1    3    3    0  502 -0.29546434605E+02 -0.29748828355E+01 -0.31248341057E+02  0.43108010214E+02  0.00000000000E+00 0.  1.
         13    1    5    5    0    0  0.31357303251E+03 -0.41349123590E+02  0.31431075245E+03  0.44590250710E+03  0.00000000000E+00 0. -1.
        -13    1    5    5    0    0  0.11058353509E+03 -0.72037455818E+02  0.13232064150E+03  0.18688730680E+03  0.00000000000E+00 0.  1.
          3    1    6    6  503    0 -0.33640527268E+03  0.20451585613E+03  0.70767883756E+03  0.80981762146E+03  0.00000000000E+00 0. -1.
         -3    1    6    6    0  503 -0.19662446417E+02  0.36457599984E+02  0.41026396091E+02  0.58300373686E+02  0.00000000000E+00 0.  1.
<mgrwt>
<rscale>  0 0.16509206E+04</rscale>
<asrwt>0</asrwt>
<pdfrwt beam="1">  1        1 0.76637148E-01 0.16509206E+04</pdfrwt>
<pdfrwt beam="2">  1       -2 0.21043906E+00 0.16509206E+04</pdfrwt>
<totfact> 0.42332154E+00</totfact>
</mgrwt>
</event>
<event>
12    5  0.5197392E-008  0.1211873E+04  0.7818608E-02  0.9102527E-01
         -2   -1    0    0    0  501 -0.00000000000E+00  0.00000000000E+00  0.95067408605E+03  0.95067408605E+03  0.00000000000E+00 0.  1.
          1   -1    0    0  501    0  0.00000000000E+00 -0.00000000000E+00 -0.38620919832E+03  0.38620919832E+03  0.00000000000E+00 0. -1.
        -24    2    1    2    0    0 -0.18649916333E+03 -0.37713086119E+01  0.33290440553E+03  0.39016260147E+03  0.81273314660E+02 0.  0.
        254    2    1    2    0    0  0.18649916333E+03  0.37713086119E+01  0.23156048219E+03  0.94672068289E+03  0.89881234627E+03 0.  0.
         23    2    4    4    0    0  0.45435026191E+03 -0.25969878792E+03  0.11794671206E+03  0.54398860417E+03  0.90191760309E+02 0.  0.
         23    2    4    4    0    0 -0.26785109858E+03  0.26347009654E+03  0.11361377013E+03  0.40273207873E+03  0.90135096884E+02 0.  0.
          3    1    3    3  502    0  0.70762041940E+01 -0.38080905762E+01  0.26870510555E+02  0.28046364419E+02  0.00000000000E+00 0. -1.
         -4    1    3    3    0  502 -0.19357536752E+03  0.36781964295E-01  0.30603389498E+03  0.36211623706E+03  0.00000000000E+00 0.  1.
         13    1    5    5    0    0  0.33425560572E+03 -0.19517971256E+03  0.45862792593E+02  0.38977599451E+03  0.00000000000E+00 0.  1.
        -13    1    5    5    0    0  0.12009465620E+03 -0.64519075366E+02  0.72083919469E+02  0.15421260966E+03  0.00000000000E+00 0. -1.
          1    1    6    6  503    0 -0.14218923528E+03  0.77572146970E+02  0.45844577921E+02  0.16833580112E+03  0.00000000000E+00 0. -1.
         -1    1    6    6    0  503 -0.12566186331E+03  0.18589794957E+03  0.67769192211E+02  0.23439627761E+03  0.00000000000E+00 0.  1.
<mgrwt>
<rscale>  0 0.12118731E+04</rscale>
<asrwt>0</asrwt>
<pdfrwt beam="1">  1        1 0.59416800E-01 0.12118731E+04</pdfrwt>
<pdfrwt beam="2">  1       -2 0.14625755E+00 0.12118731E+04</pdfrwt>
<totfact> 0.17379238E+01</totfact>
</mgrwt>
</event>
<event>
12    5  0.5197392E-008  0.2468605E+04  0.7818608E-02  0.8414256E-01
         -2   -1    0    0    0  501 -0.00000000000E+00  0.00000000000E+00  0.75657410725E+03  0.75657410725E+03  0.00000000000E+00 0.  1.
          1   -1    0    0  501    0  0.00000000000E+00 -0.00000000000E+00 -0.20136857216E+04  0.20136857216E+04  0.00000000000E+00 0. -1.
        -24    2    1    2    0    0 -0.43402543051E+03  0.97703846381E+03 -0.46651853121E+03  0.11690484885E+04  0.77798421890E+02 0.  0.
        254    2    1    2    0    0  0.43402543051E+03 -0.97703846381E+03 -0.79059308319E+03  0.16012113404E+04  0.89210879339E+03 0.  0.
         23    2    4    4    0    0  0.38057478057E+03 -0.74895716797E+03 -0.81805378938E+02  0.84903392729E+03  0.91610515783E+02 0.  0.
         23    2    4    4    0    0  0.53450649945E+02 -0.22808129584E+03 -0.70878770425E+03  0.75217741309E+03  0.92264844683E+02 0.  0.
          1    1    3    3  502    0 -0.93424116894E+02  0.22107023347E+03 -0.70268600433E+02  0.25007556848E+03  0.00000000000E+00 0. -1.
         -2    1    3    3    0  502 -0.34060131362E+03  0.75596823034E+03 -0.39624993077E+03  0.91897292003E+03  0.00000000000E+00 0.  1.
         13    1    5    5    0    0  0.10760452298E+03 -0.24704145197E+03 -0.66230966362E+02  0.27747928438E+03  0.00000000000E+00 0. -1.
        -13    1    5    5    0    0  0.27297025759E+03 -0.50191571600E+03 -0.15574412576E+02  0.57155464291E+03  0.00000000000E+00 0.  1.
          4    1    6    6  503    0  0.13425083601E+02 -0.20518601695E+03 -0.58404001013E+03  0.61918031933E+03  0.00000000000E+00 0.  1.
         -4    1    6    6    0  503  0.40025566344E+02 -0.22895278890E+02 -0.12474769413E+03  0.13299709375E+03  0.00000000000E+00 0. -1.
<mgrwt>
<rscale>  0 0.24686049E+04</rscale>
<asrwt>0</asrwt>
<pdfrwt beam="1">  1        1 0.30979780E+00 0.24686049E+04</pdfrwt>
<pdfrwt beam="2">  1       -2 0.11639602E+00 0.24686049E+04</pdfrwt>
<totfact> 0.13071446E+00</totfact>
</mgrwt>
</event>
<event>
12    5  0.5197392E-008  0.2448478E+04  0.7818608E-02  0.8421574E-01
          1   -1    0    0  501    0  0.00000000000E+00  0.00000000000E+00  0.32176783467E+04  0.32176783467E+04  0.00000000000E+00 0. -1.
         -2   -1    0    0    0  501 -0.00000000000E+00 -0.00000000000E+00 -0.46578963380E+03  0.46578963380E+03  0.00000000000E+00 0.  1.
        -24    2    1    2    0    0 -0.85688626624E+03 -0.92327451036E+02  0.21187913520E+04  0.22886784515E+04  0.77419826631E+02 0.  0.
        254    2    1    2    0    0  0.85688626624E+03  0.92327451036E+02  0.63309736092E+03  0.13947895290E+04  0.89545917292E+03 0.  0.
         23    2    4    4    0    0 -0.55455351416E+02 -0.17599823047E+03 -0.58933799596E+02  0.21510199029E+03  0.93514706660E+02 0.  0.
         23    2    4    4    0    0  0.91234161766E+03  0.26832568150E+03  0.69203116052E+03  0.11796875387E+04  0.91595104919E+02 0.  0.
          3    1    3    3  502    0 -0.75124199980E+03 -0.10607141940E+03  0.18469974798E+04  0.19967512060E+04  0.00000000000E+00 0. -1.
         -4    1    3    3    0  502 -0.10564426644E+03  0.13743968366E+02  0.27179387222E+03  0.29192724552E+03  0.00000000000E+00 0.  1.
         13    1    5    5    0    0 -0.15486075198E+02 -0.40092218494E+02 -0.59549151189E+02  0.73439130687E+02  0.00000000000E+00 0.  1.
        -13    1    5    5    0    0 -0.39969276219E+02 -0.13590601197E+03  0.61535159311E+00  0.14166285960E+03  0.00000000000E+00 0. -1.
          2    1    6    6  503    0  0.42417341202E+03  0.10506844490E+03  0.26665101047E+03  0.51192306352E+03  0.00000000000E+00 0. -1.
         -2    1    6    6    0  503  0.48816820563E+03  0.16325723661E+03  0.42538015005E+03  0.66776447521E+03  0.00000000000E+00 0.  1.
<mgrwt>
<rscale>  0 0.24484781E+04</rscale>
<asrwt>0</asrwt>
<pdfrwt beam="1">  1        1 0.49502742E+00 0.24484781E+04</pdfrwt>
<pdfrwt beam="2">  1       -2 0.71659946E-01 0.24484781E+04</pdfrwt>
<totfact> 0.57147360E-01</totfact>
</mgrwt>
</event>
<event>
12    5  0.5197392E-008  0.2780710E+04  0.7818608E-02  0.8309282E-01
         -2   -1    0    0    0  501 -0.00000000000E+00  0.00000000000E+00  0.91674289662E+03  0.91674289662E+03  0.00000000000E+00 0.  1.
          1   -1    0    0  501    0  0.00000000000E+00 -0.00000000000E+00 -0.21086474085E+04  0.21086474085E+04  0.00000000000E+00 0. -1.
        -24    2    1    2    0    0 -0.12196024203E+04 -0.23838892629E+03 -0.66188582842E+03  0.14101828641E+04  0.79142380592E+02 0.  0.
        254    2    1    2    0    0  0.12196024203E+04  0.23838892629E+03 -0.53001868347E+03  0.16152074411E+04  0.88527731762E+03 0.  0.
         23    2    4    4    0    0  0.20015649325E+03 -0.88988731428E+02  0.20435013622E+03  0.31352576856E+03  0.92508449700E+02 0.  0.
         23    2    4    4    0    0  0.10194459271E+04  0.32737765772E+03 -0.73436881969E+03  0.13016816725E+04  0.92905781728E+02 0.  0.
          3    1    3    3  502    0 -0.89380563006E+03 -0.14491496159E+03 -0.50366703232E+03  0.10361319076E+04  0.00000000000E+00 0. -1.
         -4    1    3    3    0  502 -0.32579679025E+03 -0.93473964708E+02 -0.15821879610E+03  0.37405095650E+03  0.00000000000E+00 0.  1.
         13    1    5    5    0    0  0.17385955940E+03 -0.66481201242E+02  0.20751923582E+03  0.27876716045E+03  0.00000000000E+00 0. -1.
        -13    1    5    5    0    0  0.26296933848E+02 -0.22507530186E+02 -0.31690996002E+01  0.34758608102E+02  0.00000000000E+00 0.  1.
          1    1    6    6  503    0  0.42117621169E+03  0.12451120615E+03 -0.35558667894E+03  0.56509674215E+03  0.00000000000E+00 0.  1.
         -1    1    6    6    0  503  0.59826971537E+03  0.20286645157E+03 -0.37878214075E+03  0.73658493038E+03  0.00000000000E+00 0. -1.
<mgrwt>
<rscale>  0 0.27807104E+04</rscale>
<asrwt>0</asrwt>
<pdfrwt beam="1">  1        1 0.32440729E+00 0.27807104E+04</pdfrwt>
<pdfrwt beam="2">  1       -2 0.14103737E+00 0.27807104E+04</pdfrwt>
<totfact> 0.67524308E-01</totfact>
</mgrwt>
</event>
<event>
12    5  0.5197392E-008  0.1481487E+04  0.7818608E-02  0.8896858E-01
          1   -1    0    0  501    0  0.00000000000E+00  0.00000000000E+00  0.16669181362E+04  0.16669181362E+04  0.00000000000E+00 0. -1.
         -2   -1    0    0    0  501 -0.00000000000E+00 -0.00000000000E+00 -0.32917072024E+03  0.32917072024E+03  0.00000000000E+00 0.  1.
        -24    2    1    2    0    0  0.29303864663E+03  0.24635313367E+03  0.74403047433E+03  0.84067884705E+03  0.81228457140E+02 0.  0.
        254    2    1    2    0    0 -0.29303864663E+03 -0.24635313367E+03  0.59371694163E+03  0.11554100094E+04  0.91428166784E+03 0.  0.
         23    2    4    4    0    0  0.27875847107E+03 -0.23833821358E+03  0.38195692787E+03  0.53781830279E+03  0.94053404129E+02 0.  0.
         23    2    4    4    0    0 -0.57179711770E+03 -0.80149200933E+01  0.21176001377E+03  0.61759170661E+03  0.97780518944E+02 0.  0.
          1    1    3    3  502    0  0.24726459599E+03  0.17813852874E+03  0.63322824796E+03  0.70274542323E+03  0.00000000000E+00 0. -1.
         -2    1    3    3    0  502  0.45774050638E+02  0.68214604930E+02  0.11080222637E+03  0.13793342382E+03  0.00000000000E+00 0.  1.
         13    1    5    5    0    0  0.54707054610E+02 -0.28069786336E+02  0.11664809342E+03  0.13186186874E+03  0.00000000000E+00 0.  1.
        -13    1    5    5    0    0  0.22405141646E+03 -0.21026842724E+03  0.26530883444E+03  0.40595643405E+03  0.00000000000E+00 0. -1.
          4    1    6    6  503    0 -0.33891856660E+03  0.42219004400E+02  0.11372761266E+03  0.35997528943E+03  0.00000000000E+00 0. -1.
         -4    1    6    6    0  503 -0.23287855110E+03 -0.50233924493E+02  0.98032401104E+02  0.25761641718E+03  0.00000000000E+00 0.  1.
<mgrwt>
<rscale>  0 0.14814866E+04</rscale>
<asrwt>0</asrwt>
<pdfrwt beam="1">  1        1 0.25644894E+00 0.14814866E+04</pdfrwt>
<pdfrwt beam="2">  1       -2 0.50641650E-01 0.14814866E+04</pdfrwt>
<totfact> 0.15739639E+01</totfact>
</mgrwt>
</event>
<event>
12    5  0.5197392E-008  0.1275903E+04  0.7818608E-02  0.9048896E-01
         -2   -1    0    0    0  501 -0.00000000000E+00  0.00000000000E+00  0.17258757557E+03  0.17258757557E+03  0.00000000000E+00 0.  1.
          1   -1    0    0  501    0  0.00000000000E+00 -0.00000000000E+00 -0.23581176622E+04  0.23581176622E+04  0.00000000000E+00 0. -1.
        -24    2    1    2    0    0 -0.40998412405E+02 -0.12264069511E+03  0.95892037934E+01  0.15387771499E+03  0.82854018765E+02 0.  0.
        254    2    1    2    0    0  0.40998412405E+02  0.12264069511E+03 -0.21951192904E+04  0.23768275228E+04  0.90224096778E+03 0.  0.
         23    2    4    4    0    0 -0.13001659293E+03 -0.19912075816E+03 -0.14629253804E+03  0.29364522615E+03  0.90953952037E+02 0.  0.
         23    2    4    4    0    0  0.17101500533E+03  0.32176145327E+03 -0.20488267524E+04  0.20831822966E+04  0.95816777365E+02 0.  0.
          3    1    3    3  502    0 -0.51506774827E+01  0.12424647984E+02 -0.22446297116E+01  0.13635971495E+02  0.00000000000E+00 0. -1.
         -4    1    3    3    0  502 -0.35847734922E+02 -0.13506534309E+03  0.11833833505E+02  0.14024174350E+03  0.00000000000E+00 0.  1.
         13    1    5    5    0    0  0.12904581621E+02 -0.26746636616E+02 -0.25949591954E+02  0.39437192086E+02  0.00000000000E+00 0.  1.
        -13    1    5    5    0    0 -0.14292117455E+03 -0.17237412154E+03 -0.12034294608E+03  0.25420803407E+03  0.00000000000E+00 0. -1.
          4    1    6    6  503    0  0.72292003935E+02  0.50941406818E+02 -0.49968922813E+03  0.50745490979E+03  0.00000000000E+00 0. -1.
         -4    1    6    6    0  503  0.98723001399E+02  0.27082004645E+03 -0.15491375242E+04  0.15757273868E+04  0.00000000000E+00 0.  1.
<mgrwt>
<rscale>  0 0.12759025E+04</rscale>
<asrwt>0</asrwt>
<pdfrwt beam="1">  1        1 0.36278732E+00 0.12759025E+04</pdfrwt>
<pdfrwt beam="2">  1       -2 0.26551935E-01 0.12759025E+04</pdfrwt>
<totfact> 0.18929215E+01</totfact>
</mgrwt>
</event>
<event>
12    5  0.5197392E-008  0.2439629E+04  0.7818608E-02  0.8424814E-01
          1   -1    0    0  501    0  0.00000000000E+00  0.00000000000E+00  0.13199712421E+04  0.13199712421E+04  0.00000000000E+00 0. -1.
         -2   -1    0    0    0  501 -0.00000000000E+00 -0.00000000000E+00 -0.11272578765E+04  0.11272578765E+04  0.00000000000E+00 0.  1.
        -24    2    1    2    0    0 -0.69487082746E+03 -0.25140726117E+03  0.82675417954E+03  0.11117583949E+04  0.80207090860E+02 0.  0.
        254    2    1    2    0    0  0.69487082746E+03  0.25140726117E+03 -0.63404081397E+03  0.13354707237E+04  0.91401489168E+03 0.  0.
         23    2    4    4    0    0  0.31446833841E+03  0.51209879243E+03 -0.87326303274E+02  0.61422720692E+03  0.92269547576E+02 0.  0.
         23    2    4    4    0    0  0.38040248905E+03 -0.26069153126E+03 -0.54671451070E+03  0.72124351676E+03  0.92894166220E+02 0.  0.
          1    1    3    3  502    0 -0.53369317598E+03 -0.22800311010E+03  0.65176909871E+03  0.87270658433E+03  0.00000000000E+00 0. -1.
         -2    1    3    3    0  502 -0.16117765148E+03 -0.23404151071E+02  0.17498508083E+03  0.23905181057E+03  0.00000000000E+00 0.  1.
         13    1    5    5    0    0  0.87175428688E+02  0.21416736265E+03 -0.57725864983E+02  0.23832643596E+03  0.00000000000E+00 0. -1.
        -13    1    5    5    0    0  0.22729290972E+03  0.29793142978E+03 -0.29600438292E+02  0.37590077096E+03  0.00000000000E+00 0.  1.
          4    1    6    6  503    0  0.21985398336E+03 -0.10963242799E+03 -0.33649516252E+03  0.41663417727E+03  0.00000000000E+00 0. -1.
         -4    1    6    6    0  503  0.16054850569E+03 -0.15105910327E+03 -0.21021934818E+03  0.30460933950E+03  0.00000000000E+00 0.  1.
<mgrwt>
<rscale>  0 0.24396295E+04</rscale>
<asrwt>0</asrwt>
<pdfrwt beam="1">  1        1 0.20307250E+00 0.24396295E+04</pdfrwt>
<pdfrwt beam="2">  1       -2 0.17342429E+00 0.24396295E+04</pdfrwt>
<totfact> 0.13829577E+00</totfact>
</mgrwt>
</event>
<event>
12    5  0.5197392E-008  0.2065192E+04  0.7818608E-02  0.8576733E-01
          1   -1    0    0  501    0  0.00000000000E+00  0.00000000000E+00  0.12483727929E+04  0.12483727929E+04  0.00000000000E+00 0. -1.
         -2   -1    0    0    0  501 -0.00000000000E+00 -0.00000000000E+00 -0.85411574514E+03  0.85411574514E+03  0.00000000000E+00 0.  1.
        -24    2    1    2    0    0 -0.26034878339E+03  0.78284302964E+03  0.35773595076E+02  0.82948809357E+03  0.78396742325E+02 0.  0.
        254    2    1    2    0    0  0.26034878339E+03 -0.78284302964E+03  0.35848345273E+03  0.12730004445E+04  0.90077469313E+03 0.  0.
         23    2    4    4    0    0 -0.26044227322E+03 -0.39245316025E+03 -0.75585526149E+02  0.48532709132E+03  0.89328344517E+02 0.  0.
         23    2    4    4    0    0  0.52079105661E+03 -0.39038986939E+03  0.43406897887E+03  0.78767335319E+03  0.91574331254E+02 0.  0.
          3    1    3    3  502    0 -0.19642465139E+03  0.62938593215E+03 -0.55908591453E+00  0.65932511543E+03  0.00000000000E+00 0. -1.
         -4    1    3    3    0  502 -0.63924132002E+02  0.15345709748E+03  0.36332680991E+02  0.17016297814E+03  0.00000000000E+00 0.  1.
         13    1    5    5    0    0 -0.19373590086E+03 -0.22992663072E+03 -0.21172260963E+02  0.30141021786E+03  0.00000000000E+00 0. -1.
        -13    1    5    5    0    0 -0.66706372358E+02 -0.16252652953E+03 -0.54413265186E+02  0.18391687345E+03  0.00000000000E+00 0.  1.
          2    1    6    6  503    0  0.46614523627E+03 -0.37531424045E+03  0.37740247060E+03  0.70752016593E+03  0.00000000000E+00 0. -1.
         -2    1    6    6    0  503  0.54645820339E+02 -0.15075628934E+02  0.56666508270E+02  0.80153187260E+02  0.00000000000E+00 0.  1.
<mgrwt>
<rscale>  0 0.20651923E+04</rscale>
<asrwt>0</asrwt>
<pdfrwt beam="1">  1        1 0.19205735E+00 0.20651923E+04</pdfrwt>
<pdfrwt beam="2">  1       -2 0.13140242E+00 0.20651923E+04</pdfrwt>
<totfact> 0.33703209E+00</totfact>
</mgrwt>
</event>
<event>
12    5  0.5197392E-008  0.1332826E+04  0.7818608E-02  0.9003931E-01
          1   -1    0    0  501    0  0.00000000000E+00  0.00000000000E+00  0.22807813085E+04  0.22807813085E+04  0.00000000000E+00 0. -1.
         -2   -1    0    0    0  501 -0.00000000000E+00 -0.00000000000E+00 -0.19471673401E+03  0.19471673401E+03  0.00000000000E+00 0.  1.
        -24    2    1    2    0    0  0.37415965717E+03  0.11697684366E+03  0.60601016028E+03  0.72627897411E+03  0.80955561067E+02 0.  0.
        254    2    1    2    0    0 -0.37415965717E+03 -0.11697684366E+03  0.14800544142E+04  0.17492190684E+04  0.84588843780E+03 0.  0.
         23    2    4    4    0    0 -0.44451033844E+03  0.88429371474E+02  0.14371575358E+04  0.15097773341E+04  0.92717965399E+02 0.  0.
         23    2    4    4    0    0  0.70350681272E+02 -0.20540621513E+03  0.42896878383E+02  0.23944173428E+03  0.91385285300E+02 0.  0.
          1    1    3    3  502    0  0.13439501207E+02  0.24523087584E+01  0.62536206053E+02  0.64011023101E+02  0.00000000000E+00 0. -1.
         -2    1    3    3    0  502  0.36072015597E+03  0.11452453490E+03  0.54347395423E+03  0.66226795101E+03  0.00000000000E+00 0.  1.
         13    1    5    5    0    0 -0.29913133707E+03  0.98609668014E+02  0.10440897064E+04  0.10905625789E+04  0.00000000000E+00 0.  1.
        -13    1    5    5    0    0 -0.14537900137E+03 -0.10180296540E+02  0.39306782940E+03  0.41921475521E+03  0.00000000000E+00 0. -1.
          3    1    6    6  503    0  0.24636301727E+02  0.42509870062E+00  0.64248304155E+01  0.25463827629E+02  0.00000000000E+00 0. -1.
         -3    1    6    6    0  503  0.45714379545E+02 -0.20583131383E+03  0.36472047968E+02  0.21397790665E+03  0.00000000000E+00 0.  1.
<mgrwt>
<rscale>  0 0.13328260E+04</rscale>
<asrwt>0</asrwt>
<pdfrwt beam="1">  1        1 0.35088941E+00 0.13328260E+04</pdfrwt>
<pdfrwt beam="2">  1       -2 0.29956422E-01 0.13328260E+04</pdfrwt>
<totfact> 0.17019453E+01</totfact>
</mgrwt>
</event>
<event>
12    5  0.5197392E-008  0.1739597E+04  0.7818608E-02  0.8739098E-01
         -4   -1    0    0    0  501 -0.00000000000E+00  0.00000000000E+00  0.43897424855E+03  0.43897424855E+03  0.00000000000E+00 0.  1.
          3   -1    0    0  501    0  0.00000000000E+00 -0.00000000000E+00 -0.17234474323E+04  0.17234474323E+04  0.00000000000E+00 0. -1.
        -24    2    1    2    0    0 -0.55855820417E+03 -0.30085646173E+03 -0.58983249167E+03  0.86994531651E+03  0.80003796602E+02 0.  0.
        254    2    1    2    0    0  0.55855820417E+03  0.30085646173E+03 -0.69464069204E+03  0.12924763643E+04  0.88626609052E+03 0.  0.
         23    2    4    4    0    0 -0.31505426423E+02 -0.23654065877E+03 -0.31082578037E+03  0.40229713532E+03  0.91028809701E+02 0.  0.
         23    2    4    4    0    0  0.59006363060E+03  0.53739712050E+03 -0.38381491167E+03  0.89017922898E+03  0.90191019562E+02 0.  0.
          3    1    3    3  502    0 -0.36338310052E+03 -0.23703583613E+03 -0.38886833335E+03  0.58262496174E+03  0.00000000000E+00 0. -1.
         -4    1    3    3    0  502 -0.19517510365E+03 -0.63820625598E+02 -0.20096415832E+03  0.28732035477E+03  0.00000000000E+00 0.  1.
         13    1    5    5    0    0 -0.40215108384E+02 -0.20719405341E+03 -0.21326962097E+03  0.30005093224E+03  0.00000000000E+00 0.  1.
        -13    1    5    5    0    0  0.87096819603E+01 -0.29346605360E+02 -0.97556159403E+02  0.10224620308E+03  0.00000000000E+00 0. -1.
          2    1    6    6  503    0  0.30121585206E+03  0.25492849890E+03 -0.14229542713E+03  0.41948482412E+03  0.00000000000E+00 0. -1.
         -2    1    6    6    0  503  0.28884777854E+03  0.28246862160E+03 -0.24151948454E+03  0.47069440486E+03  0.00000000000E+00 0.  1.
<mgrwt>
<rscale>  0 0.17395966E+04</rscale>
<asrwt>0</asrwt>
<pdfrwt beam="1">  1        3 0.26514575E+00 0.17395966E+04</pdfrwt>
<pdfrwt beam="2">  1       -4 0.67534501E-01 0.17395966E+04</pdfrwt>
<totfact> 0.26724759E-01</totfact>
</mgrwt>
</event>
<event>
12    5  0.5197392E-008  0.1943973E+04  0.7818608E-02  0.8633273E-01
         -2   -1    0    0    0  501 -0.00000000000E+00  0.00000000000E+00  0.18343122429E+04  0.18343122429E+04  0.00000000000E+00 0.  1.
          1   -1    0    0  501    0  0.00000000000E+00 -0.00000000000E+00 -0.51504734102E+03  0.51504734102E+03  0.00000000000E+00 0. -1.
        -24    2    1    2    0    0  0.76670647735E+02  0.88233894745E+01  0.14374198517E+04  0.14416167448E+04  0.78273676425E+02 0.  0.
        254    2    1    2    0    0 -0.76670647735E+02 -0.88233894745E+01 -0.11815494974E+03  0.90774283919E+03  0.89670520770E+03 0.  0.
         23    2    4    4    0    0  0.88500406751E+02 -0.42382481977E+03 -0.83683892048E+02  0.45036286170E+03  0.91454434378E+02 0.  0.
         23    2    4    4    0    0 -0.16517105449E+03  0.41500143029E+03 -0.34471057691E+02  0.45737997749E+03  0.92198295005E+02 0.  0.
          3    1    3    3  502    0 -0.48993532219E+01  0.24225342717E+02  0.22364062774E+03  0.22500222503E+03  0.00000000000E+00 0. -1.
         -2    1    3    3    0  502  0.81570000957E+02 -0.15401953242E+02  0.12137792239E+04  0.12166145197E+04  0.00000000000E+00 0.  1.
         13    1    5    5    0    0  0.10031090095E+03 -0.39192103994E+03 -0.60162564508E+02  0.40900356057E+03  0.00000000000E+00 0. -1.
        -13    1    5    5    0    0 -0.11810494197E+02 -0.31903779831E+02 -0.23521327540E+02  0.41359301129E+02  0.00000000000E+00 0.  1.
          1    1    6    6  503    0 -0.15736760364E+03  0.41319297768E+03 -0.44686645732E+02  0.44439835259E+03  0.00000000000E+00 0. -1.
         -1    1    6    6    0  503 -0.78034508461E+01  0.18084526165E+01  0.10215588041E+02  0.12981624898E+02  0.00000000000E+00 0.  1.
<mgrwt>
<rscale>  0 0.19439729E+04</rscale>
<asrwt>0</asrwt>
<pdfrwt beam="1">  1        1 0.79238054E-01 0.19439729E+04</pdfrwt>
<pdfrwt beam="2">  1       -2 0.28220188E+00 0.19439729E+04</pdfrwt>
<totfact> 0.14179193E+00</totfact>
</mgrwt>
</event>
<event>
12    5  0.5197392E-008  0.1910659E+04  0.7818608E-02  0.8649569E-01
          1   -1    0    0  501    0  0.00000000000E+00  0.00000000000E+00  0.20176050351E+04  0.20176050351E+04  0.00000000000E+00 0. -1.
         -2   -1    0    0    0  501 -0.00000000000E+00 -0.00000000000E+00 -0.45234567395E+03  0.45234567395E+03  0.00000000000E+00 0.  1.
        -24    2    1    2    0    0  0.23471113013E+03  0.51018725412E+03  0.12232135999E+04  0.13480172539E+04  0.74287664092E+02 0.  0.
        254    2    1    2    0    0 -0.23471113013E+03 -0.51018725412E+03  0.34204576126E+03  0.11219334551E+04  0.90904291762E+03 0.  0.
         23    2    4    4    0    0  0.23063018680E+03 -0.41516895222E+03  0.40958827060E+03  0.63353271277E+03  0.89697295342E+02 0.  0.
         23    2    4    4    0    0 -0.46534131693E+03 -0.95018301896E+02 -0.67542509338E+02  0.48840074235E+03  0.91663927620E+02 0.  0.
          3    1    3    3  502    0  0.19497597104E+03  0.36129894604E+03  0.83934517319E+03  0.93437298626E+03  0.00000000000E+00 0. -1.
         -4    1    3    3    0  502  0.39735159083E+02  0.14888830808E+03  0.38386842673E+03  0.41364426769E+03  0.00000000000E+00 0.  1.
         13    1    5    5    0    0  0.67058258737E+02 -0.54548829447E+02  0.59064678914E+02  0.10469489555E+03  0.00000000000E+00 0. -1.
        -13    1    5    5    0    0  0.16357192806E+03 -0.36062012278E+03  0.35052359168E+03  0.52883781723E+03  0.00000000000E+00 0.  1.
          1    1    6    6  503    0 -0.79472923886E+01  0.11314625066E+02  0.86094731367E+00  0.13853570911E+02  0.00000000000E+00 0. -1.
         -1    1    6    6    0  503 -0.45739402454E+03 -0.10633292696E+03 -0.68403456652E+02  0.47454717144E+03  0.00000000000E+00 0.  1.
<mgrwt>
<rscale>  0 0.19106595E+04</rscale>
<asrwt>0</asrwt>
<pdfrwt beam="1">  1        1 0.31040077E+00 0.19106595E+04</pdfrwt>
<pdfrwt beam="2">  1       -2 0.69591643E-01 0.19106595E+04</pdfrwt>
<totfact> 0.44809528E+00</totfact>
</mgrwt>
</event>
<event>
12    5  0.5197392E-008  0.2688405E+04  0.7818608E-02  0.8338777E-01
          1   -1    0    0  501    0  0.00000000000E+00  0.00000000000E+00  0.14533490653E+04  0.14533490653E+04  0.00000000000E+00 0. -1.
         -2   -1    0    0    0  501 -0.00000000000E+00 -0.00000000000E+00 -0.12432527559E+04  0.12432527559E+04  0.00000000000E+00 0.  1.
        -24    2    1    2    0    0 -0.43629390813E+03 -0.11090845289E+04  0.29505150561E+01  0.11941987652E+04  0.75373196056E+02 0.  0.
        254    2    1    2    0    0  0.43629390813E+03  0.11090845289E+04  0.20714579433E+03  0.15024030561E+04  0.89100207430E+03 0.  0.
         23    2    4    4    0    0  0.91450047858E+02  0.78018671902E+03 -0.25666178179E+03  0.83130939967E+03  0.90253088415E+02 0.  0.
         23    2    4    4    0    0  0.34484386027E+03  0.32889780986E+03  0.46380757612E+03  0.67109365643E+03  0.90322592609E+02 0.  0.
          3    1    3    3  502    0 -0.70366354096E+02 -0.12446669537E+03 -0.13833309824E+02  0.14364798121E+03  0.00000000000E+00 0. -1.
         -4    1    3    3    0  502 -0.36592755404E+03 -0.98461783351E+03  0.16783824880E+02  0.10505507839E+04  0.00000000000E+00 0.  1.
         13    1    5    5    0    0  0.79459548863E+02  0.37301493375E+03 -0.94869746096E+02  0.39300665316E+03  0.00000000000E+00 0.  1.
        -13    1    5    5    0    0  0.11990498995E+02  0.40717178527E+03 -0.16179203570E+03  0.43830274651E+03  0.00000000000E+00 0. -1.
          2    1    6    6  503    0  0.34166331533E+03  0.33374426241E+03  0.46307622187E+03  0.66525081060E+03  0.00000000000E+00 0. -1.
         -2    1    6    6    0  503  0.31805449438E+01 -0.48464525472E+01  0.73135424702E+00  0.58428458363E+01  0.00000000000E+00 0.  1.
<mgrwt>
<rscale>  0 0.26884049E+04</rscale>
<asrwt>0</asrwt>
<pdfrwt beam="1">  1        1 0.22359216E+00 0.26884049E+04</pdfrwt>
<pdfrwt beam="2">  1       -2 0.19126965E+00 0.26884049E+04</pdfrwt>
<totfact> 0.82232876E-01</totfact>
</mgrwt>
</event>
<event>
12    5  0.5197392E-008  0.1927365E+04  0.7818608E-02  0.8641354E-01
         -2   -1    0    0    0  501 -0.00000000000E+00  0.00000000000E+00  0.75826359350E+03  0.75826359350E+03  0.00000000000E+00 0.  1.
          1   -1    0    0  501    0  0.00000000000E+00 -0.00000000000E+00 -0.12247507499E+04  0.12247507499E+04  0.00000000000E+00 0. -1.
        -24    2    1    2    0    0 -0.65597952691E+03  0.30398436294E+03  0.12015718195E+02  0.72723014102E+03  0.77483339370E+02 0.  0.
        254    2    1    2    0    0  0.65597952691E+03 -0.30398436294E+03 -0.47850287457E+03  0.12557842023E+04  0.90846757193E+03 0.  0.
         23    2    4    4    0    0 -0.12303369289E+03  0.98344117806E+02  0.92766794347E+02  0.20436549949E+03  0.91382296744E+02 0.  0.
         23    2    4    4    0    0  0.77901321980E+03 -0.40232848075E+03 -0.57126966891E+03  0.10514187028E+04  0.10199240676E+03 0.  0.
          3    1    3    3  502    0 -0.55881586133E+03  0.27212709240E+03 -0.14032553070E+02  0.62171153588E+03  0.00000000000E+00 0. -1.
         -4    1    3    3    0  502 -0.97163665584E+02  0.31857270541E+02  0.26048271265E+02  0.10551860515E+03  0.00000000000E+00 0.  1.
         13    1    5    5    0    0 -0.57529799260E+02 -0.67069515039E+01  0.23501769585E+02  0.62505953117E+02  0.00000000000E+00 0.  1.
        -13    1    5    5    0    0 -0.65503893625E+02  0.10505106931E+03  0.69265024761E+02  0.14185954638E+03  0.00000000000E+00 0. -1.
          1    1    6    6  503    0  0.85568566739E+02 -0.55406528425E+02 -0.10642971246E+03  0.14737417243E+03  0.00000000000E+00 0. -1.
         -1    1    6    6    0  503  0.69344465306E+03 -0.34692195233E+03 -0.46483995646E+03  0.90404453042E+03  0.00000000000E+00 0.  1.
<mgrwt>
<rscale>  0 0.19273649E+04</rscale>
<asrwt>0</asrwt>
<pdfrwt beam="1">  1        1 0.18842319E+00 0.19273649E+04</pdfrwt>
<pdfrwt beam="2">  1       -2 0.11665594E+00 0.19273649E+04</pdfrwt>
<totfact> 0.47789774E+00</totfact>
</mgrwt>
</event>
<event>
12    5  0.5197392E-008  0.2147187E+04  0.7818608E-02  0.8540737E-01
          1   -1    0    0  501    0  0.00000000000E+00  0.00000000000E+00  0.71870768782E+03  0.71870768782E+03  0.00000000000E+00 0. -1.
         -2   -1    0    0    0  501 -0.00000000000E+00 -0.00000000000E+00 -0.16037158497E+04  0.16037158497E+04  0.00000000000E+00 0.  1.
        -24    2    1    2    0    0 -0.44242149401E+03  0.58846511253E+03  0.16233443646E+03  0.75817248739E+03  0.80281282634E+02 0.  0.
        254    2    1    2    0    0  0.44242149401E+03 -0.58846511253E+03 -0.10473425983E+04  0.15642510501E+04  0.89884751904E+03 0.  0.
         23    2    4    4    0    0  0.49652396782E+03 -0.13984455923E+02 -0.76116517386E+03  0.91377939548E+03  0.94280146738E+02 0.  0.
         23    2    4    4    0    0 -0.54102473804E+02 -0.57448065661E+03 -0.28617742444E+03  0.65047165463E+03  0.90888683142E+02 0.  0.
          3    1    3    3  502    0 -0.36450658565E+03  0.42866406398E+03  0.11757258245E+03  0.57484018899E+03  0.00000000000E+00 0. -1.
         -4    1    3    3    0  502 -0.77914908366E+02  0.15980104855E+03  0.44761854013E+02  0.18333229840E+03  0.00000000000E+00 0.  1.
         13    1    5    5    0    0  0.50906103927E+02 -0.88924184791E+01 -0.14043493659E+03  0.14964116392E+03  0.00000000000E+00 0.  1.
        -13    1    5    5    0    0  0.44561786389E+03 -0.50920374441E+01 -0.62073023727E+03  0.76413823156E+03  0.00000000000E+00 0. -1.
          2    1    6    6  503    0 -0.18000175378E+02 -0.22507261031E+03 -0.16202094970E+03  0.27790731255E+03  0.00000000000E+00 0.  1.
         -2    1    6    6    0  503 -0.36102298426E+02 -0.34940804629E+03 -0.12415647475E+03  0.37256434208E+03  0.00000000000E+00 0. -1.
<mgrwt>
<rscale>  0 0.21471869E+04</rscale>
<asrwt>0</asrwt>
<pdfrwt beam="1">  1        1 0.11057041E+00 0.21471869E+04</pdfrwt>
<pdfrwt beam="2">  1       -2 0.24672551E+00 0.21471869E+04</pdfrwt>
<totfact> 0.14132695E+00</totfact>
</mgrwt>
</event>
<event>
12    5  0.5938619E-008  0.1607233E+04  0.7818608E-02  0.8816117E-01
         -2   -1    0    0    0  501 -0.00000000000E+00  0.00000000000E+00  0.74556490499E+03  0.74556490499E+03  0.00000000000E+00 0.  1.
          1   -1    0    0  501    0  0.00000000000E+00 -0.00000000000E+00 -0.86618838135E+03  0.86618838135E+03  0.00000000000E+00 0. -1.
        -24    2    1    2    0    0  0.94980813815E+02  0.42184341038E+03 -0.37903510892E+03  0.58044322584E+03  0.79205471780E+02 0.  0.
        254    2    1    2    0    0 -0.94980813815E+02 -0.42184341038E+03  0.25841163256E+03  0.10313100605E+04  0.89991702459E+03 0.  0.
         23    2    4    4    0    0  0.20687892335E+03 -0.58839401179E+03  0.91535059655E+02  0.63696888764E+03  0.91347110730E+02 0.  0.
         23    2    4    4    0    0 -0.30185973716E+03  0.16655060141E+03  0.16687657291E+03  0.39434117285E+03  0.93801739143E+02 0.  0.
          3    1    3    3  502    0  0.90411044646E+02  0.34386336626E+03 -0.34437474119E+03  0.49498498363E+03  0.00000000000E+00 0. -1.
         -4    1    3    3    0  502  0.45697691690E+01  0.77980044123E+02 -0.34660367735E+02  0.85458242219E+02  0.00000000000E+00 0.  1.
         13    1    5    5    0    0 -0.41295723969E+01  0.71814383694E+00 -0.12308058636E+01  0.43685216980E+01  0.00000000000E+00 0.  1.
        -13    1    5    5    0    0  0.21100849575E+03 -0.58911215563E+03  0.92765865518E+02  0.63260036595E+03  0.00000000000E+00 0. -1.
          2    1    6    6  503    0 -0.24968170502E+02  0.92572814387E+00  0.40992997206E+02  0.48007211237E+02  0.00000000000E+00 0.  1.
         -2    1    6    6    0  503 -0.27689156666E+03  0.16562487327E+03  0.12588357570E+03  0.34633396161E+03  0.00000000000E+00 0. -1.
<mgrwt>
<rscale>  0 0.16072332E+04</rscale>
<asrwt>0</asrwt>
<pdfrwt beam="1">  1        1 0.13325975E+00 0.16072332E+04</pdfrwt>
<pdfrwt beam="2">  1       -2 0.11470229E+00 0.16072332E+04</pdfrwt>
<totfact> 0.96772584E+00</totfact>
</mgrwt>
</event>
<event>
12    5  0.5197392E-008  0.2369702E+04  0.7818608E-02  0.8450934E-01
          1   -1    0    0  501    0  0.00000000000E+00  0.00000000000E+00  0.28432716976E+04  0.28432716976E+04  0.00000000000E+00 0. -1.
         -2   -1    0    0    0  501 -0.00000000000E+00 -0.00000000000E+00 -0.49375237025E+03  0.49375237025E+03  0.00000000000E+00 0.  1.
        -24    2    1    2    0    0  0.97640782229E+03  0.71361676272E+02  0.13671140478E+04  0.16832967899E+04  0.77605018250E+02 0.  0.
        254    2    1    2    0    0 -0.97640782229E+03 -0.71361676272E+02  0.98240527953E+03  0.16537272779E+04  0.90068254801E+03 0.  0.
         23    2    4    4    0    0 -0.19001930340E+02 -0.29712183032E+03  0.91534453557E+02  0.32357968424E+03  0.87651585600E+02 0.  0.
         23    2    4    4    0    0 -0.95740589195E+03  0.22576015405E+03  0.89087082597E+03  0.13301475937E+04  0.89711222005E+02 0.  0.
          1    1    3    3  502    0  0.70700272259E+03  0.32297759785E+02  0.93648848541E+03  0.11738426974E+04  0.00000000000E+00 0. -1.
         -2    1    3    3    0  502  0.26940509971E+03  0.39063916487E+02  0.43062556240E+03  0.50945409245E+03  0.00000000000E+00 0.  1.
         13    1    5    5    0    0 -0.52398395524E+02 -0.21905076289E+03  0.71856195621E+02  0.23641518865E+03  0.00000000000E+00 0.  1.
        -13    1    5    5    0    0  0.33396465184E+02 -0.78071067431E+02  0.19678257936E+02  0.87164495593E+02  0.00000000000E+00 0. -1.
          3    1    6    6  503    0 -0.62793925662E+03  0.18812312372E+03  0.61372044685E+03  0.89797038178E+03  0.00000000000E+00 0.  1.
         -3    1    6    6    0  503 -0.32946663534E+03  0.37637030325E+02  0.27715037912E+03  0.43217721192E+03  0.00000000000E+00 0. -1.
<mgrwt>
<rscale>  0 0.23697022E+04</rscale>
<asrwt>0</asrwt>
<pdfrwt beam="1">  1        1 0.43742641E+00 0.23697022E+04</pdfrwt>
<pdfrwt beam="2">  1       -2 0.75961905E-01 0.23697022E+04</pdfrwt>
<totfact> 0.95155135E-01</totfact>
</mgrwt>
</event>
<event>
12    5  0.5197392E-008  0.1900564E+04  0.7818608E-02  0.8654576E-01
          1   -1    0    0  501    0  0.00000000000E+00  0.00000000000E+00  0.14882370032E+04  0.14882370032E+04  0.00000000000E+00 0. -1.
         -2   -1    0    0    0  501 -0.00000000000E+00 -0.00000000000E+00 -0.60678249484E+03  0.60678249484E+03  0.00000000000E+00 0.  1.
        -24    2    1    2    0    0 -0.32031158849E+03  0.61395127210E+03  0.40132921744E+02  0.69838545581E+03  0.81215240220E+02 0.  0.
        254    2    1    2    0    0  0.32031158849E+03 -0.61395127210E+03  0.84132158661E+03  0.13966340422E+04  0.87362976000E+03 0.  0.
         23    2    4    4    0    0  0.40054838613E+03 -0.10135822765E+02  0.61737177385E+03  0.74125446038E+03  0.88139227050E+02 0.  0.
         23    2    4    4    0    0 -0.80236797638E+02 -0.60381544934E+03  0.22394981275E+03  0.65537958184E+03  0.91311757773E+02 0.  0.
          3    1    3    3  502    0 -0.38567953870E+02  0.66188359880E+02  0.30166506732E+02  0.82331064476E+02  0.00000000000E+00 0. -1.
         -2    1    3    3    0  502 -0.28174363462E+03  0.54776291222E+03  0.99664150111E+01  0.61605439133E+03  0.00000000000E+00 0.  1.
         13    1    5    5    0    0  0.34041709011E+03 -0.23841384311E+02  0.56633771013E+03  0.66120390861E+03  0.00000000000E+00 0.  1.
        -13    1    5    5    0    0  0.60131296021E+02  0.13705561546E+02  0.51034063724E+02  0.80050551770E+02  0.00000000000E+00 0. -1.
          4    1    6    6  503    0  0.18712016337E+02 -0.60399750547E+02  0.16424155014E+02  0.65330102476E+02  0.00000000000E+00 0. -1.
         -4    1    6    6    0  503 -0.98948813975E+02 -0.54341569879E+03  0.20752565774E+03  0.59004947936E+03  0.00000000000E+00 0.  1.
<mgrwt>
<rscale>  0 0.19005643E+04</rscale>
<asrwt>0</asrwt>
<pdfrwt beam="1">  1        1 0.22895954E+00 0.19005643E+04</pdfrwt>
<pdfrwt beam="2">  1       -2 0.93351154E-01 0.19005643E+04</pdfrwt>
<totfact> 0.53139621E+00</totfact>
</mgrwt>
</event>
<event>
12    5  0.5197392E-008  0.1925722E+04  0.7818608E-02  0.8642158E-01
         -2   -1    0    0    0  501 -0.00000000000E+00  0.00000000000E+00  0.88855325049E+03  0.88855325049E+03  0.00000000000E+00 0.  1.
          1   -1    0    0  501    0  0.00000000000E+00 -0.00000000000E+00 -0.10433824827E+04  0.10433824827E+04  0.00000000000E+00 0. -1.
        -24    2    1    2    0    0  0.61483911021E+03 -0.17261149267E+02  0.37193724416E+03  0.72321847718E+03  0.79891009591E+02 0.  0.
        254    2    1    2    0    0 -0.61483911021E+03  0.17261149267E+02 -0.52676647641E+03  0.12087172561E+04  0.89732346770E+03 0.  0.
         23    2    4    4    0    0 -0.33535565750E+03  0.31716547057E+03  0.73231748849E+02  0.47644814367E+03  0.92642278857E+02 0.  0.
         23    2    4    4    0    0 -0.27948345271E+03 -0.29990432130E+03 -0.59999822526E+03  0.73226911238E+03  0.90369133895E+02 0.  0.
          3    1    3    3  502    0  0.28765000223E+03 -0.23279589178E+02  0.13148548044E+03  0.31713229830E+03  0.00000000000E+00 0. -1.
         -4    1    3    3    0  502  0.32718910798E+03  0.60184399109E+01  0.24045176372E+03  0.40608617888E+03  0.00000000000E+00 0.  1.
         13    1    5    5    0    0 -0.10841562930E+03  0.96611823664E+02 -0.19892903804E+02  0.14657257850E+03  0.00000000000E+00 0. -1.
        -13    1    5    5    0    0 -0.22694002820E+03  0.22055364690E+03  0.93124652653E+02  0.32987556517E+03  0.00000000000E+00 0.  1.
          2    1    6    6  503    0 -0.49443586031E+01 -0.96390539416E+01 -0.57580304414E+02  0.58590523971E+02  0.00000000000E+00 0. -1.
         -2    1    6    6    0  503 -0.27453909411E+03 -0.29026526736E+03 -0.54241792084E+03  0.67367858841E+03  0.00000000000E+00 0.  1.
<mgrwt>
<rscale>  0 0.19257216E+04</rscale>
<asrwt>0</asrwt>
<pdfrwt beam="1">  1        1 0.16052038E+00 0.19257216E+04</pdfrwt>
<pdfrwt beam="2">  1       -2 0.13670050E+00 0.19257216E+04</pdfrwt>
<totfact> 0.43786545E+00</totfact>
</mgrwt>
</event>
<event>
12    5  0.5197392E-008  0.2393649E+04  0.7818608E-02  0.8441885E-01
          1   -1    0    0  501    0  0.00000000000E+00  0.00000000000E+00  0.14435725785E+04  0.14435725785E+04  0.00000000000E+00 0. -1.
         -2   -1    0    0    0  501 -0.00000000000E+00 -0.00000000000E+00 -0.99225292796E+03  0.99225292796E+03  0.00000000000E+00 0.  1.
        -24    2    1    2    0    0 -0.55674229709E+03 -0.59073222065E+03  0.82918559999E+03  0.11632135159E+04  0.81181170714E+02 0.  0.
        254    2    1    2    0    0  0.55674229709E+03  0.59073222065E+03 -0.37786594949E+03  0.12726119905E+04  0.90434067734E+03 0.  0.
         23    2    4    4    0    0  0.53608103687E+03  0.43990172401E+03  0.15055115065E+03  0.71518725893E+03  0.89054823024E+02 0.  0.
         23    2    4    4    0    0  0.20661260221E+02  0.15083049665E+03 -0.52841710014E+03  0.55742473157E+03  0.91219368875E+02 0.  0.
          3    1    3    3  502    0 -0.55494156127E+03 -0.58483181545E+03  0.80911071573E+03  0.11422121253E+04  0.00000000000E+00 0. -1.
         -4    1    3    3    0  502 -0.18007358148E+01 -0.59004052087E+01  0.20074884260E+02  0.21001390648E+02  0.00000000000E+00 0.  1.
         13    1    5    5    0    0  0.11872290036E+02  0.34098395899E+02  0.47532298689E+01  0.36417647752E+02  0.00000000000E+00 0.  1.
        -13    1    5    5    0    0  0.52420874683E+03  0.40580332811E+03  0.14579792078E+03  0.67876961118E+03  0.00000000000E+00 0. -1.
          1    1    6    6  503    0  0.94579321097E+01  0.97153061442E+02 -0.45741154733E+03  0.46771090800E+03  0.00000000000E+00 0. -1.
         -1    1    6    6    0  503  0.11203328111E+02  0.53677435207E+02 -0.71005552803E+02  0.89713823572E+02  0.00000000000E+00 0.  1.
<mgrwt>
<rscale>  0 0.23936492E+04</rscale>
<asrwt>0</asrwt>
<pdfrwt beam="1">  1        1 0.22208809E+00 0.23936492E+04</pdfrwt>
<pdfrwt beam="2">  1       -2 0.15265430E+00 0.23936492E+04</pdfrwt>
<totfact> 0.16119347E+00</totfact>
</mgrwt>
</event>
<event>
12    5  0.5197392E-008  0.1938845E+04  0.7818608E-02  0.8635759E-01
          1   -1    0    0  501    0  0.00000000000E+00  0.00000000000E+00  0.97045947572E+03  0.97045947572E+03  0.00000000000E+00 0. -1.
         -2   -1    0    0    0  501 -0.00000000000E+00 -0.00000000000E+00 -0.96838660285E+03  0.96838660285E+03  0.00000000000E+00 0.  1.
        -24    2    1    2    0    0  0.54119127150E+03 -0.52710695309E+03  0.10039010736E+03  0.76618075615E+03  0.78898954959E+02 0.  0.
        254    2    1    2    0    0 -0.54119127150E+03  0.52710695309E+03 -0.98317234491E+02  0.11726653224E+04  0.89148636977E+03 0.  0.
         23    2    4    4    0    0 -0.51149943141E+03  0.43722513547E+02  0.24074387797E+03  0.57439285785E+03  0.91794410753E+02 0.  0.
         23    2    4    4    0    0 -0.29691840091E+02  0.48338443954E+03 -0.33906111246E+03  0.59827246458E+03  0.91789880365E+02 0.  0.
          3    1    3    3  502    0  0.31336081545E+03 -0.28366252187E+03  0.92387420200E+02  0.43266021586E+03  0.00000000000E+00 0. -1.
         -4    1    3    3    0  502  0.22783045604E+03 -0.24344443121E+03  0.80026871630E+01  0.33352054029E+03  0.00000000000E+00 0.  1.
         13    1    5    5    0    0 -0.68269376766E+02 -0.15539821176E+02  0.85703123453E+01  0.70538245653E+02  0.00000000000E+00 0. -1.
        -13    1    5    5    0    0 -0.44323005464E+03  0.59262334724E+02  0.23217356562E+03  0.50385461219E+03  0.00000000000E+00 0.  1.
          3    1    6    6  503    0 -0.22059916355E+02  0.48410331219E+03 -0.32948473955E+03  0.58600584500E+03  0.00000000000E+00 0. -1.
         -3    1    6    6    0  503 -0.76319237361E+01 -0.71887264816E+00 -0.95763729098E+01  0.12266619579E+02  0.00000000000E+00 0.  1.
<mgrwt>
<rscale>  0 0.19388450E+04</rscale>
<asrwt>0</asrwt>
<pdfrwt beam="1">  1        1 0.14930146E+00 0.19388450E+04</pdfrwt>
<pdfrwt beam="2">  1       -2 0.14898255E+00 0.19388450E+04</pdfrwt>
<totfact> 0.39804571E+00</totfact>
</mgrwt>
</event>
<event>
12    5  0.9854313E-008  0.2040598E+04  0.7818608E-02  0.8587872E-01
          1   -1    0    0  501    0  0.00000000000E+00  0.00000000000E+00  0.11321505590E+04  0.11321505590E+04  0.00000000000E+00 0. -1.
         -2   -1    0    0    0  501 -0.00000000000E+00 -0.00000000000E+00 -0.91949753145E+03  0.91949753145E+03  0.00000000000E+00 0.  1.
        -24    2    1    2    0    0 -0.33433804429E+03 -0.23248198953E+02  0.76389243034E+03  0.83831451733E+03  0.83169575110E+02 0.  0.
        254    2    1    2    0    0  0.33433804429E+03  0.23248198953E+02 -0.55123940277E+03  0.12133335731E+04  0.10276142632E+04 0.  0.
         23    2    4    4    0    0  0.26324844236E+03  0.30663546502E+03  0.15624228587E+03  0.44253222454E+03  0.89989260763E+02 0.  0.
         23    2    4    4    0    0  0.71089601929E+02 -0.28338726606E+03 -0.70748168864E+03  0.77080134860E+03  0.90787142138E+02 0.  0.
          1    1    3    3  502    0 -0.33898313702E+03 -0.21840579001E+02  0.74463031820E+03  0.81845029713E+03  0.00000000000E+00 0. -1.
         -2    1    3    3    0  502  0.46450927335E+01 -0.14076199511E+01  0.19262112137E+02  0.19864220206E+02  0.00000000000E+00 0.  1.
         13    1    5    5    0    0  0.18582977328E+03  0.21739694835E+03  0.65078593332E+02  0.29330762195E+03  0.00000000000E+00 0.  1.
        -13    1    5    5    0    0  0.77418669082E+02  0.89238516672E+02  0.91163692538E+02  0.14922460259E+03  0.00000000000E+00 0. -1.
          4    1    6    6  503    0  0.66464521427E+01 -0.18730433913E+03 -0.38503756020E+03  0.42823009417E+03  0.00000000000E+00 0.  1.
         -4    1    6    6    0  503  0.64443149786E+02 -0.96082926934E+02 -0.32244412843E+03  0.34257125443E+03  0.00000000000E+00 0. -1.
<mgrwt>
<rscale>  0 0.20405976E+04</rscale>
<asrwt>0</asrwt>
<pdfrwt beam="1">  1        1 0.17417701E+00 0.20405976E+04</pdfrwt>
<pdfrwt beam="2">  1       -2 0.14146116E+00 0.20405976E+04</pdfrwt>
<totfact> 0.33991813E+00</totfact>
</mgrwt>
</event>
<event>
12    5  0.5197392E-008  0.1711942E+04  0.7818608E-02  0.8754583E-01
          1   -1    0    0  501    0  0.00000000000E+00  0.00000000000E+00  0.20412802045E+04  0.20412802045E+04  0.00000000000E+00 0. -1.
         -2   -1    0    0    0  501 -0.00000000000E+00 -0.00000000000E+00 -0.35893474969E+03  0.35893474969E+03  0.00000000000E+00 0.  1.
        -24    2    1    2    0    0 -0.94654214775E+02 -0.78962748191E+02 -0.23608175324E+03  0.27824013730E+03  0.80550877186E+02 0.  0.
        254    2    1    2    0    0  0.94654214775E+02  0.78962748191E+02  0.19184272081E+04  0.21219748169E+04  0.89845402496E+03 0.  0.
         23    2    4    4    0    0  0.37937038360E+03  0.16685504493E+03  0.16721692020E+04  0.17251638265E+04  0.90982932428E+02 0.  0.
         23    2    4    4    0    0 -0.28471616882E+03 -0.87892296740E+02  0.24625800604E+03  0.39681099044E+03  0.89596897121E+02 0.  0.
          3    1    3    3  502    0  0.12735576738E+01 -0.37427388538E+02 -0.99018979080E+02  0.10586401457E+03  0.00000000000E+00 0. -1.
         -4    1    3    3    0  502 -0.95927772449E+02 -0.41535359653E+02 -0.13706277416E+03  0.17237612273E+03  0.00000000000E+00 0.  1.
         13    1    5    5    0    0  0.13484363728E+03  0.93772257597E+02  0.53181573356E+03  0.55660041077E+03  0.00000000000E+00 0.  1.
        -13    1    5    5    0    0  0.24452674632E+03  0.73082787334E+02  0.11403534685E+04  0.11685634157E+04  0.00000000000E+00 0. -1.
          4    1    6    6  503    0 -0.43004711494E+01 -0.34729176536E+01 -0.74990499497E+01  0.93161665551E+01  0.00000000000E+00 0.  1.
         -4    1    6    6    0  503 -0.28041569767E+03 -0.84419379086E+02  0.25375705599E+03  0.38749482388E+03  0.00000000000E+00 0. -1.
<mgrwt>
<rscale>  0 0.17119421E+04</rscale>
<asrwt>0</asrwt>
<pdfrwt beam="1">  1        1 0.31404310E+00 0.17119421E+04</pdfrwt>
<pdfrwt beam="2">  1       -2 0.55220732E-01 0.17119421E+04</pdfrwt>
<totfact> 0.71919607E+00</totfact>
</mgrwt>
</event>
<event>
12    5  0.5197392E-008  0.1318322E+04  0.7818608E-02  0.9015161E-01
          1   -1    0    0  501    0  0.00000000000E+00  0.00000000000E+00  0.23239375396E+04  0.23239375396E+04  0.00000000000E+00 0. -1.
         -2   -1    0    0    0  501 -0.00000000000E+00 -0.00000000000E+00 -0.18696411459E+03  0.18696411459E+03  0.00000000000E+00 0.  1.
        -24    2    1    2    0    0  0.12418355696E+03  0.59902774221E+02  0.11540274914E+04  0.11651484568E+04  0.82350332292E+02 0.  0.
        254    2    1    2    0    0 -0.12418355696E+03 -0.59902774221E+02  0.98294593365E+03  0.13457531975E+04  0.90876788115E+03 0.  0.
         23    2    4    4    0    0  0.74116155929E+02 -0.22861122544E+03 -0.62034207317E+02  0.26482142521E+03  0.92335515421E+02 0.  0.
         23    2    4    4    0    0 -0.19829971289E+03  0.16870845122E+03  0.10449801410E+04  0.10809317722E+04  0.92976790623E+02 0.  0.
          3    1    3    3  502    0  0.10848230096E+03  0.69752737934E+02  0.11087209446E+04  0.11161971094E+04  0.00000000000E+00 0. -1.
         -4    1    3    3    0  502  0.15701256003E+02 -0.98499637131E+01  0.45306546830E+02  0.48951347386E+02  0.00000000000E+00 0.  1.
         13    1    5    5    0    0  0.59370284022E+02 -0.17970664877E+03 -0.86611737294E+02  0.20813674177E+03  0.00000000000E+00 0.  1.
        -13    1    5    5    0    0  0.14745871907E+02 -0.48904576663E+02  0.24577529976E+02  0.56684683440E+02  0.00000000000E+00 0. -1.
          4    1    6    6  503    0 -0.14541790452E+03  0.15189845558E+03  0.68043576233E+03  0.71218841217E+03  0.00000000000E+00 0. -1.
         -4    1    6    6    0  503 -0.52881808365E+02  0.16809995636E+02  0.36454437864E+03  0.36874336008E+03  0.00000000000E+00 0.  1.
<mgrwt>
<rscale>  0 0.13183215E+04</rscale>
<asrwt>0</asrwt>
<pdfrwt beam="1">  1        1 0.35752883E+00 0.13183215E+04</pdfrwt>
<pdfrwt beam="2">  1       -2 0.28763712E-01 0.13183215E+04</pdfrwt>
<totfact> 0.17173859E+01</totfact>
</mgrwt>
</event>
<event>
12    5  0.5197392E-008  0.3684909E+04  0.7818608E-02  0.8071314E-01
          1   -1    0    0  501    0  0.00000000000E+00  0.00000000000E+00  0.30029062661E+04  0.30029062661E+04  0.00000000000E+00 0. -1.
         -2   -1    0    0    0  501 -0.00000000000E+00 -0.00000000000E+00 -0.11304509798E+04  0.11304509798E+04  0.00000000000E+00 0.  1.
        -24    2    1    2    0    0 -0.14660977795E+04 -0.74302400321E+03  0.26732326972E+03  0.16667333277E+04  0.70787617573E+02 0.  0.
        254    2    1    2    0    0  0.14660977795E+04  0.74302400321E+03  0.16051320166E+04  0.24666239182E+04  0.89791836755E+03 0.  0.
         23    2    4    4    0    0  0.73223523167E+03  0.35373700527E+02  0.11004340733E+04  0.13256056548E+04  0.94103501949E+02 0.  0.
         23    2    4    4    0    0  0.73386254784E+03  0.70765030268E+03  0.50469794326E+03  0.11410182634E+04  0.88766398653E+02 0.  0.
          1    1    3    3  502    0 -0.25912999586E+02 -0.23317984910E+02  0.10252938428E+02  0.36336410310E+02  0.00000000000E+00 0. -1.
         -2    1    3    3    0  502 -0.14401847799E+04 -0.71970601830E+03  0.25707033129E+03  0.16303969174E+04  0.00000000000E+00 0.  1.
         13    1    5    5    0    0  0.71310059623E+02  0.28385049229E+02  0.14101901883E+03  0.16055279286E+03  0.00000000000E+00 0.  1.
        -13    1    5    5    0    0  0.66092517205E+03  0.69886512980E+01  0.95941505449E+03  0.11650528619E+04  0.00000000000E+00 0. -1.
          2    1    6    6  503    0  0.32801273213E+03  0.25582879435E+03  0.20247235457E+03  0.46264000997E+03  0.00000000000E+00 0.  1.
         -2    1    6    6    0  503  0.40584981570E+03  0.45182150834E+03  0.30222558870E+03  0.67837825346E+03  0.00000000000E+00 0. -1.
<mgrwt>
<rscale>  0 0.36849089E+04</rscale>
<asrwt>0</asrwt>
<pdfrwt beam="1">  1        1 0.46198558E+00 0.36849089E+04</pdfrwt>
<pdfrwt beam="2">  1       -2 0.17391554E+00 0.36849089E+04</pdfrwt>
<totfact> 0.84086788E-02</totfact>
</mgrwt>
</event>
<event>
12    5  0.5197392E-008  0.1205060E+04  0.7818608E-02  0.9108439E-01
         -2   -1    0    0    0  501 -0.00000000000E+00  0.00000000000E+00  0.25781292989E+03  0.25781292989E+03  0.00000000000E+00 0.  1.
          1   -1    0    0  501    0  0.00000000000E+00 -0.00000000000E+00 -0.14081627098E+04  0.14081627098E+04  0.00000000000E+00 0. -1.
        -24    2    1    2    0    0 -0.15176971845E+03  0.28936242002E+02  0.25491672844E+02  0.17507321122E+03  0.78290806372E+02 0.  0.
        254    2    1    2    0    0  0.15176971845E+03 -0.28936242002E+02 -0.11758414527E+04  0.14909024285E+04  0.90350184045E+03 0.  0.
         23    2    4    4    0    0  0.31852704273E+03 -0.38596222167E+03 -0.58264749588E+03  0.77311917286E+03  0.88367626895E+02 0.  0.
         23    2    4    4    0    0 -0.16675732428E+03  0.35702597967E+03 -0.59319395687E+03  0.71778325561E+03  0.89767344919E+02 0.  0.
          1    1    3    3  502    0 -0.10817681536E+03 -0.26980130062E+01 -0.12832478556E+02  0.10896868890E+03  0.00000000000E+00 0. -1.
         -2    1    3    3    0  502 -0.43592903087E+02  0.31634255008E+02  0.38324151401E+02  0.66104522311E+02  0.00000000000E+00 0.  1.
         13    1    5    5    0    0  0.30529488659E+03 -0.33832581687E+03 -0.49756323509E+03  0.67471364226E+03  0.00000000000E+00 0. -1.
        -13    1    5    5    0    0  0.13232156136E+02 -0.47636404797E+02 -0.85084260789E+02  0.98405530597E+02  0.00000000000E+00 0.  1.
          3    1    6    6  503    0 -0.92693837483E+02  0.27396582669E+03 -0.38286537129E+03  0.47982842166E+03  0.00000000000E+00 0. -1.
         -3    1    6    6    0  503 -0.74063486798E+02  0.83060152977E+02 -0.21032858557E+03  0.23795483395E+03  0.00000000000E+00 0.  1.
<mgrwt>
<rscale>  0 0.12050603E+04</rscale>
<asrwt>0</asrwt>
<pdfrwt beam="1">  1        1 0.21664042E+00 0.12050603E+04</pdfrwt>
<pdfrwt beam="2">  1       -2 0.39663527E-01 0.12050603E+04</pdfrwt>
<totfact> 0.39565289E+01</totfact>
</mgrwt>
</event>
<event>
12    5  0.5197392E-008  0.2354086E+04  0.7818608E-02  0.8456896E-01
         -2   -1    0    0    0  501 -0.00000000000E+00  0.00000000000E+00  0.18770811063E+04  0.18770811063E+04  0.00000000000E+00 0.  1.
          1   -1    0    0  501    0  0.00000000000E+00 -0.00000000000E+00 -0.73807692323E+03  0.73807692323E+03  0.00000000000E+00 0. -1.
        -24    2    1    2    0    0 -0.21880130297E+03 -0.77518987094E+03  0.11533777827E+04  0.14090795756E+04  0.80197222726E+02 0.  0.
        254    2    1    2    0    0  0.21880130297E+03  0.77518987094E+03 -0.14373599689E+02  0.12060784539E+04  0.89756631530E+03 0.  0.
         23    2    4    4    0    0 -0.28357720733E+03  0.27107325091E+02  0.19603123460E+02  0.29941613544E+03  0.90082740428E+02 0.  0.
         23    2    4    4    0    0  0.50237851030E+03  0.74808254585E+03 -0.33976723149E+02  0.90666231844E+03  0.94183220079E+02 0.  0.
          3    1    3    3  502    0 -0.10961040250E+03 -0.41814369223E+03  0.55027940154E+03  0.69976139322E+03  0.00000000000E+00 0. -1.
         -2    1    3    3    0  502 -0.10919090047E+03 -0.35704617871E+03  0.60309838119E+03  0.70931818239E+03  0.00000000000E+00 0.  1.
         13    1    5    5    0    0 -0.12657196808E+03  0.41970922156E+02 -0.24670638656E+02  0.13561217431E+03  0.00000000000E+00 0. -1.
        -13    1    5    5    0    0 -0.15700523925E+03 -0.14863597065E+02  0.44273762116E+02  0.16380396113E+03  0.00000000000E+00 0.  1.
          3    1    6    6  503    0  0.27599594862E+03  0.32665234175E+03 -0.16603240249E+02  0.42796166138E+03  0.00000000000E+00 0. -1.
         -3    1    6    6    0  503  0.22638256169E+03  0.42143020410E+03 -0.17373482900E+02  0.47870065706E+03  0.00000000000E+00 0.  1.
<mgrwt>
<rscale>  0 0.23540860E+04</rscale>
<asrwt>0</asrwt>
<pdfrwt beam="1">  1        1 0.11355030E+00 0.23540860E+04</pdfrwt>
<pdfrwt beam="2">  1       -2 0.28878171E+00 0.23540860E+04</pdfrwt>
<totfact> 0.73723458E-01</totfact>
</mgrwt>
</event>
<event>
12    5  0.5197392E-008  0.1731547E+04  0.7818608E-02  0.8743573E-01
          3   -1    0    0  501    0  0.00000000000E+00  0.00000000000E+00  0.44671209504E+03  0.44671209504E+03  0.00000000000E+00 0. -1.
         -4   -1    0    0    0  501 -0.00000000000E+00 -0.00000000000E+00 -0.16779580749E+04  0.16779580749E+04  0.00000000000E+00 0.  1.
        -24    2    1    2    0    0  0.19907540837E+03 -0.49384878134E+03 -0.86378048662E+03  0.10180578113E+04  0.82506612437E+02 0.  0.
        254    2    1    2    0    0 -0.19907540837E+03  0.49384878134E+03 -0.36746549326E+03  0.11066123586E+04  0.89779863359E+03 0.  0.
         23    2    4    4    0    0 -0.20587535896E+03 -0.21099726125E+03 -0.22156515145E+03  0.38007399005E+03  0.91981595386E+02 0.  0.
         23    2    4    4    0    0  0.67999505868E+01  0.70484604260E+03 -0.14590034180E+03  0.72653836858E+03  0.98574378953E+02 0.  0.
          3    1    3    3  502    0  0.13373594033E+03 -0.36243333091E+03 -0.55551448662E+03  0.67663843073E+03  0.00000000000E+00 0. -1.
         -4    1    3    3    0  502  0.65339468047E+02 -0.13141545043E+03 -0.30826600001E+03  0.34141938061E+03  0.00000000000E+00 0.  1.
         13    1    5    5    0    0 -0.69257736304E+02 -0.13543593332E+03 -0.12093134787E+03  0.19432940326E+03  0.00000000000E+00 0.  1.
        -13    1    5    5    0    0 -0.13661762266E+03 -0.75561327934E+02 -0.10063380358E+03  0.18574458679E+03  0.00000000000E+00 0. -1.
          1    1    6    6  503    0  0.13397889790E+02  0.38334729324E+02  0.10388986106E+02  0.41916416301E+02  0.00000000000E+00 0. -1.
         -1    1    6    6    0  503 -0.65979392027E+01  0.66651131327E+03 -0.15628932791E+03  0.68462195228E+03  0.00000000000E+00 0.  1.
<mgrwt>
<rscale>  0 0.17315475E+04</rscale>
<asrwt>0</asrwt>
<pdfrwt beam="1">  1        3 0.68724936E-01 0.17315475E+04</pdfrwt>
<pdfrwt beam="2">  1       -4 0.25814740E+00 0.17315475E+04</pdfrwt>
<totfact> 0.24800173E-01</totfact>
</mgrwt>
</event>
<event>
12    5  0.5197392E-008  0.1799603E+04  0.7818608E-02  0.8706511E-01
         -2   -1    0    0    0  501 -0.00000000000E+00  0.00000000000E+00  0.50500507201E+03  0.50500507201E+03  0.00000000000E+00 0.  1.
          1   -1    0    0  501    0  0.00000000000E+00 -0.00000000000E+00 -0.16032365892E+04  0.16032365892E+04  0.00000000000E+00 0. -1.
        -24    2    1    2    0    0 -0.10510358670E+03  0.58966140181E+03 -0.54194195894E+02  0.60685451141E+03  0.81166830812E+02 0.  0.
        254    2    1    2    0    0  0.10510358670E+03 -0.58966140181E+03 -0.10440373213E+04  0.15013871498E+04  0.89744198286E+03 0.  0.
         23    2    4    4    0    0  0.29419657078E+02 -0.73335366270E+03 -0.42068322279E+03  0.85078920546E+03  0.90525064849E+02 0.  0.
         23    2    4    4    0    0  0.75683929627E+02  0.14369226089E+03 -0.62335409850E+03  0.65059794433E+03  0.91278858522E+02 0.  0.
          3    1    3    3  502    0 -0.27455986458E+02  0.35623337528E+02 -0.43163400240E+01  0.45182786105E+02  0.00000000000E+00 0. -1.
         -4    1    3    3    0  502 -0.77647600246E+02  0.55403806428E+03 -0.49877855870E+02  0.56167172530E+03  0.00000000000E+00 0.  1.
         13    1    5    5    0    0  0.60663370673E+02 -0.40873839480E+03 -0.24427886694E+03  0.48002008787E+03  0.00000000000E+00 0.  1.
        -13    1    5    5    0    0 -0.31243713595E+02 -0.32461526790E+03 -0.17640435585E+03  0.37076911759E+03  0.00000000000E+00 0. -1.
          2    1    6    6  503    0  0.92788669499E+02  0.87432916223E+02 -0.42441256343E+03  0.44314814230E+03  0.00000000000E+00 0.  1.
         -2    1    6    6    0  503 -0.17104739872E+02  0.56259344669E+02 -0.19894153507E+03  0.20744980204E+03  0.00000000000E+00 0. -1.
<mgrwt>
<rscale>  0 0.17996029E+04</rscale>
<asrwt>0</asrwt>
<pdfrwt beam="1">  1        1 0.24665179E+00 0.17996029E+04</pdfrwt>
<pdfrwt beam="2">  1       -2 0.77693087E-01 0.17996029E+04</pdfrwt>
<totfact> 0.67869987E+00</totfact>
</mgrwt>
</event>
<event>
12    5  0.5197392E-008  0.1524758E+04  0.7818608E-02  0.8868154E-01
          1   -1    0    0  501    0  0.00000000000E+00  0.00000000000E+00  0.16626771123E+04  0.16626771123E+04  0.00000000000E+00 0. -1.
         -2   -1    0    0    0  501 -0.00000000000E+00 -0.00000000000E+00 -0.34956962954E+03  0.34956962954E+03  0.00000000000E+00 0.  1.
        -24    2    1    2    0    0 -0.11117035554E+03  0.41671517903E+02  0.10607491860E+04  0.10703441965E+04  0.79702572373E+02 0.  0.
        254    2    1    2    0    0  0.11117035554E+03 -0.41671517903E+02  0.25235829677E+03  0.94190254533E+03  0.89966678921E+03 0.  0.
         23    2    4    4    0    0  0.35386020014E+03  0.30433032840E+03  0.13293815081E+03  0.49347201114E+03  0.89487897603E+02 0.  0.
         23    2    4    4    0    0 -0.24268984460E+03 -0.34600184630E+03  0.11942014596E+03  0.44843053419E+03  0.90626345059E+02 0.  0.
          3    1    3    3  502    0 -0.84949472429E+02  0.56562255811E+02  0.60071014391E+03  0.60931796186E+03  0.00000000000E+00 0. -1.
         -4    1    3    3    0  502 -0.26220883111E+02 -0.14890737907E+02  0.46003904212E+03  0.46102623468E+03  0.00000000000E+00 0.  1.
         13    1    5    5    0    0  0.26954678439E+03  0.23421458765E+03  0.60836889421E+02  0.36223344566E+03  0.00000000000E+00 0. -1.
        -13    1    5    5    0    0  0.84313415751E+02  0.70115740750E+02  0.72101261388E+02  0.13123856548E+03  0.00000000000E+00 0.  1.
          1    1    6    6  503    0 -0.19777744922E+03 -0.32383438149E+03  0.12112523808E+03  0.39831639352E+03  0.00000000000E+00 0. -1.
         -1    1    6    6    0  503 -0.44912395383E+02 -0.22167464814E+02 -0.17050921258E+01  0.50114140664E+02  0.00000000000E+00 0.  1.
<mgrwt>
<rscale>  0 0.15247576E+04</rscale>
<asrwt>0</asrwt>
<pdfrwt beam="1">  1        1 0.25579648E+00 0.15247576E+04</pdfrwt>
<pdfrwt beam="2">  1       -2 0.53779944E-01 0.15247576E+04</pdfrwt>
<totfact> 0.13949826E+01</totfact>
</mgrwt>
</event>
<event>
12    5  0.5197392E-008  0.1726137E+04  0.7818608E-02  0.8746597E-01
          1   -1    0    0  501    0  0.00000000000E+00  0.00000000000E+00  0.99443699277E+03  0.99443699277E+03  0.00000000000E+00 0. -1.
         -2   -1    0    0    0  501 -0.00000000000E+00 -0.00000000000E+00 -0.74905384339E+03  0.74905384339E+03  0.00000000000E+00 0.  1.
        -24    2    1    2    0    0 -0.19960013210E+03 -0.56316048157E+03  0.27989790034E+03  0.66464733981E+03  0.80145561092E+02 0.  0.
        254    2    1    2    0    0  0.19960013210E+03  0.56316048157E+03 -0.34514750963E+02  0.10788434964E+04  0.89762023198E+03 0.  0.
         23    2    4    4    0    0  0.71195767501E+02  0.72556420930E+03  0.19140771405E+03  0.75914992499E+03  0.90329599227E+02 0.  0.
         23    2    4    4    0    0  0.12840436460E+03 -0.16240372773E+03 -0.22592246501E+03  0.31969357136E+03  0.91106354041E+02 0.  0.
          3    1    3    3  502    0 -0.75622093055E+02 -0.13677454015E+03  0.10001774331E+03  0.18555194628E+03  0.00000000000E+00 0. -1.
         -4    1    3    3    0  502 -0.12397803904E+03 -0.42638594142E+03  0.17988015703E+03  0.47909539353E+03  0.00000000000E+00 0.  1.
         13    1    5    5    0    0  0.29742139768E+02  0.26918712416E+03  0.11646824736E+03  0.29480697979E+03  0.00000000000E+00 0.  1.
        -13    1    5    5    0    0  0.41453627732E+02  0.45637708514E+03  0.74939466694E+02  0.46434294520E+03  0.00000000000E+00 0. -1.
          2    1    6    6  503    0  0.64889468552E+02 -0.11160622739E+03 -0.77849220971E+02  0.15075508060E+03  0.00000000000E+00 0. -1.
         -2    1    6    6    0  503  0.63514896043E+02 -0.50797500337E+02 -0.14807324404E+03  0.16893849076E+03  0.00000000000E+00 0.  1.
<mgrwt>
<rscale>  0 0.17261366E+04</rscale>
<asrwt>0</asrwt>
<pdfrwt beam="1">  1        1 0.15299031E+00 0.17261366E+04</pdfrwt>
<pdfrwt beam="2">  1       -2 0.11523905E+00 0.17261366E+04</pdfrwt>
<totfact> 0.74631799E+00</totfact>
</mgrwt>
</event>
<event>
12    5  0.5197392E-008  0.2446610E+04  0.7818608E-02  0.8422257E-01
         -2   -1    0    0    0  501 -0.00000000000E+00  0.00000000000E+00  0.12003510382E+04  0.12003510382E+04  0.00000000000E+00 0.  1.
          1   -1    0    0  501    0  0.00000000000E+00 -0.00000000000E+00 -0.12466978660E+04  0.12466978660E+04  0.00000000000E+00 0. -1.
        -24    2    1    2    0    0  0.54434433203E+02 -0.22168832706E+03  0.10190218126E+04  0.10472804388E+04  0.79259328413E+02 0.  0.
        254    2    1    2    0    0 -0.54434433203E+02  0.22168832706E+03 -0.10653686404E+04  0.13997684655E+04  0.87876765712E+03 0.  0.
         23    2    4    4    0    0  0.30904324564E+03  0.89594111412E+02 -0.92969536625E+02  0.34939189180E+03  0.99481288907E+02 0.  0.
         23    2    4    4    0    0 -0.36347767884E+03  0.13209421565E+03 -0.97239910375E+03  0.10503765737E+04  0.90366059691E+02 0.  0.
          3    1    3    3  502    0  0.28764105588E+02 -0.10847672014E+03  0.33032121952E+03  0.34886484582E+03  0.00000000000E+00 0. -1.
         -4    1    3    3    0  502  0.25670327615E+02 -0.11321160692E+03  0.68870059304E+03  0.69841559297E+03  0.00000000000E+00 0.  1.
         13    1    5    5    0    0  0.17677731497E+03  0.92247284504E+02 -0.25913777057E+02  0.20107537002E+03  0.00000000000E+00 0. -1.
        -13    1    5    5    0    0  0.13226593067E+03 -0.26531730925E+01 -0.67055759568E+02  0.14831652179E+03  0.00000000000E+00 0.  1.
          1    1    6    6  503    0 -0.34452468178E+03  0.14138705923E+03 -0.87924644361E+03  0.95486222329E+03  0.00000000000E+00 0. -1.
         -1    1    6    6    0  503 -0.18952997068E+02 -0.92928435763E+01 -0.93152660142E+02  0.95514350393E+02  0.00000000000E+00 0.  1.
<mgrwt>
<rscale>  0 0.24466100E+04</rscale>
<asrwt>0</asrwt>
<pdfrwt beam="1">  1        1 0.19179967E+00 0.24466100E+04</pdfrwt>
<pdfrwt beam="2">  1       -2 0.18466939E+00 0.24466100E+04</pdfrwt>
<totfact> 0.13033955E+00</totfact>
</mgrwt>
</event>
<event>
12    5  0.5197392E-008  0.1265395E+04  0.7818608E-02  0.9057467E-01
          1   -1    0    0  501    0  0.00000000000E+00  0.00000000000E+00  0.37877621909E+03  0.37877621909E+03  0.00000000000E+00 0. -1.
         -2   -1    0    0    0  501 -0.00000000000E+00 -0.00000000000E+00 -0.10568400135E+04  0.10568400135E+04  0.00000000000E+00 0.  1.
        -24    2    1    2    0    0 -0.36782338226E+02 -0.29111609276E+03 -0.92795942796E+02  0.31789907530E+03  0.79669411970E+02 0.  0.
        254    2    1    2    0    0  0.36782338226E+02  0.29111609276E+03 -0.58526785164E+03  0.11177171573E+04  0.90589826456E+03 0.  0.
         23    2    4    4    0    0 -0.58319018756E+02  0.23866452425E+03 -0.81069800609E+03  0.85170470582E+03  0.88361675876E+02 0.  0.
         23    2    4    4    0    0  0.95101356982E+02  0.52451568514E+02  0.22543015444E+03  0.26601245150E+03  0.90268680520E+02 0.  0.
          3    1    3    3  502    0 -0.16229305336E+02 -0.22800019122E+03 -0.37764930887E+02  0.23167578111E+03  0.00000000000E+00 0. -1.
         -4    1    3    3    0  502 -0.20553032889E+02 -0.63115901543E+02 -0.55031011909E+02  0.86223294186E+02  0.00000000000E+00 0.  1.
         13    1    5    5    0    0  0.76880303552E+01  0.66096628480E+00 -0.54954063921E+01  0.94732348533E+01  0.00000000000E+00 0. -1.
        -13    1    5    5    0    0 -0.66007049111E+02  0.23800355796E+03 -0.80520259969E+03  0.84223147097E+03  0.00000000000E+00 0.  1.
          3    1    6    6  503    0  0.56834312643E+02  0.75048555013E+01  0.18696307998E+03  0.19555473716E+03  0.00000000000E+00 0. -1.
         -3    1    6    6    0  503  0.38267044339E+02  0.44946713012E+02  0.38467074468E+02  0.70457714348E+02  0.00000000000E+00 0.  1.
<mgrwt>
<rscale>  0 0.12653946E+04</rscale>
<asrwt>0</asrwt>
<pdfrwt beam="1">  1        1 0.58273264E-01 0.12653946E+04</pdfrwt>
<pdfrwt beam="2">  1       -2 0.16259077E+00 0.12653946E+04</pdfrwt>
<totfact> 0.13367171E+01</totfact>
</mgrwt>
</event>
<event>
12    5  0.5197392E-008  0.1494157E+04  0.7818608E-02  0.8888348E-01
          1   -1    0    0  501    0  0.00000000000E+00  0.00000000000E+00  0.52830272953E+03  0.52830272953E+03  0.00000000000E+00 0. -1.
         -2   -1    0    0    0  501 -0.00000000000E+00 -0.00000000000E+00 -0.10564515589E+04  0.10564515589E+04  0.00000000000E+00 0.  1.
        -24    2    1    2    0    0 -0.68387285341E+02 -0.43739813342E+03  0.16505134260E+02  0.45008066627E+03  0.79411830223E+02 0.  0.
        254    2    1    2    0    0  0.68387285341E+02  0.43739813342E+03 -0.54465396358E+03  0.11346736221E+04  0.89153930971E+03 0.  0.
         23    2    4    4    0    0  0.13148227519E+03 -0.25081835720E+03 -0.19930011419E+03  0.35709399440E+03  0.87167358102E+02 0.  0.
         23    2    4    4    0    0 -0.63094989847E+02  0.68821649062E+03 -0.34535384939E+03  0.77757962771E+03  0.87965222880E+02 0.  0.
          1    1    3    3  502    0 -0.39633842026E+02 -0.11033784473E+03  0.31560277342E+02  0.12141388932E+03  0.00000000000E+00 0. -1.
         -2    1    3    3    0  502 -0.28753443315E+02 -0.32706028869E+03 -0.15055143082E+02  0.32866677695E+03  0.00000000000E+00 0.  1.
         13    1    5    5    0    0  0.13926670117E+03 -0.19725432396E+03 -0.15290922425E+03  0.28580712594E+03  0.00000000000E+00 0. -1.
        -13    1    5    5    0    0 -0.77844259828E+01 -0.53564033241E+02 -0.46390889939E+02  0.71286868456E+02  0.00000000000E+00 0.  1.
          3    1    6    6  503    0 -0.71320328386E+02  0.68023384806E+03 -0.34515023133E+03  0.76611576115E+03  0.00000000000E+00 0. -1.
         -3    1    6    6    0  503  0.82253385388E+01  0.79826425610E+01 -0.20361806030E+00  0.11463866566E+02  0.00000000000E+00 0.  1.
<mgrwt>
<rscale>  0 0.14941569E+04</rscale>
<asrwt>0</asrwt>
<pdfrwt beam="1">  1        1 0.81277343E-01 0.14941569E+04</pdfrwt>
<pdfrwt beam="2">  1       -2 0.16253101E+00 0.14941569E+04</pdfrwt>
<totfact> 0.83790892E+00</totfact>
</mgrwt>
</event>
<event>
12    5  0.5197392E-008  0.1141270E+04  0.7818608E-02  0.9165875E-01
         -2   -1    0    0    0  501 -0.00000000000E+00  0.00000000000E+00  0.74113316475E+03  0.74113316475E+03  0.00000000000E+00 0.  1.
          1   -1    0    0  501    0  0.00000000000E+00 -0.00000000000E+00 -0.43935994597E+03  0.43935994597E+03  0.00000000000E+00 0. -1.
        -24    2    1    2    0    0 -0.18684796427E+03  0.63280912693E+02  0.29358384917E+02  0.21566966765E+03  0.82066163031E+02 0.  0.
        254    2    1    2    0    0  0.18684796427E+03 -0.63280912693E+02  0.27241483386E+03  0.96482344308E+03  0.90429961790E+03 0.  0.
         23    2    4    4    0    0  0.39482322662E+03 -0.56506442165E+02  0.49806685172E+03  0.64449017259E+03  0.90656690335E+02 0.  0.
         23    2    4    4    0    0 -0.20797526235E+03 -0.67744705287E+01 -0.22565201785E+03  0.32033327049E+03  0.91624056991E+02 0.  0.
          3    1    3    3  502    0 -0.83448604632E+02  0.40186557897E+02  0.53562071439E+02  0.10699310514E+03  0.00000000000E+00 0. -1.
         -4    1    3    3    0  502 -0.10339935964E+03  0.23094354797E+02 -0.24203686522E+02  0.10867656251E+03  0.00000000000E+00 0.  1.
         13    1    5    5    0    0  0.17822999970E+03 -0.11382805600E+02  0.29117742321E+03  0.34158423974E+03  0.00000000000E+00 0.  1.
        -13    1    5    5    0    0  0.21659322692E+03 -0.45123636564E+02  0.20688942851E+03  0.30290593285E+03  0.00000000000E+00 0. -1.
          1    1    6    6  503    0 -0.69556488982E+02  0.34129243331E+02 -0.46841247695E+02  0.90537356353E+02  0.00000000000E+00 0. -1.
         -1    1    6    6    0  503 -0.13841877337E+03 -0.40903713859E+02 -0.17881077016E+03  0.22979591413E+03  0.00000000000E+00 0.  1.
<mgrwt>
<rscale>  0 0.11412699E+04</rscale>
<asrwt>0</asrwt>
<pdfrwt beam="1">  1        1 0.67593838E-01 0.11412699E+04</pdfrwt>
<pdfrwt beam="2">  1       -2 0.11402049E+00 0.11412699E+04</pdfrwt>
<totfact> 0.27653454E+01</totfact>
</mgrwt>
</event>
<event>
12    5  0.5197392E-008  0.1505857E+04  0.7818608E-02  0.8880567E-01
         -2   -1    0    0    0  501 -0.00000000000E+00  0.00000000000E+00  0.20764618179E+03  0.20764618179E+03  0.00000000000E+00 0.  1.
          1   -1    0    0  501    0  0.00000000000E+00 -0.00000000000E+00 -0.27301319714E+04  0.27301319714E+04  0.00000000000E+00 0. -1.
        -24    2    1    2    0    0  0.59606232484E+02  0.47847263004E+03 -0.53752356313E+03  0.72644752330E+03  0.79406942687E+02 0.  0.
        254    2    1    2    0    0 -0.59606232484E+02 -0.47847263004E+03 -0.19849622264E+04  0.22113306299E+04  0.84700599377E+03 0.  0.
         23    2    4    4    0    0  0.18410689590E+03 -0.45956968164E+03 -0.18528884268E+04  0.19205246371E+04  0.10059681094E+03 0.  0.
         23    2    4    4    0    0 -0.24371312839E+03 -0.18902948397E+02 -0.13207379967E+03  0.29080599272E+03  0.85855846829E+02 0.  0.
          1    1    3    3  502    0  0.57635628949E+02  0.17118529964E+03 -0.17984048877E+03  0.25488992514E+03  0.00000000000E+00 0. -1.
         -2    1    3    3    0  502  0.19706035353E+01  0.30728733040E+03 -0.35768307435E+03  0.47155759816E+03  0.00000000000E+00 0.  1.
         13    1    5    5    0    0  0.23757510169E+02 -0.12499616542E+03 -0.62451093837E+03  0.63734007626E+03  0.00000000000E+00 0.  1.
        -13    1    5    5    0    0  0.16034938573E+03 -0.33457351622E+03 -0.12283774884E+04  0.12831845609E+04  0.00000000000E+00 0. -1.
          3    1    6    6  503    0 -0.95009532309E+02 -0.23366722139E+02 -0.97382725221E+02  0.13804423242E+03  0.00000000000E+00 0. -1.
         -3    1    6    6    0  503 -0.14870359608E+03  0.44637737419E+01 -0.34691074449E+02  0.15276176030E+03  0.00000000000E+00 0.  1.
<mgrwt>
<rscale>  0 0.15058572E+04</rscale>
<asrwt>0</asrwt>
<pdfrwt beam="1">  1        1 0.42002029E+00 0.15058572E+04</pdfrwt>
<pdfrwt beam="2">  1       -2 0.31945567E-01 0.15058572E+04</pdfrwt>
<totfact> 0.72590095E+00</totfact>
</mgrwt>
</event>
<event>
12    5  0.5197392E-008  0.2111266E+04  0.7818608E-02  0.8556297E-01
         -2   -1    0    0    0  501 -0.00000000000E+00  0.00000000000E+00  0.68418103328E+03  0.68418103328E+03  0.00000000000E+00 0.  1.
          1   -1    0    0  501    0  0.00000000000E+00 -0.00000000000E+00 -0.16287519015E+04  0.16287519015E+04  0.00000000000E+00 0. -1.
        -24    2    1    2    0    0  0.19530809460E+03  0.54611739677E+03 -0.10921144781E+04  0.12392341109E+04  0.81226139156E+02 0.  0.
        254    2    1    2    0    0 -0.19530809460E+03 -0.54611739677E+03  0.14754360983E+03  0.10736988238E+04  0.89144297891E+03 0.  0.
         23    2    4    4    0    0  0.12035046042E+03 -0.14158531558E+03  0.43281157616E+03  0.47970870040E+03  0.90906225724E+02 0.  0.
         23    2    4    4    0    0 -0.31565855501E+03 -0.40453208119E+03 -0.28526796633E+03  0.59399012344E+03  0.90332309088E+02 0.  0.
          1    1    3    3  502    0  0.17733751176E+03  0.53012332356E+03 -0.10663396708E+04  0.12039765882E+04  0.00000000000E+00 0. -1.
         -2    1    3    3    0  502  0.17970582833E+02  0.15994073213E+02 -0.25774807229E+02  0.35257522786E+02  0.00000000000E+00 0.  1.
         13    1    5    5    0    0  0.11291096520E+03 -0.14412612685E+03  0.33656214686E+03  0.38313875450E+03  0.00000000000E+00 0. -1.
        -13    1    5    5    0    0  0.74394952174E+01  0.25408112701E+01  0.96249429296E+02  0.96569945899E+02  0.00000000000E+00 0.  1.
          2    1    6    6  503    0 -0.24510605136E+03 -0.27671935820E+03 -0.24158059589E+03  0.44160136314E+03  0.00000000000E+00 0. -1.
         -2    1    6    6    0  503 -0.70552503651E+02 -0.12781272299E+03 -0.43687370438E+02  0.15238876030E+03  0.00000000000E+00 0.  1.
<mgrwt>
<rscale>  0 0.21112661E+04</rscale>
<asrwt>0</asrwt>
<pdfrwt beam="1">  1        1 0.25057721E+00 0.21112661E+04</pdfrwt>
<pdfrwt beam="2">  1       -2 0.10525862E+00 0.21112661E+04</pdfrwt>
<totfact> 0.31431995E+00</totfact>
</mgrwt>
</event>
<event>
12    5  0.5197392E-008  0.2076462E+04  0.7818608E-02  0.8571684E-01
          1   -1    0    0  501    0  0.00000000000E+00  0.00000000000E+00  0.21420046685E+04  0.21420046685E+04  0.00000000000E+00 0. -1.
         -2   -1    0    0    0  501 -0.00000000000E+00 -0.00000000000E+00 -0.50323121390E+03  0.50323121390E+03  0.00000000000E+00 0.  1.
        -24    2    1    2    0    0 -0.30164811532E+02  0.10332144323E+03 -0.39545771766E+03  0.41758487068E+03  0.80031751673E+02 0.  0.
        254    2    1    2    0    0  0.30164811532E+02 -0.10332144323E+03  0.20342311722E+04  0.22276510117E+04  0.90152500315E+03 0.  0.
         23    2    4    4    0    0  0.25653545514E+03  0.16988630769E+03  0.25161683702E+03  0.40777090610E+03  0.91072948300E+02 0.  0.
         23    2    4    4    0    0 -0.22637064361E+03 -0.27320775092E+03  0.17826143352E+04  0.18198801056E+04  0.91452649648E+02 0.  0.
          1    1    3    3  502    0 -0.14959200307E+02  0.30283493689E+02 -0.31926990925E+02  0.46477956209E+02  0.00000000000E+00 0. -1.
         -2    1    3    3    0  502 -0.15205611225E+02  0.73037949544E+02 -0.36353072674E+03  0.37110691447E+03  0.00000000000E+00 0.  1.
         13    1    5    5    0    0  0.68542721352E+02  0.14252136547E+02  0.23896388971E+02  0.73974762266E+02  0.00000000000E+00 0. -1.
        -13    1    5    5    0    0  0.18799273379E+03  0.15563417114E+03  0.22772044804E+03  0.33379614384E+03  0.00000000000E+00 0.  1.
          4    1    6    6  503    0 -0.12406863814E+03 -0.18603167573E+03  0.91560201256E+03  0.94251146240E+03  0.00000000000E+00 0.  1.
         -4    1    6    6    0  503 -0.10230200547E+03 -0.87176075186E+02  0.86701232266E+03  0.87736864319E+03  0.00000000000E+00 0. -1.
<mgrwt>
<rscale>  0 0.20764620E+04</rscale>
<asrwt>0</asrwt>
<pdfrwt beam="1">  1        1 0.32953918E+00 0.20764620E+04</pdfrwt>
<pdfrwt beam="2">  1       -2 0.77420188E-01 0.20764620E+04</pdfrwt>
<totfact> 0.28736623E+00</totfact>
</mgrwt>
</event>
<event>
12    5  0.5197392E-008  0.1358597E+04  0.7818608E-02  0.8984345E-01
         -2   -1    0    0    0  501 -0.00000000000E+00  0.00000000000E+00  0.20014421078E+03  0.20014421078E+03  0.00000000000E+00 0.  1.
          1   -1    0    0  501    0  0.00000000000E+00 -0.00000000000E+00 -0.23055708261E+04  0.23055708261E+04  0.00000000000E+00 0. -1.
        -24    2    1    2    0    0 -0.24659530743E+03 -0.28483534081E+03 -0.47797428130E+03  0.61363215238E+03  0.78387421373E+02 0.  0.
        254    2    1    2    0    0  0.24659530743E+03  0.28483534081E+03 -0.16274523340E+04  0.18920828845E+04  0.88850218079E+03 0.  0.
         23    2    4    4    0    0 -0.16555211553E+03  0.18072399380E+03 -0.13514035895E+04  0.13761244194E+04  0.85779316430E+02 0.  0.
         23    2    4    4    0    0  0.41214742296E+03  0.10411134701E+03 -0.27604874451E+03  0.51595846507E+03  0.96465317608E+02 0.  0.
          1    1    3    3  502    0 -0.10937413287E+03 -0.13518988918E+03 -0.28288959739E+03  0.33206254138E+03  0.00000000000E+00 0. -1.
         -2    1    3    3    0  502 -0.13722117457E+03 -0.14964545162E+03 -0.19508468391E+03  0.28156961100E+03  0.00000000000E+00 0.  1.
         13    1    5    5    0    0 -0.16338264676E+03  0.16607163444E+03 -0.11057719044E+04  0.11300465396E+04  0.00000000000E+00 0. -1.
        -13    1    5    5    0    0 -0.21694687700E+01  0.14652359359E+02 -0.24563168505E+03  0.24607787981E+03  0.00000000000E+00 0.  1.
          1    1    6    6  503    0  0.10448633445E+03 -0.52816541326E+01 -0.35828656294E+02  0.11058473027E+03  0.00000000000E+00 0. -1.
         -1    1    6    6    0  503  0.30766108851E+03  0.10939300114E+03 -0.24022008821E+03  0.40537373480E+03  0.00000000000E+00 0.  1.
<mgrwt>
<rscale>  0 0.13585973E+04</rscale>
<asrwt>0</asrwt>
<pdfrwt beam="1">  1        1 0.35470322E+00 0.13585973E+04</pdfrwt>
<pdfrwt beam="2">  1       -2 0.30791416E-01 0.13585973E+04</pdfrwt>
<totfact> 0.15514687E+01</totfact>
</mgrwt>
</event>
<event>
12    5  0.5197392E-008  0.2352190E+04  0.7818608E-02  0.8457623E-01
         -2   -1    0    0    0  501 -0.00000000000E+00  0.00000000000E+00  0.14930877704E+04  0.14930877704E+04  0.00000000000E+00 0.  1.
          1   -1    0    0  501    0  0.00000000000E+00 -0.00000000000E+00 -0.92640180116E+03  0.92640180116E+03  0.00000000000E+00 0. -1.
        -24    2    1    2    0    0  0.21812333135E+02 -0.14173327342E+03 -0.77428206167E+03  0.79143740531E+03  0.79349586257E+02 0.  0.
        254    2    1    2    0    0 -0.21812333135E+02  0.14173327342E+03  0.13409680309E+04  0.16280521662E+04  0.91202768456E+03 0.  0.
         23    2    4    4    0    0  0.35574253104E+03  0.48397538356E+02  0.20380999232E+03  0.42274043285E+03  0.90971921415E+02 0.  0.
         23    2    4    4    0    0 -0.37755486418E+03  0.93335735061E+02  0.11371580386E+04  0.12053117334E+04  0.91590037819E+02 0.  0.
          3    1    3    3  502    0  0.27113427900E+02 -0.67110210275E+02 -0.55599656443E+03  0.56068805762E+03  0.00000000000E+00 0. -1.
         -4    1    3    3    0  502 -0.53010947652E+01 -0.74623063141E+02 -0.21828549723E+03  0.23074934769E+03  0.00000000000E+00 0.  1.
         13    1    5    5    0    0  0.29217933565E+03  0.65120599001E+02  0.13764174638E+03  0.32947641333E+03  0.00000000000E+00 0.  1.
        -13    1    5    5    0    0  0.63563195392E+02 -0.16723060645E+02  0.66168245946E+02  0.93264019522E+02  0.00000000000E+00 0. -1.
          4    1    6    6  503    0 -0.92219144761E+02  0.48409201797E+02  0.21365378076E+03  0.23768836638E+03  0.00000000000E+00 0. -1.
         -4    1    6    6    0  503 -0.28533571942E+03  0.44926533264E+02  0.92350425780E+03  0.96762336699E+03  0.00000000000E+00 0.  1.
<mgrwt>
<rscale>  0 0.23521898E+04</rscale>
<asrwt>0</asrwt>
<pdfrwt beam="1">  1        1 0.14252335E+00 0.23521898E+04</pdfrwt>
<pdfrwt beam="2">  1       -2 0.22970581E+00 0.23521898E+04</pdfrwt>
<totfact> 0.11728359E+00</totfact>
</mgrwt>
</event>
<event>
12    5  0.5770961E-008  0.2683975E+04  0.7818608E-02  0.8340223E-01
          3   -1    0    0  501    0  0.00000000000E+00  0.00000000000E+00  0.15486159649E+04  0.15486159649E+04  0.00000000000E+00 0. -1.
         -4   -1    0    0    0  501 -0.00000000000E+00 -0.00000000000E+00 -0.11629292878E+04  0.11629292878E+04  0.00000000000E+00 0.  1.
        -24    2    1    2    0    0 -0.11373737174E+04 -0.33690502836E+03  0.20350935165E+03  0.12060064741E+04  0.76886853715E+02 0.  0.
        254    2    1    2    0    0  0.11373737174E+04  0.33690502836E+03  0.18217732539E+03  0.15055387786E+04  0.90902940816E+03 0.  0.
         23    2    4    4    0    0  0.62509336187E+02  0.71787180979E+02  0.35727357008E+03  0.38098315262E+03  0.91885484398E+02 0.  0.
         23    2    4    4    0    0  0.10748643812E+04  0.26511784738E+03 -0.17509624469E+03  0.11245556260E+04  0.91355076978E+02 0.  0.
          3    1    3    3  502    0 -0.85604957045E+02 -0.35327656736E+02 -0.24461646925E+01  0.92640356880E+02  0.00000000000E+00 0. -1.
         -2    1    3    3    0  502 -0.10517687603E+04 -0.30157737162E+03  0.20595551635E+03  0.11133661172E+04  0.00000000000E+00 0.  1.
         13    1    5    5    0    0  0.95099984641E+01  0.18237839701E+02  0.55826959428E+01  0.21312563472E+02  0.00000000000E+00 0.  1.
        -13    1    5    5    0    0  0.52999337723E+02  0.53549341278E+02  0.35169087414E+03  0.35967058915E+03  0.00000000000E+00 0. -1.
          1    1    6    6  503    0  0.98014465882E+03  0.22317506553E+03 -0.17826851713E+03  0.10209164149E+04  0.00000000000E+00 0. -1.
         -1    1    6    6    0  503  0.94719722358E+02  0.41942781853E+02  0.31722724349E+01  0.10363921104E+03  0.00000000000E+00 0.  1.
<mgrwt>
<rscale>  0 0.26839753E+04</rscale>
<asrwt>0</asrwt>
<pdfrwt beam="1">  1        3 0.23824861E+00 0.26839753E+04</pdfrwt>
<pdfrwt beam="2">  1       -4 0.17891220E+00 0.26839753E+04</pdfrwt>
<totfact> 0.31650796E-02</totfact>
</mgrwt>
</event>
<event>
12    5  0.5197392E-008  0.1285604E+04  0.7818608E-02  0.9041060E-01
          1   -1    0    0  501    0  0.00000000000E+00  0.00000000000E+00  0.59618710530E+03  0.59618710530E+03  0.00000000000E+00 0. -1.
         -2   -1    0    0    0  501 -0.00000000000E+00 -0.00000000000E+00 -0.69306186235E+03  0.69306186235E+03  0.00000000000E+00 0.  1.
        -24    2    1    2    0    0 -0.12306006576E+03 -0.12861957707E+03  0.25180711948E+03  0.31870260979E+03  0.80484487176E+02 0.  0.
        254    2    1    2    0    0  0.12306006576E+03  0.12861957707E+03 -0.34868187653E+03  0.97054635786E+03  0.88808468422E+03 0.  0.
         23    2    4    4    0    0 -0.22432465453E+03  0.36774759541E+03 -0.44609910238E+02  0.44269158662E+03  0.91792985644E+02 0.  0.
         23    2    4    4    0    0  0.34738472029E+03 -0.23912801834E+03 -0.30407196630E+03  0.52785477124E+03  0.91173163748E+02 0.  0.
          1    1    3    3  502    0 -0.89752421278E+02 -0.12320466075E+03  0.23714738495E+03  0.28191092165E+03  0.00000000000E+00 0. -1.
         -2    1    3    3    0  502 -0.33307644482E+02 -0.54149163114E+01  0.14659734529E+02  0.36791688138E+02  0.00000000000E+00 0.  1.
         13    1    5    5    0    0 -0.10063848554E+03  0.16226618152E+03 -0.65707257819E+02  0.20193033989E+03  0.00000000000E+00 0.  1.
        -13    1    5    5    0    0 -0.12368616899E+03  0.20548141389E+03  0.21097347581E+02  0.24076124673E+03  0.00000000000E+00 0. -1.
          3    1    6    6  503    0  0.15131039517E+03 -0.86968636845E+02 -0.17875150145E+03  0.24982089334E+03  0.00000000000E+00 0. -1.
         -3    1    6    6    0  503  0.19607432512E+03 -0.15215938150E+03 -0.12532046485E+03  0.27803387790E+03  0.00000000000E+00 0.  1.
<mgrwt>
<rscale>  0 0.12856042E+04</rscale>
<asrwt>0</asrwt>
<pdfrwt beam="1">  1        1 0.91721093E-01 0.12856042E+04</pdfrwt>
<pdfrwt beam="2">  1       -2 0.10662490E+00 0.12856042E+04</pdfrwt>
<totfact> 0.21076607E+01</totfact>
</mgrwt>
</event>
<event>
12    5  0.5197392E-008  0.2015514E+04  0.7818608E-02  0.8599401E-01
         -2   -1    0    0    0  501 -0.00000000000E+00  0.00000000000E+00  0.11433059391E+04  0.11433059391E+04  0.00000000000E+00 0.  1.
          1   -1    0    0  501    0  0.00000000000E+00 -0.00000000000E+00 -0.88827890422E+03  0.88827890422E+03  0.00000000000E+00 0. -1.
        -24    2    1    2    0    0  0.23226309793E+03 -0.71833540159E+03  0.35627440215E+03  0.83952450558E+03  0.88983425435E+02 0.  0.
        254    2    1    2    0    0 -0.23226309793E+03  0.71833540159E+03 -0.10124736726E+03  0.11920603378E+04  0.91695415569E+03 0.  0.
         23    2    4    4    0    0 -0.42586199307E+03  0.39915658186E+03  0.27775479802E+03  0.65188909093E+03  0.84423012688E+02 0.  0.
         23    2    4    4    0    0  0.19359889514E+03  0.31917881973E+03 -0.37900216528E+03  0.54017124683E+03  0.93737310869E+02 0.  0.
          1    1    3    3  502    0  0.12062813255E+03 -0.42084427099E+03  0.16037316814E+03  0.46624092468E+03  0.00000000000E+00 0. -1.
         -2    1    3    3    0  502  0.11163496538E+03 -0.29749113060E+03  0.19590123401E+03  0.37328358090E+03  0.00000000000E+00 0.  1.
         13    1    5    5    0    0 -0.51331690025E+02  0.16099987870E+02  0.20194060282E+02  0.57462614637E+02  0.00000000000E+00 0.  1.
        -13    1    5    5    0    0 -0.37453030304E+03  0.38305659399E+03  0.25756073774E+03  0.59442647630E+03  0.00000000000E+00 0. -1.
          1    1    6    6  503    0  0.19442336396E+03  0.29547589459E+03 -0.32155598368E+03  0.47802165158E+03  0.00000000000E+00 0. -1.
         -1    1    6    6    0  503 -0.82446882346E+00  0.23702925142E+02 -0.57446181603E+02  0.62149595251E+02  0.00000000000E+00 0.  1.
<mgrwt>
<rscale>  0 0.20155144E+04</rscale>
<asrwt>0</asrwt>
<pdfrwt beam="1">  1        1 0.13665829E+00 0.20155144E+04</pdfrwt>
<pdfrwt beam="2">  1       -2 0.17589322E+00 0.20155144E+04</pdfrwt>
<totfact> 0.29246076E+00</totfact>
</mgrwt>
</event>
<event>
12    5  0.5197392E-008  0.1614194E+04  0.7818608E-02  0.8811875E-01
         -2   -1    0    0    0  501 -0.00000000000E+00  0.00000000000E+00  0.25200777640E+03  0.25200777640E+03  0.00000000000E+00 0.  1.
          1   -1    0    0  501    0  0.00000000000E+00 -0.00000000000E+00 -0.25848626858E+04  0.25848626858E+04  0.00000000000E+00 0. -1.
        -24    2    1    2    0    0  0.33072612362E+03 -0.47564660853E+02 -0.28382928265E+02  0.34501854391E+03  0.81179056519E+02 0.  0.
        254    2    1    2    0    0 -0.33072612362E+03  0.47564660853E+02 -0.23044719812E+04  0.24918519183E+04  0.88718245307E+03 0.  0.
         23    2    4    4    0    0 -0.18303790490E+03  0.32553100990E+03 -0.38190877872E+03  0.54156638001E+03  0.89255339604E+02 0.  0.
         23    2    4    4    0    0 -0.14768821871E+03 -0.27796634905E+03 -0.19225632024E+04  0.19502855383E+04  0.91034676931E+02 0.  0.
          1    1    3    3  502    0  0.93114139121E+02 -0.31257551131E+02 -0.41180560549E+02  0.10650406553E+03  0.00000000000E+00 0. -1.
         -2    1    3    3    0  502  0.23761198450E+03 -0.16307109723E+02  0.12797632285E+02  0.23851447838E+03  0.00000000000E+00 0.  1.
         13    1    5    5    0    0 -0.15539162522E+03  0.22531607296E+03 -0.31785539329E+03  0.41945910524E+03  0.00000000000E+00 0.  1.
        -13    1    5    5    0    0 -0.27646279684E+02  0.10021493694E+03 -0.64053385438E+02  0.12210727477E+03  0.00000000000E+00 0. -1.
          3    1    6    6  503    0 -0.69896704699E+02 -0.60741735087E+02 -0.70466516941E+03  0.71072365142E+03  0.00000000000E+00 0. -1.
         -3    1    6    6    0  503 -0.77791514016E+02 -0.21722461396E+03 -0.12178980330E+04  0.12395618869E+04  0.00000000000E+00 0.  1.
<mgrwt>
<rscale>  0 0.16141939E+04</rscale>
<asrwt>0</asrwt>
<pdfrwt beam="1">  1        1 0.39767119E+00 0.16141939E+04</pdfrwt>
<pdfrwt beam="2">  1       -2 0.38770426E-01 0.16141939E+04</pdfrwt>
<totfact> 0.62702511E+00</totfact>
</mgrwt>
</event>
<event>
12    5  0.5197392E-008  0.1693632E+04  0.7818608E-02  0.8765005E-01
          1   -1    0    0  501    0  0.00000000000E+00  0.00000000000E+00  0.12493913010E+04  0.12493913010E+04  0.00000000000E+00 0. -1.
         -2   -1    0    0    0  501 -0.00000000000E+00 -0.00000000000E+00 -0.57395723124E+03  0.57395723124E+03  0.00000000000E+00 0.  1.
        -24    2    1    2    0    0  0.90374276319E+02  0.16529879265E+02  0.89355502181E+03  0.90212146430E+03  0.83317540858E+02 0.  0.
        254    2    1    2    0    0 -0.90374276319E+02 -0.16529879265E+02 -0.21812095201E+03  0.92122706798E+03  0.89030433805E+03 0.  0.
         23    2    4    4    0    0 -0.18937859539E+03 -0.17058980916E+03  0.27714298706E+03  0.38553073126E+03  0.82828582545E+02 0.  0.
         23    2    4    4    0    0  0.99004319075E+02  0.15405992990E+03 -0.49526393907E+03  0.53569633672E+03  0.90265600522E+02 0.  0.
          3    1    3    3  502    0  0.67536732751E+02 -0.14281712044E+02  0.76114698806E+03  0.76427083877E+03  0.00000000000E+00 0. -1.
         -4    1    3    3    0  502  0.22837543568E+02  0.30811591308E+02  0.13240803375E+03  0.13785062553E+03  0.00000000000E+00 0.  1.
         13    1    5    5    0    0 -0.85279882529E+02 -0.34247209993E+02  0.13191788589E+03  0.16077269163E+03  0.00000000000E+00 0. -1.
        -13    1    5    5    0    0 -0.10409871286E+03 -0.13634259917E+03  0.14522510117E+03  0.22475803963E+03  0.00000000000E+00 0.  1.
          1    1    6    6  503    0  0.26835902796E+02  0.28571890953E+02 -0.23172132268E+03  0.23501338263E+03  0.00000000000E+00 0. -1.
         -1    1    6    6    0  503  0.72168416279E+02  0.12548803894E+03 -0.26354261639E+03  0.30068295409E+03  0.00000000000E+00 0.  1.
<mgrwt>
<rscale>  0 0.16936318E+04</rscale>
<asrwt>0</asrwt>
<pdfrwt beam="1">  1        1 0.19221404E+00 0.16936318E+04</pdfrwt>
<pdfrwt beam="2">  1       -2 0.88301113E-01 0.16936318E+04</pdfrwt>
<totfact> 0.90721482E+00</totfact>
</mgrwt>
</event>
<event>
12    5  0.5197392E-008  0.2024941E+04  0.7818608E-02  0.8595048E-01
          1   -1    0    0  501    0  0.00000000000E+00  0.00000000000E+00  0.75224946183E+03  0.75224946183E+03  0.00000000000E+00 0. -1.
         -2   -1    0    0    0  501 -0.00000000000E+00 -0.00000000000E+00 -0.13627079893E+04  0.13627079893E+04  0.00000000000E+00 0.  1.
        -24    2    1    2    0    0 -0.59538219322E+03 -0.13125925965E+03 -0.81255296030E+03  0.10193409135E+04  0.84288999242E+02 0.  0.
        254    2    1    2    0    0  0.59538219322E+03  0.13125925965E+03  0.20209443286E+03  0.10956165376E+04  0.88759477715E+03 0.  0.
         23    2    4    4    0    0  0.80562945868E+03  0.43516684047E+02  0.23555917159E+03  0.84540887574E+03  0.91079730898E+02 0.  0.
         23    2    4    4    0    0 -0.21024726545E+03  0.87742575599E+02 -0.33464738728E+02  0.25020766186E+03  0.97884182146E+02 0.  0.
          3    1    3    3  502    0 -0.30262135117E+02  0.78372689698E+00 -0.74737212337E+02  0.80635364188E+02  0.00000000000E+00 0. -1.
         -4    1    3    3    0  502 -0.56512005810E+03 -0.13204298654E+03 -0.73781574796E+03  0.93870554931E+03  0.00000000000E+00 0.  1.
         13    1    5    5    0    0  0.46113105278E+03  0.69583718896E+02  0.14166690324E+03  0.48739435086E+03  0.00000000000E+00 0.  1.
        -13    1    5    5    0    0  0.34449840589E+03 -0.26067034849E+02  0.93892268355E+02  0.35801452488E+03  0.00000000000E+00 0. -1.
          4    1    6    6  503    0  0.60753247250E+01  0.14445741832E+02  0.87316795428E+01  0.17939655939E+02  0.00000000000E+00 0. -1.
         -4    1    6    6    0  503 -0.21632259018E+03  0.73296833768E+02 -0.42196418270E+02  0.23226800593E+03  0.00000000000E+00 0.  1.
<mgrwt>
<rscale>  0 0.20249408E+04</rscale>
<asrwt>0</asrwt>
<pdfrwt beam="1">  1        1 0.11573069E+00 0.20249408E+04</pdfrwt>
<pdfrwt beam="2">  1       -2 0.20964738E+00 0.20249408E+04</pdfrwt>
<totfact> 0.22745569E+00</totfact>
</mgrwt>
</event>
<event>
12    5  0.5197392E-008  0.2070530E+04  0.7818608E-02  0.8574337E-01
          1   -1    0    0  501    0  0.00000000000E+00  0.00000000000E+00  0.60413762031E+03  0.60413762031E+03  0.00000000000E+00 0. -1.
         -2   -1    0    0    0  501 -0.00000000000E+00 -0.00000000000E+00 -0.17740554077E+04  0.17740554077E+04  0.00000000000E+00 0.  1.
        -24    2    1    2    0    0 -0.52812043080E+03 -0.56486342413E+03 -0.78015534532E+03  0.11014135583E+04  0.80545553866E+02 0.  0.
        254    2    1    2    0    0  0.52812043080E+03  0.56486342413E+03 -0.38976244210E+03  0.12767794697E+04  0.93822661215E+03 0.  0.
         23    2    4    4    0    0 -0.95557968447E+02 -0.66766921873E+02 -0.35407232537E+03  0.38370770324E+03  0.90968361208E+02 0.  0.
         23    2    4    4    0    0  0.62367839925E+03  0.63163034600E+03 -0.35690116729E+02  0.89307176650E+03  0.91497300621E+02 0.  0.
          3    1    3    3  502    0 -0.52665079155E+03 -0.55119460529E+03 -0.77385514977E+03  0.10862910945E+04  0.00000000000E+00 0. -1.
         -4    1    3    3    0  502 -0.14696392502E+01 -0.13668818837E+02 -0.63001955442E+01  0.15122463814E+02  0.00000000000E+00 0.  1.
         13    1    5    5    0    0  0.12206793231E+02  0.98135009183E+01 -0.37625301018E+02  0.40755047270E+02  0.00000000000E+00 0.  1.
        -13    1    5    5    0    0 -0.10776476168E+03 -0.76580422791E+02 -0.31644702435E+03  0.34295265597E+03  0.00000000000E+00 0. -1.
          2    1    6    6  503    0  0.62399479901E+03  0.62437014629E+03 -0.41596897354E+02  0.88370690313E+03  0.00000000000E+00 0. -1.
         -2    1    6    6    0  503 -0.31639976631E+00  0.72601997072E+01  0.59067806253E+01  0.93648633709E+01  0.00000000000E+00 0.  1.
<mgrwt>
<rscale>  0 0.20705300E+04</rscale>
<asrwt>0</asrwt>
<pdfrwt beam="1">  1        1 0.92944250E-01 0.20705300E+04</pdfrwt>
<pdfrwt beam="2">  1       -2 0.27293160E+00 0.20705300E+04</pdfrwt>
<totfact> 0.12737942E+00</totfact>
</mgrwt>
</event>
<event>
12    5  0.5197392E-008  0.1165360E+04  0.7818608E-02  0.9143729E-01
          3   -1    0    0  501    0  0.00000000000E+00  0.00000000000E+00  0.13325734271E+04  0.13325734271E+04  0.00000000000E+00 0. -1.
         -4   -1    0    0    0  501 -0.00000000000E+00 -0.00000000000E+00 -0.25478217969E+03  0.25478217969E+03  0.00000000000E+00 0.  1.
        -24    2    1    2    0    0  0.19115541499E+03 -0.63680940064E+02  0.38469132296E+03  0.44138998860E+03  0.79006665984E+02 0.  0.
        254    2    1    2    0    0 -0.19115541499E+03  0.63680940064E+02  0.69309992443E+03  0.11459656182E+04  0.89008653397E+03 0.  0.
         23    2    4    4    0    0 -0.92622527013E+01  0.26490423831E+03 -0.10402848986E+03  0.29908925755E+03  0.91500887846E+02 0.  0.
         23    2    4    4    0    0 -0.18189316229E+03 -0.20122329825E+03  0.79712841428E+03  0.84687636061E+03  0.90608625749E+02 0.  0.
          1    1    3    3  502    0 -0.92440539702E+00  0.34389477386E+01 -0.22508187216E+01  0.42127273593E+01  0.00000000000E+00 0. -1.
         -2    1    3    3    0  502  0.19207982038E+03 -0.67119887803E+02  0.38694214168E+03  0.43717726124E+03  0.00000000000E+00 0.  1.
         13    1    5    5    0    0 -0.85902424391E+01  0.18744611013E+03 -0.11615480754E+03  0.22068478829E+03  0.00000000000E+00 0. -1.
        -13    1    5    5    0    0 -0.67201026221E+00  0.77458128185E+02  0.12126317677E+02  0.78404469261E+02  0.00000000000E+00 0.  1.
          2    1    6    6  503    0 -0.16528898116E+03 -0.12893605620E+03  0.63189101132E+03  0.66575611455E+03  0.00000000000E+00 0. -1.
         -2    1    6    6    0  503 -0.16604181129E+02 -0.72287242043E+02  0.16523740297E+03  0.18112024606E+03  0.00000000000E+00 0.  1.
<mgrwt>
<rscale>  0 0.11653600E+04</rscale>
<asrwt>0</asrwt>
<pdfrwt beam="1">  1        3 0.20501129E+00 0.11653600E+04</pdfrwt>
<pdfrwt beam="2">  1       -4 0.39197259E-01 0.11653600E+04</pdfrwt>
<totfact> 0.19747865E+00</totfact>
</mgrwt>
</event>
<event>
12    5  0.5197392E-008  0.1182764E+04  0.7818608E-02  0.9128078E-01
         -2   -1    0    0    0  501 -0.00000000000E+00  0.00000000000E+00  0.58064748065E+03  0.58064748065E+03  0.00000000000E+00 0.  1.
          1   -1    0    0  501    0  0.00000000000E+00 -0.00000000000E+00 -0.60231528250E+03  0.60231528250E+03  0.00000000000E+00 0. -1.
        -24    2    1    2    0    0  0.11638560052E+03 -0.79383971184E+02 -0.16878302117E+03  0.23666451049E+03  0.87606845628E+02 0.  0.
        254    2    1    2    0    0 -0.11638560052E+03  0.79383971184E+02  0.14711521932E+03  0.94629825266E+03  0.92411583275E+03 0.  0.
         23    2    4    4    0    0 -0.10502256653E+03  0.45752479801E+03 -0.95298765280E+02  0.48790853546E+03  0.92812736400E+02 0.  0.
         23    2    4    4    0    0 -0.11363033993E+02 -0.37814082683E+03  0.24241398460E+03  0.45838971719E+03  0.90757861625E+02 0.  0.
          1    1    3    3  502    0  0.27499185452E+02 -0.37648030933E+02 -0.11635533424E+03  0.12534808830E+03  0.00000000000E+00 0. -1.
         -2    1    3    3    0  502  0.88886415069E+02 -0.41735940251E+02 -0.52427686922E+02  0.11131642219E+03  0.00000000000E+00 0.  1.
         13    1    5    5    0    0 -0.83852928715E+02  0.19191033267E+03 -0.16668452455E+02  0.21009218631E+03  0.00000000000E+00 0.  1.
        -13    1    5    5    0    0 -0.21169637813E+02  0.26561446534E+03 -0.78630312826E+02  0.27781634916E+03  0.00000000000E+00 0. -1.
          2    1    6    6  503    0 -0.28893382569E+02 -0.23633567346E+03  0.19527114580E+03  0.30792888544E+03  0.00000000000E+00 0. -1.
         -2    1    6    6    0  503  0.17530348577E+02 -0.14180515336E+03  0.47142838796E+02  0.15046083175E+03  0.00000000000E+00 0.  1.
<mgrwt>
<rscale>  0 0.11827643E+04</rscale>
<asrwt>0</asrwt>
<pdfrwt beam="1">  1        1 0.92663890E-01 0.11827643E+04</pdfrwt>
<pdfrwt beam="2">  1       -2 0.89330382E-01 0.11827643E+04</pdfrwt>
<totfact> 0.31765599E+01</totfact>
</mgrwt>
</event>
<event>
12    5  0.5197392E-008  0.1275796E+04  0.7818608E-02  0.9048983E-01
         -2   -1    0    0    0  501 -0.00000000000E+00  0.00000000000E+00  0.33630091557E+03  0.33630091557E+03  0.00000000000E+00 0.  1.
          1   -1    0    0  501    0  0.00000000000E+00 -0.00000000000E+00 -0.12099688934E+04  0.12099688934E+04  0.00000000000E+00 0. -1.
        -24    2    1    2    0    0  0.68630944700E+02  0.20345749263E+03  0.42426261810E+02  0.23881174287E+03  0.95529592078E+02 0.  0.
        254    2    1    2    0    0 -0.68630944700E+02 -0.20345749263E+03 -0.91609423962E+03  0.13074580661E+04  0.90780657676E+03 0.  0.
         23    2    4    4    0    0 -0.46472073788E+03 -0.22842229995E+03 -0.52106191172E+03  0.74027297938E+03  0.91413657792E+02 0.  0.
         23    2    4    4    0    0  0.39608979318E+03  0.24964807323E+02 -0.39503232790E+03  0.56718508669E+03  0.90210956191E+02 0.  0.
          1    1    3    3  502    0 -0.19919163285E+02  0.46105583757E+02 -0.91099636853E+01  0.51043994337E+02  0.00000000000E+00 0. -1.
         -2    1    3    3    0  502  0.88550107984E+02  0.15735190887E+03  0.51536225495E+02  0.18776774853E+03  0.00000000000E+00 0.  1.
         13    1    5    5    0    0 -0.59722944914E+02 -0.36666868625E+02 -0.11969142595E+03  0.13869869087E+03  0.00000000000E+00 0. -1.
        -13    1    5    5    0    0 -0.40499779296E+03 -0.19175543133E+03 -0.40137048577E+03  0.60157428851E+03  0.00000000000E+00 0.  1.
          2    1    6    6  503    0  0.26879000091E+02  0.16362871534E+02 -0.85241805288E+01  0.32601930378E+02  0.00000000000E+00 0. -1.
         -2    1    6    6    0  503  0.36921079309E+03  0.86019357889E+01 -0.38650814737E+03  0.53458315632E+03  0.00000000000E+00 0.  1.
<mgrwt>
<rscale>  0 0.12757957E+04</rscale>
<asrwt>0</asrwt>
<pdfrwt beam="1">  1        1 0.18614906E+00 0.12757957E+04</pdfrwt>
<pdfrwt beam="2">  1       -2 0.51738602E-01 0.12757957E+04</pdfrwt>
<totfact> 0.32001343E+01</totfact>
</mgrwt>
</event>
<event>
12    5  0.5197392E-008  0.1624184E+04  0.7818608E-02  0.8805827E-01
         -2   -1    0    0    0  501 -0.00000000000E+00  0.00000000000E+00  0.85719230005E+03  0.85719230005E+03  0.00000000000E+00 0.  1.
          1   -1    0    0  501    0  0.00000000000E+00 -0.00000000000E+00 -0.76936482158E+03  0.76936482158E+03  0.00000000000E+00 0. -1.
        -24    2    1    2    0    0  0.12742340249E+03  0.49942408414E+03 -0.18125245357E+03  0.55200639824E+03  0.78724027149E+02 0.  0.
        254    2    1    2    0    0 -0.12742340249E+03 -0.49942408414E+03  0.26907993204E+03  0.10745507234E+04  0.90365596772E+03 0.  0.
         23    2    4    4    0    0 -0.42830899714E+03 -0.40795001260E+03 -0.70767311008E+02  0.60279924923E+03  0.92125527204E+02 0.  0.
         23    2    4    4    0    0  0.30088559465E+03 -0.91474071548E+02  0.33984724305E+03  0.47175147416E+03  0.90297607581E+02 0.  0.
          3    1    3    3  502    0  0.10648039694E+03  0.48290510836E+03 -0.16835368487E+03  0.52237762377E+03  0.00000000000E+00 0. -1.
         -4    1    3    3    0  502  0.20943005550E+02  0.16518975785E+02 -0.12898768700E+02  0.29628774467E+02  0.00000000000E+00 0.  1.
         13    1    5    5    0    0 -0.27741558114E+03 -0.32138762105E+03 -0.44861283397E+02  0.42692147097E+03  0.00000000000E+00 0. -1.
        -13    1    5    5    0    0 -0.15089341600E+03 -0.86562391545E+02 -0.25906027610E+02  0.17587777827E+03  0.00000000000E+00 0.  1.
          3    1    6    6  503    0  0.30374977075E+03 -0.98608710337E+02  0.33386420212E+03  0.46200963891E+03  0.00000000000E+00 0. -1.
         -3    1    6    6    0  503 -0.28641761030E+01  0.71346387886E+01  0.59830409241E+01  0.97418352528E+01  0.00000000000E+00 0.  1.
<mgrwt>
<rscale>  0 0.16241842E+04</rscale>
<asrwt>0</asrwt>
<pdfrwt beam="1">  1        1 0.11836382E+00 0.16241842E+04</pdfrwt>
<pdfrwt beam="2">  1       -2 0.13187574E+00 0.16241842E+04</pdfrwt>
<totfact> 0.82631187E+00</totfact>
</mgrwt>
</event>
<event>
12    5  0.5197392E-008  0.1336403E+04  0.7818608E-02  0.9001185E-01
          1   -1    0    0  501    0  0.00000000000E+00  0.00000000000E+00  0.24436751572E+04  0.24436751572E+04  0.00000000000E+00 0. -1.
         -2   -1    0    0    0  501 -0.00000000000E+00 -0.00000000000E+00 -0.18271386584E+03  0.18271386584E+03  0.00000000000E+00 0.  1.
        -24    2    1    2    0    0 -0.15150784061E+03 -0.27004755084E+03  0.96127898363E+03  0.10130385474E+04  0.79432415967E+02 0.  0.
        254    2    1    2    0    0  0.15150784061E+03  0.27004755084E+03  0.12996823077E+04  0.16133504756E+04  0.90434802519E+03 0.  0.
         23    2    4    4    0    0 -0.21170734345E+03  0.87421630452E+02 -0.22402120263E+01  0.24584220292E+03  0.89279501813E+02 0.  0.
         23    2    4    4    0    0  0.36321518406E+03  0.18262592039E+03  0.13019225197E+04  0.13675082727E+04  0.98990563827E+02 0.  0.
          3    1    3    3  502    0 -0.91766586815E+02 -0.10944581785E+03  0.34537681816E+03  0.37374408360E+03  0.00000000000E+00 0. -1.
         -4    1    3    3    0  502 -0.59741253796E+02 -0.16060173300E+03  0.61590216547E+03  0.63929446382E+03  0.00000000000E+00 0.  1.
         13    1    5    5    0    0 -0.30008275006E+01 -0.12668010729E+02 -0.60260026906E+01  0.14345597581E+02  0.00000000000E+00 0.  1.
        -13    1    5    5    0    0 -0.20870651595E+03  0.10008964118E+03  0.37857906643E+01  0.23149660534E+03  0.00000000000E+00 0. -1.
          1    1    6    6  503    0  0.34924671705E+03  0.18053079432E+03  0.12913354834E+04  0.13498562767E+04  0.00000000000E+00 0. -1.
         -1    1    6    6    0  503  0.13968467008E+02  0.20951260742E+01  0.10587036351E+02  0.17651995992E+02  0.00000000000E+00 0.  1.
<mgrwt>
<rscale>  0 0.13364031E+04</rscale>
<asrwt>0</asrwt>
<pdfrwt beam="1">  1        1 0.37595000E+00 0.13364031E+04</pdfrwt>
<pdfrwt beam="2">  1       -2 0.28109827E-01 0.13364031E+04</pdfrwt>
<totfact> 0.14811925E+01</totfact>
</mgrwt>
</event>
<event>
12    5  0.5197392E-008  0.1102755E+04  0.7818608E-02  0.9202511E-01
          1   -1    0    0  501    0  0.00000000000E+00  0.00000000000E+00  0.10296601801E+04  0.10296601801E+04  0.00000000000E+00 0. -1.
         -2   -1    0    0    0  501 -0.00000000000E+00 -0.00000000000E+00 -0.29525957189E+03  0.29525957189E+03  0.00000000000E+00 0.  1.
        -24    2    1    2    0    0  0.10152200408E+03  0.72578760440E+02  0.85926782198E+02  0.17053126551E+03  0.78250283306E+02 0.  0.
        254    2    1    2    0    0 -0.10152200408E+03 -0.72578760440E+02  0.64847382606E+03  0.11543884865E+04  0.94684744335E+03 0.  0.
         23    2    4    4    0    0 -0.18897535863E+03  0.39568090170E+03  0.43599669269E+03  0.62479975460E+03  0.89479356144E+02 0.  0.
         23    2    4    4    0    0  0.87453354545E+02 -0.46825966214E+03  0.21247713337E+03  0.52958873193E+03  0.91665109918E+02 0.  0.
          3    1    3    3  502    0  0.43052343399E+02  0.63663643843E+02  0.80247875512E+02  0.11111383957E+03  0.00000000000E+00 0. -1.
         -4    1    3    3    0  502  0.58469660682E+02  0.89151165970E+01  0.56789066867E+01  0.59417425940E+02  0.00000000000E+00 0.  1.
         13    1    5    5    0    0 -0.16431889875E+03  0.25967833596E+03  0.27261857401E+03  0.41079730470E+03  0.00000000000E+00 0.  1.
        -13    1    5    5    0    0 -0.24656459881E+02  0.13600256574E+03  0.16337811867E+03  0.21400244990E+03  0.00000000000E+00 0. -1.
          4    1    6    6  503    0  0.30195710590E+02 -0.29930124656E+03  0.92957973848E+02  0.31485584326E+03  0.00000000000E+00 0. -1.
         -4    1    6    6    0  503  0.57257643955E+02 -0.16895841558E+03  0.11951915952E+03  0.21473288868E+03  0.00000000000E+00 0.  1.
<mgrwt>
<rscale>  0 0.11027548E+04</rscale>
<asrwt>0</asrwt>
<pdfrwt beam="1">  1        1 0.15840926E+00 0.11027548E+04</pdfrwt>
<pdfrwt beam="2">  1       -2 0.45424550E-01 0.11027548E+04</pdfrwt>
<totfact> 0.57583913E+01</totfact>
</mgrwt>
</event>
<event>
12    5  0.5197392E-008  0.1533578E+04  0.7818608E-02  0.8862426E-01
         -2   -1    0    0    0  501 -0.00000000000E+00  0.00000000000E+00  0.70744910595E+03  0.70744910595E+03  0.00000000000E+00 0.  1.
          1   -1    0    0  501    0  0.00000000000E+00 -0.00000000000E+00 -0.83110595706E+03  0.83110595706E+03  0.00000000000E+00 0. -1.
        -24    2    1    2    0    0  0.22486420531E+02  0.51090101788E+03 -0.10054591055E+03  0.52742376253E+03  0.80875558624E+02 0.  0.
        254    2    1    2    0    0 -0.22486420531E+02 -0.51090101788E+03 -0.23110940565E+02  0.10111313005E+04  0.87196725973E+03 0.  0.
         23    2    4    4    0    0  0.34213312287E+03 -0.42495125877E+03 -0.19744196599E+03  0.58751063877E+03  0.92448767589E+02 0.  0.
         23    2    4    4    0    0 -0.36461954341E+03 -0.85949759103E+02  0.17433102543E+03  0.42362066170E+03  0.93425831934E+02 0.  0.
          1    1    3    3  502    0  0.37852739317E+02  0.44394621960E+03 -0.65631944450E+02  0.45036499409E+03  0.00000000000E+00 0. -1.
         -2    1    3    3    0  502 -0.15366318786E+02  0.66954798273E+02 -0.34913966096E+02  0.77058768439E+02  0.00000000000E+00 0.  1.
         13    1    5    5    0    0  0.32409795197E+03 -0.41477831350E+03 -0.20579447218E+03  0.56518306468E+03  0.00000000000E+00 0.  1.
        -13    1    5    5    0    0  0.18035170899E+02 -0.10172945272E+02  0.83525061864E+01  0.22327574084E+02  0.00000000000E+00 0. -1.
          3    1    6    6  503    0 -0.21456583335E+03 -0.96313482061E+02  0.11663468679E+03  0.26252320627E+03  0.00000000000E+00 0. -1.
         -3    1    6    6    0  503 -0.15005371006E+03  0.10363722958E+02  0.57696338641E+02  0.16109745544E+03  0.00000000000E+00 0.  1.
<mgrwt>
<rscale>  0 0.15335777E+04</rscale>
<asrwt>0</asrwt>
<pdfrwt beam="1">  1        1 0.12786245E+00 0.15335777E+04</pdfrwt>
<pdfrwt beam="2">  1       -2 0.10883832E+00 0.15335777E+04</pdfrwt>
<totfact> 0.11841250E+01</totfact>
</mgrwt>
</event>
<event>
12    5  0.5197392E-008  0.1526579E+04  0.7818608E-02  0.8866968E-01
          1   -1    0    0  501    0  0.00000000000E+00  0.00000000000E+00  0.22127098192E+04  0.22127098192E+04  0.00000000000E+00 0. -1.
         -2   -1    0    0    0  501 -0.00000000000E+00 -0.00000000000E+00 -0.26330192317E+03  0.26330192317E+03  0.00000000000E+00 0.  1.
        -24    2    1    2    0    0 -0.39178923078E+03  0.22503373559E+03  0.32390395032E+03  0.56152688571E+03  0.79118207966E+02 0.  0.
        254    2    1    2    0    0  0.39178923078E+03 -0.22503373559E+03  0.16255039457E+04  0.19144848567E+04  0.90490342323E+03 0.  0.
         23    2    4    4    0    0  0.56748990151E+03 -0.17560385279E+03  0.53384336168E+03  0.80376365374E+03  0.90364676876E+02 0.  0.
         23    2    4    4    0    0 -0.17570067073E+03 -0.49429882797E+02  0.10916605841E+04  0.11107212030E+04  0.93084482488E+02 0.  0.
          3    1    3    3  502    0 -0.32435210792E+03  0.20838153651E+03  0.24682287095E+03  0.45776487884E+03  0.00000000000E+00 0. -1.
         -4    1    3    3    0  502 -0.67437122861E+02  0.16652199077E+02  0.77081079361E+02  0.10376200687E+03  0.00000000000E+00 0.  1.
         13    1    5    5    0    0  0.43291146653E+03 -0.95544714411E+02  0.41396079198E+03  0.60655145503E+03  0.00000000000E+00 0. -1.
        -13    1    5    5    0    0  0.13457843499E+03 -0.80059138379E+02  0.11988256970E+03  0.19721219871E+03  0.00000000000E+00 0.  1.
          1    1    6    6  503    0 -0.88110152211E+02 -0.47402776583E+02  0.35372787445E+03  0.36760553765E+03  0.00000000000E+00 0. -1.
         -1    1    6    6    0  503 -0.87590518520E+02 -0.20271062139E+01  0.73793270962E+03  0.74311566530E+03  0.00000000000E+00 0.  1.
<mgrwt>
<rscale>  0 0.15265789E+04</rscale>
<asrwt>0</asrwt>
<pdfrwt beam="1">  1        1 0.34041688E+00 0.15265789E+04</pdfrwt>
<pdfrwt beam="2">  1       -2 0.40507990E-01 0.15265789E+04</pdfrwt>
<totfact> 0.10454296E+01</totfact>
</mgrwt>
</event>
<event>
12    5  0.5197392E-008  0.1744594E+04  0.7818608E-02  0.8736332E-01
          1   -1    0    0  501    0  0.00000000000E+00  0.00000000000E+00  0.10648830965E+04  0.10648830965E+04  0.00000000000E+00 0. -1.
         -2   -1    0    0    0  501 -0.00000000000E+00 -0.00000000000E+00 -0.71454049991E+03  0.71454049991E+03  0.00000000000E+00 0.  1.
        -24    2    1    2    0    0  0.17732043505E+03 -0.58851315047E+03  0.62200896289E+02  0.62307337071E+03  0.81001289056E+02 0.  0.
        254    2    1    2    0    0 -0.17732043505E+03  0.58851315047E+03  0.28814170030E+03  0.11563502257E+04  0.93612495963E+03 0.  0.
         23    2    4    4    0    0  0.18800185841E+03  0.58079894795E+02  0.43756442697E+03  0.48898709227E+03  0.94486907610E+02 0.  0.
         23    2    4    4    0    0 -0.36532229347E+03  0.53043325568E+03 -0.14942272666E+03  0.66736313343E+03  0.90700516996E+02 0.  0.
          3    1    3    3  502    0  0.17286992263E+02 -0.18464798440E+03  0.13783140360E+02  0.18596691427E+03  0.00000000000E+00 0. -1.
         -4    1    3    3    0  502  0.16003344279E+03 -0.40386516607E+03  0.48417755929E+02  0.43710645645E+03  0.00000000000E+00 0.  1.
         13    1    5    5    0    0 -0.30384681563E+01  0.14826679946E+02  0.85756935276E+01  0.17395552490E+02  0.00000000000E+00 0. -1.
        -13    1    5    5    0    0  0.19104032657E+03  0.43253214849E+02  0.42898873344E+03  0.47159153978E+03  0.00000000000E+00 0.  1.
          3    1    6    6  503    0 -0.21594666888E+03  0.35243290146E+03 -0.56816760651E+02  0.41721703959E+03  0.00000000000E+00 0. -1.
         -3    1    6    6    0  503 -0.14937562458E+03  0.17800035421E+03 -0.92605966014E+02  0.25014609383E+03  0.00000000000E+00 0.  1.
<mgrwt>
<rscale>  0 0.17445941E+04</rscale>
<asrwt>0</asrwt>
<pdfrwt beam="1">  1        1 0.16382817E+00 0.17445941E+04</pdfrwt>
<pdfrwt beam="2">  1       -2 0.10992931E+00 0.17445941E+04</pdfrwt>
<totfact> 0.73741862E+00</totfact>
</mgrwt>
</event>
<event>
12    5  0.5197392E-008  0.1395704E+04  0.7818608E-02  0.8956934E-01
          1   -1    0    0  501    0  0.00000000000E+00  0.00000000000E+00  0.36048103564E+04  0.36048103564E+04  0.00000000000E+00 0. -1.
         -2   -1    0    0    0  501 -0.00000000000E+00 -0.00000000000E+00 -0.13509649139E+03  0.13509649139E+03  0.00000000000E+00 0.  1.
        -24    2    1    2    0    0  0.21897826204E+03  0.28334742630E+03  0.15738778203E+04  0.16160027900E+04  0.78335056551E+02 0.  0.
        254    2    1    2    0    0 -0.21897826204E+03 -0.28334742630E+03  0.18958360447E+04  0.21239040577E+04  0.88799599923E+03 0.  0.
         23    2    4    4    0    0 -0.31377460799E+03 -0.51110635439E+03  0.84160277579E+03  0.10374697976E+04  0.91455665075E+02 0.  0.
         23    2    4    4    0    0  0.94796345941E+02  0.22775892809E+03  0.10542332689E+04  0.10864342601E+04  0.89839521435E+02 0.  0.
          3    1    3    3  502    0  0.13406558568E+03  0.10999911913E+03  0.76594753365E+03  0.78533369454E+03  0.00000000000E+00 0. -1.
         -4    1    3    3    0  502  0.84912676362E+02  0.17334830717E+03  0.80793028661E+03  0.83066909550E+03  0.00000000000E+00 0.  1.
         13    1    5    5    0    0 -0.16537864309E+02 -0.84888132989E+02  0.10504684540E+03  0.13606739435E+03  0.00000000000E+00 0.  1.
        -13    1    5    5    0    0 -0.29723674368E+03 -0.42621822140E+03  0.73655593039E+03  0.90140240328E+03  0.00000000000E+00 0. -1.
          2    1    6    6  503    0  0.86592338047E+02  0.23546092944E+03  0.10199519593E+04  0.10503533128E+04  0.00000000000E+00 0. -1.
         -2    1    6    6    0  503  0.82040078937E+01 -0.77020013562E+01  0.34281309607E+02  0.36080947310E+02  0.00000000000E+00 0.  1.
<mgrwt>
<rscale>  0 0.13957037E+04</rscale>
<asrwt>0</asrwt>
<pdfrwt beam="1">  1        1 0.55458614E+00 0.13957037E+04</pdfrwt>
<pdfrwt beam="2">  1       -2 0.20784078E-01 0.13957037E+04</pdfrwt>
<totfact> 0.35849723E+00</totfact>
</mgrwt>
</event>
<event>
12    5  0.5197392E-008  0.1364412E+04  0.7818608E-02  0.8979989E-01
         -2   -1    0    0    0  501 -0.00000000000E+00  0.00000000000E+00  0.57583828019E+03  0.57583828019E+03  0.00000000000E+00 0.  1.
          1   -1    0    0  501    0  0.00000000000E+00 -0.00000000000E+00 -0.80822194596E+03  0.80822194596E+03  0.00000000000E+00 0. -1.
        -24    2    1    2    0    0  0.19241890493E+03 -0.29808930336E+03 -0.19239074446E+03  0.41061365162E+03  0.75545381038E+02 0.  0.
        254    2    1    2    0    0 -0.19241890493E+03  0.29808930336E+03 -0.39992921307E+02  0.97344657453E+03  0.90560285554E+03 0.  0.
         23    2    4    4    0    0 -0.18200110936E+03 -0.23932096814E+03  0.20565083506E+03  0.37558932903E+03  0.91521300915E+02 0.  0.
         23    2    4    4    0    0 -0.10417795565E+02  0.53741027150E+03 -0.24564375636E+03  0.59785724549E+03  0.90410732623E+02 0.  0.
          3    1    3    3  502    0  0.15768203969E+03 -0.26219525268E+03 -0.19092558565E+03  0.36064186588E+03  0.00000000000E+00 0. -1.
         -4    1    3    3    0  502  0.34736865238E+02 -0.35894050671E+02 -0.14651588186E+01  0.49971785745E+02  0.00000000000E+00 0.  1.
         13    1    5    5    0    0 -0.18429487029E+03 -0.22564033254E+03  0.21202518431E+03  0.36032324053E+03  0.00000000000E+00 0. -1.
        -13    1    5    5    0    0  0.22937609276E+01 -0.13680635604E+02 -0.63743492552E+01  0.15266088502E+02  0.00000000000E+00 0.  1.
          4    1    6    6  503    0 -0.15548758212E+02  0.35124420742E+03 -0.11332460203E+03  0.36940049073E+03  0.00000000000E+00 0. -1.
         -4    1    6    6    0  503  0.51309626477E+01  0.18616606407E+03 -0.13231915434E+03  0.22845675476E+03  0.00000000000E+00 0.  1.
<mgrwt>
<rscale>  0 0.13644122E+04</rscale>
<asrwt>0</asrwt>
<pdfrwt beam="1">  1        1 0.12434184E+00 0.13644122E+04</pdfrwt>
<pdfrwt beam="2">  1       -2 0.88590505E-01 0.13644122E+04</pdfrwt>
<totfact> 0.20419790E+01</totfact>
</mgrwt>
</event>
<event>
12    5  0.5197392E-008  0.2368411E+04  0.7818608E-02  0.8451425E-01
          3   -1    0    0  501    0  0.00000000000E+00  0.00000000000E+00  0.85919239217E+03  0.85919239217E+03  0.00000000000E+00 0. -1.
         -4   -1    0    0    0  501 -0.00000000000E+00 -0.00000000000E+00 -0.16321639509E+04  0.16321639509E+04  0.00000000000E+00 0.  1.
        -24    2    1    2    0    0 -0.60068152178E+03 -0.26351964468E+03 -0.11367200250E+04  0.13149231082E+04  0.81421566675E+02 0.  0.
        254    2    1    2    0    0  0.60068152178E+03  0.26351964468E+03  0.36374846621E+03  0.11764332349E+04  0.90632296440E+03 0.  0.
         23    2    4    4    0    0  0.50624542278E+03 -0.24515686087E+03  0.31041570167E+03  0.64823010999E+03  0.86360020505E+02 0.  0.
         23    2    4    4    0    0  0.94436099004E+02  0.50867650555E+03  0.53332764537E+02  0.52820312492E+03  0.92109680862E+02 0.  0.
          3    1    3    3  502    0 -0.68118722073E+02 -0.39955163412E+02 -0.19231014550E+03  0.20789364455E+03  0.00000000000E+00 0. -1.
         -4    1    3    3    0  502 -0.53256279971E+03 -0.22356448127E+03 -0.94440987948E+03  0.11070294636E+04  0.00000000000E+00 0.  1.
         13    1    5    5    0    0  0.18904255063E+03 -0.10417506244E+03  0.73715300544E+02  0.22808655181E+03  0.00000000000E+00 0.  1.
        -13    1    5    5    0    0  0.31720287215E+03 -0.14098179843E+03  0.23670040112E+03  0.42014355818E+03  0.00000000000E+00 0. -1.
          4    1    6    6  503    0  0.35303294500E+02  0.15636448328E+03 -0.25640870396E+02  0.16233800685E+03  0.00000000000E+00 0. -1.
         -4    1    6    6    0  503  0.59132804504E+02  0.35231202228E+03  0.78973634934E+02  0.36586511807E+03  0.00000000000E+00 0.  1.
<mgrwt>
<rscale>  0 0.23684112E+04</rscale>
<asrwt>0</asrwt>
<pdfrwt beam="1">  1        3 0.13218345E+00 0.23684112E+04</pdfrwt>
<pdfrwt beam="2">  1       -4 0.25110214E+00 0.23684112E+04</pdfrwt>
<totfact> 0.56995489E-02</totfact>
</mgrwt>
</event>
<event>
12    5  0.5197392E-008  0.1370334E+04  0.7818608E-02  0.8975577E-01
         -2   -1    0    0    0  501 -0.00000000000E+00  0.00000000000E+00  0.78836248529E+03  0.78836248529E+03  0.00000000000E+00 0.  1.
          1   -1    0    0  501    0  0.00000000000E+00 -0.00000000000E+00 -0.59547952187E+03  0.59547952187E+03  0.00000000000E+00 0. -1.
        -24    2    1    2    0    0  0.82334733626E+02  0.12700491629E+03  0.42755662837E+03  0.46054328720E+03  0.79913652106E+02 0.  0.
        254    2    1    2    0    0 -0.82334733626E+02 -0.12700491629E+03 -0.23467366496E+03  0.92329871996E+03  0.88005655508E+03 0.  0.
         23    2    4    4    0    0 -0.38800950918E+03 -0.40203490201E+01  0.13439175410E+03  0.42024325445E+03  0.89306813399E+02 0.  0.
         23    2    4    4    0    0  0.30567477555E+03 -0.12298456727E+03 -0.36906541906E+03  0.50305546551E+03  0.91067258897E+02 0.  0.
          3    1    3    3  502    0 -0.66185050593E+01 -0.51670979146E+01  0.73887945049E+01  0.11184712527E+02  0.00000000000E+00 0. -1.
         -4    1    3    3    0  502  0.88953238685E+02  0.13217201420E+03  0.42016783387E+03  0.44935857467E+03  0.00000000000E+00 0.  1.
         13    1    5    5    0    0 -0.36723666602E+02  0.22793418352E+02  0.30623790181E+02  0.52971540793E+02  0.00000000000E+00 0.  1.
        -13    1    5    5    0    0 -0.35128584258E+03 -0.26813767372E+02  0.10376796392E+03  0.36727171366E+03  0.00000000000E+00 0. -1.
          3    1    6    6  503    0  0.22899659850E+03 -0.65675834012E+02 -0.30850562669E+03  0.38978003925E+03  0.00000000000E+00 0. -1.
         -3    1    6    6    0  503  0.76678177050E+02 -0.57308733256E+02 -0.60559792365E+02  0.11327542626E+03  0.00000000000E+00 0.  1.
<mgrwt>
<rscale>  0 0.13703339E+04</rscale>
<asrwt>0</asrwt>
<pdfrwt beam="1">  1        1 0.91612234E-01 0.13703339E+04</pdfrwt>
<pdfrwt beam="2">  1       -2 0.12128654E+00 0.13703339E+04</pdfrwt>
<totfact> 0.15307315E+01</totfact>
</mgrwt>
</event>
<event>
12    5  0.5197392E-008  0.1399660E+04  0.7818608E-02  0.8954064E-01
          1   -1    0    0  501    0  0.00000000000E+00  0.00000000000E+00  0.42635641650E+03  0.42635641650E+03  0.00000000000E+00 0. -1.
         -2   -1    0    0    0  501 -0.00000000000E+00 -0.00000000000E+00 -0.11487157830E+04  0.11487157830E+04  0.00000000000E+00 0.  1.
        -24    2    1    2    0    0 -0.31860049163E+03 -0.24287680904E+03 -0.24783174419E+03  0.47783986369E+03  0.80093347193E+02 0.  0.
        254    2    1    2    0    0  0.31860049163E+03  0.24287680904E+03 -0.47452762232E+03  0.10972323358E+04  0.90457001763E+03 0.  0.
         23    2    4    4    0    0 -0.17445402362E+03  0.26844135544E+01  0.16022545824E+03  0.25353904914E+03  0.90379419871E+02 0.  0.
         23    2    4    4    0    0  0.49305451525E+03  0.24019239549E+03 -0.63475308056E+03  0.84369328668E+03  0.90065236624E+02 0.  0.
          3    1    3    3  502    0 -0.85585498353E+02 -0.11205329462E+03 -0.94642075169E+02  0.16981737472E+03  0.00000000000E+00 0. -1.
         -4    1    3    3    0  502 -0.23301499328E+03 -0.13082351442E+03 -0.15318966902E+03  0.30802248897E+03  0.00000000000E+00 0.  1.
         13    1    5    5    0    0 -0.13134755218E+03 -0.30820938422E+02  0.81128435988E+02  0.15742913591E+03  0.00000000000E+00 0. -1.
        -13    1    5    5    0    0 -0.43106471446E+02  0.33505351976E+02  0.79097022253E+02  0.96109913229E+02  0.00000000000E+00 0.  1.
          3    1    6    6  503    0  0.25840240279E+03  0.17481954146E+03 -0.36825476660E+03  0.48264401681E+03  0.00000000000E+00 0. -1.
         -3    1    6    6    0  503  0.23465211246E+03  0.65372854028E+02 -0.26649831396E+03  0.36104926986E+03  0.00000000000E+00 0.  1.
<mgrwt>
<rscale>  0 0.13996605E+04</rscale>
<asrwt>0</asrwt>
<pdfrwt beam="1">  1        1 0.65593296E-01 0.13996605E+04</pdfrwt>
<pdfrwt beam="2">  1       -2 0.17672550E+00 0.13996605E+04</pdfrwt>
<totfact> 0.89599964E+00</totfact>
</mgrwt>
</event>
<event>
12    5  0.5197392E-008  0.2160499E+04  0.7818608E-02  0.8535051E-01
         -2   -1    0    0    0  501 -0.00000000000E+00  0.00000000000E+00  0.69690397595E+03  0.69690397595E+03  0.00000000000E+00 0.  1.
          1   -1    0    0  501    0  0.00000000000E+00 -0.00000000000E+00 -0.16744620368E+04  0.16744620368E+04  0.00000000000E+00 0. -1.
        -24    2    1    2    0    0  0.72686436201E+03 -0.34750420964E+03  0.42174158989E+02  0.81092951702E+03  0.82079506685E+02 0.  0.
        254    2    1    2    0    0 -0.72686436201E+03  0.34750420964E+03 -0.10197322198E+04  0.15604364957E+04  0.86372291885E+03 0.  0.
         23    2    4    4    0    0 -0.76657416735E+02 -0.19364713161E+03  0.56116285726E+01  0.22825269530E+03  0.93232137247E+02 0.  0.
         23    2    4    4    0    0 -0.65020694527E+03  0.54115134125E+03 -0.10253438484E+04  0.13321838004E+04  0.88146609906E+02 0.  0.
          1    1    3    3  502    0  0.96762001318E+02 -0.78918199620E+02  0.50243415968E+01  0.12496483961E+03  0.00000000000E+00 0. -1.
         -2    1    3    3    0  502  0.63010236069E+03 -0.26858601002E+03  0.37149817393E+02  0.68596467741E+03  0.00000000000E+00 0.  1.
         13    1    5    5    0    0 -0.85998304989E+02 -0.91598383584E+02  0.35787920911E+00  0.12564274915E+03  0.00000000000E+00 0.  1.
        -13    1    5    5    0    0  0.93408882537E+01 -0.10204874802E+03  0.52537493635E+01  0.10260994615E+03  0.00000000000E+00 0. -1.
          2    1    6    6  503    0 -0.37452970538E+03  0.26530715198E+03 -0.51402292380E+03  0.68911533962E+03  0.00000000000E+00 0. -1.
         -2    1    6    6    0  503 -0.27567723990E+03  0.27584418927E+03 -0.51132092461E+03  0.64306846082E+03  0.00000000000E+00 0.  1.
<mgrwt>
<rscale>  0 0.21604992E+04</rscale>
<asrwt>0</asrwt>
<pdfrwt beam="1">  1        1 0.25760954E+00 0.21604992E+04</pdfrwt>
<pdfrwt beam="2">  1       -2 0.10721600E+00 0.21604992E+04</pdfrwt>
<totfact> 0.27860786E+00</totfact>
</mgrwt>
</event>
<event>
12    5  0.5197392E-008  0.1277209E+04  0.7818608E-02  0.9047836E-01
         -2   -1    0    0    0  501 -0.00000000000E+00  0.00000000000E+00  0.12227472067E+04  0.12227472067E+04  0.00000000000E+00 0.  1.
          1   -1    0    0  501    0  0.00000000000E+00 -0.00000000000E+00 -0.33352433361E+03  0.33352433361E+03  0.00000000000E+00 0. -1.
        -24    2    1    2    0    0  0.27523198660E+03  0.87370273988E+02  0.38407612059E+03  0.48721889671E+03  0.80508233602E+02 0.  0.
        254    2    1    2    0    0 -0.27523198660E+03 -0.87370273988E+02  0.50514675248E+03  0.10690526436E+04  0.89683560476E+03 0.  0.
         23    2    4    4    0    0 -0.43624989897E+03  0.16919900569E+03  0.57323578805E+03  0.74541287426E+03  0.89993369385E+02 0.  0.
         23    2    4    4    0    0  0.16101791237E+03 -0.25656927968E+03 -0.68089035567E+02  0.32363976932E+03  0.91389387468E+02 0.  0.
          1    1    3    3  502    0  0.15088788035E+03  0.75849774917E+02  0.17159798938E+03  0.24076173025E+03  0.00000000000E+00 0. -1.
         -2    1    3    3    0  502  0.12434410625E+03  0.11520499071E+02  0.21247813122E+03  0.24645716647E+03  0.00000000000E+00 0.  1.
         13    1    5    5    0    0 -0.34886518789E+03  0.17149123783E+03  0.47859633298E+03  0.61657977092E+03  0.00000000000E+00 0. -1.
        -13    1    5    5    0    0 -0.87384711081E+02 -0.22922321373E+01  0.94639455071E+02  0.12883310334E+03  0.00000000000E+00 0.  1.
          2    1    6    6  503    0  0.31947956354E+02 -0.21157414275E+02  0.17120013727E+02  0.41969071517E+02  0.00000000000E+00 0.  1.
         -2    1    6    6    0  503  0.12906995601E+03 -0.23541186540E+03 -0.85209049294E+02  0.28167069780E+03  0.00000000000E+00 0. -1.
<mgrwt>
<rscale>  0 0.12772094E+04</rscale>
<asrwt>0</asrwt>
<pdfrwt beam="1">  1        1 0.51311436E-01 0.12772094E+04</pdfrwt>
<pdfrwt beam="2">  1       -2 0.18811495E+00 0.12772094E+04</pdfrwt>
<totfact> 0.10455753E+01</totfact>
</mgrwt>
</event>
<event>
12    5  0.5197392E-008  0.1999921E+04  0.7818608E-02  0.8606658E-01
         -2   -1    0    0    0  501 -0.00000000000E+00  0.00000000000E+00  0.64312854069E+03  0.64312854069E+03  0.00000000000E+00 0.  1.
          1   -1    0    0  501    0  0.00000000000E+00 -0.00000000000E+00 -0.15547761980E+04  0.15547761980E+04  0.00000000000E+00 0. -1.
        -24    2    1    2    0    0 -0.63129600460E+03 -0.86822649311E+02  0.10859639648E+03  0.65132589952E+03  0.79746048189E+02 0.  0.
        254    2    1    2    0    0  0.63129600460E+03  0.86822649311E+02 -0.10202440538E+04  0.15465788391E+04  0.97207785623E+03 0.  0.
         23    2    4    4    0    0  0.35039481780E+03  0.19326678988E+03  0.66253902314E+02  0.41587536596E+03  0.91837683035E+02 0.  0.
         23    2    4    4    0    0  0.28090118679E+03 -0.10644414057E+03 -0.10864979561E+04  0.11307034732E+04  0.88185621882E+02 0.  0.
          3    1    3    3  502    0 -0.15830340218E+03 -0.21220098296E+01  0.56041671072E+02  0.16794385658E+03  0.00000000000E+00 0. -1.
         -4    1    3    3    0  502 -0.47299260242E+03 -0.84700639482E+02  0.52554725408E+02  0.48338204294E+03  0.00000000000E+00 0.  1.
         13    1    5    5    0    0  0.32822767447E+03  0.19080210875E+03  0.40506579227E+02  0.38181099245E+03  0.00000000000E+00 0. -1.
        -13    1    5    5    0    0  0.22167143330E+02  0.24646811284E+01  0.25747323086E+02  0.34064373510E+02  0.00000000000E+00 0.  1.
          1    1    6    6  503    0  0.12335843134E+03 -0.84350890500E+02 -0.62269516989E+03  0.64037617844E+03  0.00000000000E+00 0. -1.
         -1    1    6    6    0  503  0.15754275545E+03 -0.22093250066E+02 -0.46380278618E+03  0.49032729474E+03  0.00000000000E+00 0.  1.
<mgrwt>
<rscale>  0 0.19999209E+04</rscale>
<asrwt>0</asrwt>
<pdfrwt beam="1">  1        1 0.23919634E+00 0.19999209E+04</pdfrwt>
<pdfrwt beam="2">  1       -2 0.98942853E-01 0.19999209E+04</pdfrwt>
<totfact> 0.41349868E+00</totfact>
</mgrwt>
</event>
<event>
12    5  0.5197392E-008  0.1288910E+04  0.7818608E-02  0.9038406E-01
         -2   -1    0    0    0  501 -0.00000000000E+00  0.00000000000E+00  0.33972258815E+03  0.33972258815E+03  0.00000000000E+00 0.  1.
          1   -1    0    0  501    0  0.00000000000E+00 -0.00000000000E+00 -0.12225335228E+04  0.12225335228E+04  0.00000000000E+00 0. -1.
        -24    2    1    2    0    0  0.13425326604E+03 -0.28894038811E+03 -0.30769777841E+03  0.44917174531E+03  0.74611303570E+02 0.  0.
        254    2    1    2    0    0 -0.13425326604E+03  0.28894038811E+03 -0.57511315626E+03  0.11130843657E+04  0.89815988291E+03 0.  0.
         23    2    4    4    0    0  0.20077789703E+03  0.48903315690E+03 -0.22752402411E+03  0.58257518021E+03  0.90340835558E+02 0.  0.
         23    2    4    4    0    0 -0.33503116306E+03 -0.20009276879E+03 -0.34758913216E+03  0.53050918546E+03  0.91317001263E+02 0.  0.
          3    1    3    3  502    0  0.14115974974E+03 -0.24738845419E+03 -0.27405438962E+03  0.39526311577E+03  0.00000000000E+00 0. -1.
         -4    1    3    3    0  502 -0.69064837060E+01 -0.41551933925E+02 -0.33643388782E+02  0.53908629540E+02  0.00000000000E+00 0.  1.
         13    1    5    5    0    0  0.54327557657E+02  0.17486677371E+03 -0.12280207378E+03  0.22047725822E+03  0.00000000000E+00 0.  1.
        -13    1    5    5    0    0  0.14645033937E+03  0.31416638320E+03 -0.10472195033E+03  0.36209792200E+03  0.00000000000E+00 0. -1.
          4    1    6    6  503    0 -0.31658342910E+03 -0.18315276109E+03 -0.28686957370E+03  0.46482701491E+03  0.00000000000E+00 0. -1.
         -4    1    6    6    0  503 -0.18447733966E+02 -0.16940007693E+02 -0.60719558453E+02  0.65682170548E+02  0.00000000000E+00 0.  1.
<mgrwt>
<rscale>  0 0.12889100E+04</rscale>
<asrwt>0</asrwt>
<pdfrwt beam="1">  1        1 0.18808208E+00 0.12889100E+04</pdfrwt>
<pdfrwt beam="2">  1       -2 0.52265013E-01 0.12889100E+04</pdfrwt>
<totfact> 0.30658194E+01</totfact>
</mgrwt>
</event>
<event>
12    5  0.5197392E-008  0.1918961E+04  0.7818608E-02  0.8645476E-01
          1   -1    0    0  501    0  0.00000000000E+00  0.00000000000E+00  0.53576560019E+03  0.53576560019E+03  0.00000000000E+00 0. -1.
         -4   -1    0    0    0  501 -0.00000000000E+00 -0.00000000000E+00 -0.17182932509E+04  0.17182932509E+04  0.00000000000E+00 0.  1.
        -24    2    1    2    0    0  0.20639531049E+03  0.53068002088E+03  0.10676843272E+03  0.58487085545E+03  0.80337479318E+02 0.  0.
        254    2    1    2    0    0 -0.20639531049E+03 -0.53068002088E+03 -0.12892960834E+04  0.16691879956E+04  0.89425044885E+03 0.  0.
         23    2    4    4    0    0  0.28825114837E+03 -0.27573676841E+03 -0.88577531068E+03  0.97568045436E+03  0.90746669481E+02 0.  0.
         23    2    4    4    0    0 -0.49464645885E+03 -0.25494325247E+03 -0.40352077276E+03  0.69350754128E+03  0.91937557785E+02 0.  0.
          1    1    3    3  502    0  0.96947856849E+02  0.35527477781E+03  0.65627570978E+02  0.37406688275E+03  0.00000000000E+00 0. -1.
         -2    1    3    3    0  502  0.10944745364E+03  0.17540524306E+03  0.41140861741E+02  0.21080397270E+03  0.00000000000E+00 0.  1.
         13    1    5    5    0    0  0.24278925639E+03 -0.18465667433E+03 -0.61723992496E+03  0.68849824645E+03  0.00000000000E+00 0. -1.
        -13    1    5    5    0    0  0.45461891979E+02 -0.91080094074E+02 -0.26853538571E+03  0.28718220791E+03  0.00000000000E+00 0.  1.
          4    1    6    6  503    0 -0.41026949151E+03 -0.23356175028E+03 -0.37158838406E+03  0.60079120668E+03  0.00000000000E+00 0. -1.
         -4    1    6    6    0  503 -0.84376967343E+02 -0.21381502184E+02 -0.31932388706E+02  0.92716334603E+02  0.00000000000E+00 0.  1.
<mgrwt>
<rscale>  0 0.19189606E+04</rscale>
<asrwt>0</asrwt>
<pdfrwt beam="1">  1        1 0.82425478E-01 0.19189606E+04</pdfrwt>
<pdfrwt beam="2">  1       -4 0.26435281E+00 0.19189606E+04</pdfrwt>
<totfact> 0.92407348E-01</totfact>
</mgrwt>
</event>
<event>
12    5  0.5197392E-008  0.2259973E+04  0.7818608E-02  0.8493872E-01
         -4   -1    0    0    0  501 -0.00000000000E+00  0.00000000000E+00  0.57914903788E+03  0.57914903788E+03  0.00000000000E+00 0.  1.
          3   -1    0    0  501    0  0.00000000000E+00 -0.00000000000E+00 -0.22047343440E+04  0.22047343440E+04  0.00000000000E+00 0. -1.
        -24    2    1    2    0    0  0.54079175151E+03 -0.73589174451E+03 -0.37377581082E+03  0.98966627217E+03  0.75753517301E+02 0.  0.
        254    2    1    2    0    0 -0.54079175151E+03  0.73589174451E+03 -0.12518094953E+04  0.17942171097E+04  0.90454167737E+03 0.  0.
         23    2    4    4    0    0  0.32514187529E+02  0.10893428619E+02  0.11155888927E+03  0.14492751356E+03  0.85922984311E+02 0.  0.
         23    2    4    4    0    0 -0.57330593904E+03  0.72499831589E+03 -0.13633683845E+04  0.16492895961E+04  0.84146076198E+02 0.  0.
          1    1    3    3  502    0  0.22365841910E+03 -0.30573699834E+03 -0.19556320418E+03  0.42631346145E+03  0.00000000000E+00 0. -1.
         -2    1    3    3    0  502  0.31713333241E+03 -0.43015474617E+03 -0.17821260664E+03  0.56335281072E+03  0.00000000000E+00 0.  1.
         13    1    5    5    0    0  0.51847249178E+02  0.67864444940E+01  0.11360130655E+03  0.12505778634E+03  0.00000000000E+00 0. -1.
        -13    1    5    5    0    0 -0.19333061649E+02  0.41069841250E+01 -0.20424172724E+01  0.19869727216E+02  0.00000000000E+00 0.  1.
          3    1    6    6  503    0 -0.48268210049E+03  0.61397612599E+03 -0.10939544342E+04  0.13441298292E+04  0.00000000000E+00 0. -1.
         -3    1    6    6    0  503 -0.90623838552E+02  0.11102218990E+03 -0.26941395030E+03  0.30515976697E+03  0.00000000000E+00 0.  1.
<mgrwt>
<rscale>  0 0.22599733E+04</rscale>
<asrwt>0</asrwt>
<pdfrwt beam="1">  1        3 0.33918990E+00 0.22599733E+04</pdfrwt>
<pdfrwt beam="2">  1       -4 0.89099852E-01 0.22599733E+04</pdfrwt>
<totfact> 0.53324901E-02</totfact>
</mgrwt>
</event>
<event>
12    5  0.6264833E-008  0.2006395E+04  0.7818608E-02  0.8603637E-01
         -2   -1    0    0    0  501 -0.00000000000E+00  0.00000000000E+00  0.69674578190E+03  0.69674578190E+03  0.00000000000E+00 0.  1.
          1   -1    0    0  501    0  0.00000000000E+00 -0.00000000000E+00 -0.14444365730E+04  0.14444365730E+04  0.00000000000E+00 0. -1.
        -24    2    1    2    0    0  0.59532007601E+03 -0.39839015523E+03  0.12326527054E+03  0.73062369013E+03  0.74134613827E+02 0.  0.
        254    2    1    2    0    0 -0.59532007601E+03  0.39839015523E+03 -0.87095606164E+03  0.14105586648E+04  0.84734324611E+03 0.  0.
         23    2    4    4    0    0 -0.71545690370E+03  0.43491842234E+02 -0.55488313550E+03  0.91091616867E+03  0.90015836928E+02 0.  0.
         23    2    4    4    0    0  0.12013682768E+03  0.35489831300E+03 -0.31607292614E+03  0.49964249609E+03  0.96720521732E+02 0.  0.
          1    1    3    3  502    0  0.19950275183E+02 -0.26398213090E+02  0.17270237031E+02  0.37324793654E+02  0.00000000000E+00 0. -1.
         -2    1    3    3    0  502  0.57536980083E+03 -0.37199194214E+03  0.10599503351E+03  0.69329889648E+03  0.00000000000E+00 0.  1.
         13    1    5    5    0    0 -0.45476605403E+02  0.28635104169E+01 -0.67407816766E+02  0.81364212601E+02  0.00000000000E+00 0.  1.
        -13    1    5    5    0    0 -0.66998029829E+03  0.40628331817E+02 -0.48747531873E+03  0.82955195607E+03  0.00000000000E+00 0. -1.
          1    1    6    6  503    0  0.10468652745E+03  0.32928055493E+03 -0.24807382206E+03  0.42535346957E+03  0.00000000000E+00 0. -1.
         -1    1    6    6    0  503  0.15450300230E+02  0.25617758073E+02 -0.67999104076E+02  0.74289026518E+02  0.00000000000E+00 0.  1.
<mgrwt>
<rscale>  0 0.20063949E+04</rscale>
<asrwt>0</asrwt>
<pdfrwt beam="1">  1        1 0.22222101E+00 0.20063949E+04</pdfrwt>
<pdfrwt beam="2">  1       -2 0.10719166E+00 0.20063949E+04</pdfrwt>
<totfact> 0.40699490E+00</totfact>
</mgrwt>
</event>
<event>
12    5  0.5197392E-008  0.2045394E+04  0.7818608E-02  0.8585687E-01
          1   -1    0    0  501    0  0.00000000000E+00  0.00000000000E+00  0.36350000001E+04  0.36350000001E+04  0.00000000000E+00 0. -1.
         -2   -1    0    0    0  501 -0.00000000000E+00 -0.00000000000E+00 -0.28773283384E+03  0.28773283384E+03  0.00000000000E+00 0.  1.
        -24    2    1    2    0    0  0.68252317580E+03  0.37280204235E+03  0.83033087460E+03  0.11404470881E+04  0.79692855218E+02 0.  0.
        254    2    1    2    0    0 -0.68252317580E+03 -0.37280204235E+03  0.25169362916E+04  0.27822857458E+04  0.89516837909E+03 0.  0.
         23    2    4    4    0    0 -0.10682143902E+03 -0.54560403649E+03  0.98900538721E+03  0.11381120002E+04  0.89848119289E+02 0.  0.
         23    2    4    4    0    0 -0.57570173678E+03  0.17280199414E+03  0.15279309044E+04  0.16441737456E+04  0.86263771303E+02 0.  0.
          1    1    3    3  502    0  0.98422686517E+02  0.66208125924E+02  0.90331448007E+02  0.14909832883E+03  0.00000000000E+00 0. -1.
         -2    1    3    3    0  502  0.58410048928E+03  0.30659391642E+03  0.73999942659E+03  0.99134875928E+03  0.00000000000E+00 0.  1.
         13    1    5    5    0    0 -0.81140464529E+02 -0.51804989254E+03  0.90274550906E+03  0.10439870307E+04  0.00000000000E+00 0.  1.
        -13    1    5    5    0    0 -0.25680974488E+02 -0.27554143947E+02  0.86259878152E+02  0.94124969472E+02  0.00000000000E+00 0. -1.
          4    1    6    6  503    0 -0.19909647998E+02  0.13849739665E+02  0.30055790173E+02  0.38620718469E+02  0.00000000000E+00 0. -1.
         -4    1    6    6    0  503 -0.55579208878E+03  0.15895225448E+03  0.14978751143E+04  0.16055530272E+04  0.00000000000E+00 0.  1.
<mgrwt>
<rscale>  0 0.20453937E+04</rscale>
<asrwt>0</asrwt>
<pdfrwt beam="1">  1        1 0.55923074E+00 0.20453937E+04</pdfrwt>
<pdfrwt beam="2">  1       -2 0.44266592E-01 0.20453937E+04</pdfrwt>
<totfact> 0.76963137E-01</totfact>
</mgrwt>
</event>
<event>
12    5  0.5197392E-008  0.1482738E+04  0.7818608E-02  0.8896014E-01
          1   -1    0    0  501    0  0.00000000000E+00  0.00000000000E+00  0.20443665983E+04  0.20443665983E+04  0.00000000000E+00 0. -1.
         -2   -1    0    0    0  501 -0.00000000000E+00 -0.00000000000E+00 -0.26884996438E+03  0.26884996438E+03  0.00000000000E+00 0.  1.
        -24    2    1    2    0    0 -0.20249874452E+03  0.16057437496E+03 -0.41648591637E+02  0.27362906790E+03  0.79676785747E+02 0.  0.
        254    2    1    2    0    0  0.20249874452E+03 -0.16057437496E+03  0.18171652256E+04  0.20395874948E+04  0.88940306974E+03 0.  0.
         23    2    4    4    0    0  0.53237062936E+03 -0.78592606409E+02  0.84626128470E+03  0.10068909062E+04  0.89865734790E+02 0.  0.
         23    2    4    4    0    0 -0.32987188484E+03 -0.81981768550E+02  0.97090394090E+03  0.10326965886E+04  0.90946747256E+02 0.  0.
          1    1    3    3  502    0 -0.15888386790E+01 -0.21071202292E+01  0.97095325243E+01  0.10061778463E+02  0.00000000000E+00 0. -1.
         -2    1    3    3    0  502 -0.20090990585E+03  0.16268149519E+03 -0.51358124161E+02  0.26356728944E+03  0.00000000000E+00 0.  1.
         13    1    5    5    0    0  0.31839722881E+03 -0.37628570322E+01  0.51529305012E+03  0.60573746946E+03  0.00000000000E+00 0.  1.
        -13    1    5    5    0    0  0.21397340055E+03 -0.74829749376E+02  0.33096823458E+03  0.40115343678E+03  0.00000000000E+00 0. -1.
          4    1    6    6  503    0 -0.43713306977E+02  0.12702429721E+02  0.19643725480E+03  0.20164275341E+03  0.00000000000E+00 0. -1.
         -4    1    6    6    0  503 -0.28615857786E+03 -0.94684198271E+02  0.77446668610E+03  0.83105383518E+03  0.00000000000E+00 0.  1.
<mgrwt>
<rscale>  0 0.14827379E+04</rscale>
<asrwt>0</asrwt>
<pdfrwt beam="1">  1        1 0.31451793E+00 0.14827379E+04</pdfrwt>
<pdfrwt beam="2">  1       -2 0.41361534E-01 0.14827379E+04</pdfrwt>
<totfact> 0.13103631E+01</totfact>
</mgrwt>
</event>
<event>
12    5  0.5197392E-008  0.1538421E+04  0.7818608E-02  0.8859298E-01
          3   -1    0    0  501    0  0.00000000000E+00  0.00000000000E+00  0.10669464147E+04  0.10669464147E+04  0.00000000000E+00 0. -1.
         -4   -1    0    0    0  501 -0.00000000000E+00 -0.00000000000E+00 -0.55455933359E+03  0.55455933359E+03  0.00000000000E+00 0.  1.
        -24    2    1    2    0    0  0.47781355358E+02  0.47388898499E+03  0.62731695329E+02  0.48713112038E+03  0.80669912802E+02 0.  0.
        254    2    1    2    0    0 -0.47781355358E+02 -0.47388898499E+03  0.44965538574E+03  0.11343746279E+04  0.92615441608E+03 0.  0.
         23    2    4    4    0    0  0.32891792201E+03  0.67041554403E+02  0.32031346971E+02  0.34935225469E+03  0.91320431631E+02 0.  0.
         23    2    4    4    0    0 -0.37669927737E+03 -0.54093053939E+03  0.41762403877E+03  0.78502237318E+03  0.85686023463E+02 0.  0.
          1    1    3    3  502    0  0.28300117253E+02  0.98835176987E+02  0.41827976425E+02  0.11099039805E+03  0.00000000000E+00 0. -1.
         -2    1    3    3    0  502  0.19481238106E+02  0.37505380800E+03  0.20903718904E+02  0.37614072234E+03  0.00000000000E+00 0.  1.
         13    1    5    5    0    0  0.76098304334E+02  0.39252527376E+02  0.40821029242E+02  0.94858153346E+02  0.00000000000E+00 0.  1.
        -13    1    5    5    0    0  0.25281961768E+03  0.27789027027E+02 -0.87896822719E+01  0.25449410135E+03  0.00000000000E+00 0. -1.
          3    1    6    6  503    0 -0.37003718769E+03 -0.49350415485E+03  0.38779409326E+03  0.72860011659E+03  0.00000000000E+00 0. -1.
         -3    1    6    6    0  503 -0.66620896817E+01 -0.47426384544E+02  0.29829945504E+02  0.56422256589E+02  0.00000000000E+00 0.  1.
<mgrwt>
<rscale>  0 0.15384214E+04</rscale>
<asrwt>0</asrwt>
<pdfrwt beam="1">  1        3 0.16414560E+00 0.15384214E+04</pdfrwt>
<pdfrwt beam="2">  1       -4 0.85316821E-01 0.15384214E+04</pdfrwt>
<totfact> 0.67469895E-01</totfact>
</mgrwt>
</event>
<event>
12    5  0.5197392E-008  0.3239683E+04  0.7818608E-02  0.8178415E-01
          1   -1    0    0  501    0  0.00000000000E+00  0.00000000000E+00  0.17012483941E+04  0.17012483941E+04  0.00000000000E+00 0. -1.
         -2   -1    0    0    0  501 -0.00000000000E+00 -0.00000000000E+00 -0.15423302719E+04  0.15423302719E+04  0.00000000000E+00 0.  1.
        -24    2    1    2    0    0  0.55328879156E+01 -0.11294220717E+04 -0.90522451124E+03  0.14501930452E+04  0.89462973632E+02 0.  0.
        254    2    1    2    0    0 -0.55328879156E+01  0.11294220717E+04  0.10641426335E+04  0.17933856208E+04  0.89900367717E+03 0.  0.
         23    2    4    4    0    0  0.25731668799E+03  0.10901810006E+04  0.10038691414E+04  0.15068710056E+04  0.90556516487E+02 0.  0.
         23    2    4    4    0    0 -0.26284957591E+03  0.39241071150E+02  0.60273492053E+02  0.28651461514E+03  0.88475813792E+02 0.  0.
          3    1    3    3  502    0 -0.12085388148E+02 -0.42292769041E+02 -0.20906073218E+02  0.48701117208E+02  0.00000000000E+00 0. -1.
         -4    1    3    3    0  502  0.17618276063E+02 -0.10871293027E+04 -0.88431843802E+03  0.14014919280E+04  0.00000000000E+00 0.  1.
         13    1    5    5    0    0  0.23629282792E+02  0.34108773919E+02  0.27735211080E+02  0.49909852707E+02  0.00000000000E+00 0.  1.
        -13    1    5    5    0    0  0.23368740520E+03  0.10560722266E+04  0.97613393032E+03  0.14569611529E+04  0.00000000000E+00 0. -1.
          1    1    6    6  503    0 -0.25792343138E+03  0.23308878945E+02  0.68555573495E+02  0.26789488041E+03  0.00000000000E+00 0. -1.
         -1    1    6    6    0  503 -0.49261445223E+01  0.15932192206E+02 -0.82820814413E+01  0.18619734728E+02  0.00000000000E+00 0.  1.
<mgrwt>
<rscale>  0 0.32396833E+04</rscale>
<asrwt>0</asrwt>
<pdfrwt beam="1">  1        1 0.26173052E+00 0.32396833E+04</pdfrwt>
<pdfrwt beam="2">  1       -2 0.23728158E+00 0.32396833E+04</pdfrwt>
<totfact> 0.26839436E-01</totfact>
</mgrwt>
</event>
<event>
12    5  0.5197392E-008  0.1422869E+04  0.7818608E-02  0.8937429E-01
          3   -1    0    0  501    0  0.00000000000E+00  0.00000000000E+00  0.61068366009E+03  0.61068366009E+03  0.00000000000E+00 0. -1.
         -4   -1    0    0    0  501 -0.00000000000E+00 -0.00000000000E+00 -0.82880687743E+03  0.82880687743E+03  0.00000000000E+00 0.  1.
        -24    2    1    2    0    0  0.54383236644E+02  0.13109317388E+03  0.33220283301E+03  0.37341199859E+03  0.94524291928E+02 0.  0.
        254    2    1    2    0    0 -0.54383236644E+02 -0.13109317388E+03 -0.55032605035E+03  0.10660785389E+04  0.90195439620E+03 0.  0.
         23    2    4    4    0    0  0.12394725619E+03 -0.48379162855E+03 -0.30811156469E+03  0.59379704277E+03  0.90801594342E+02 0.  0.
         23    2    4    4    0    0 -0.17833049283E+03  0.35269845467E+03 -0.24221448565E+03  0.47228149616E+03  0.90465407493E+02 0.  0.
          1    1    3    3  502    0  0.92241973348E+01  0.11925867761E+03  0.27271012921E+03  0.29778940978E+03  0.00000000000E+00 0. -1.
         -2    1    3    3    0  502  0.45159039309E+02  0.11834496275E+02  0.59492703799E+02  0.75622588812E+02  0.00000000000E+00 0.  1.
         13    1    5    5    0    0  0.37680876437E+02 -0.11362941475E+03 -0.31718655722E+02  0.12384492507E+03  0.00000000000E+00 0.  1.
        -13    1    5    5    0    0  0.86266379753E+02 -0.37016221381E+03 -0.27639290897E+03  0.46995211770E+03  0.00000000000E+00 0. -1.
          2    1    6    6  503    0 -0.10346603232E+03  0.28430729522E+03 -0.19853854905E+03  0.36187485878E+03  0.00000000000E+00 0. -1.
         -2    1    6    6    0  503 -0.74864460510E+02  0.68391159449E+02 -0.43675936599E+02  0.11040663737E+03  0.00000000000E+00 0.  1.
<mgrwt>
<rscale>  0 0.14228687E+04</rscale>
<asrwt>0</asrwt>
<pdfrwt beam="1">  1        3 0.93951333E-01 0.14228687E+04</pdfrwt>
<pdfrwt beam="2">  1       -4 0.12750875E+00 0.14228687E+04</pdfrwt>
<totfact> 0.10215635E+00</totfact>
</mgrwt>
</event>
<event>
12    5  0.5197392E-008  0.2560440E+04  0.7818608E-02  0.8381764E-01
          1   -1    0    0  501    0  0.00000000000E+00  0.00000000000E+00  0.83093422593E+03  0.83093422593E+03  0.00000000000E+00 0. -1.
         -2   -1    0    0    0  501 -0.00000000000E+00 -0.00000000000E+00 -0.19724344962E+04  0.19724344962E+04  0.00000000000E+00 0.  1.
        -24    2    1    2    0    0  0.43659674895E+03 -0.99597443287E+03 -0.78441959003E+03  0.13428746393E+04  0.73596273278E+02 0.  0.
        254    2    1    2    0    0 -0.43659674895E+03  0.99597443287E+03 -0.35708068027E+03  0.14604940829E+04  0.90716843077E+03 0.  0.
         23    2    4    4    0    0  0.99796289584E+02  0.25197383011E+03 -0.45142350139E+03  0.53392216612E+03  0.88541467078E+02 0.  0.
         23    2    4    4    0    0 -0.53639303853E+03  0.74400060276E+03  0.94342821123E+02  0.92657191676E+03  0.91545400366E+02 0.  0.
          1    1    3    3  502    0  0.13747991917E+03 -0.30276491338E+03 -0.19908167222E+03  0.38755752239E+03  0.00000000000E+00 0. -1.
         -2    1    3    3    0  502  0.29911682978E+03 -0.69320951949E+03 -0.58533791781E+03  0.95531711688E+03  0.00000000000E+00 0.  1.
         13    1    5    5    0    0  0.65074535095E+02  0.16834209271E+03 -0.21476661748E+03  0.28053244961E+03  0.00000000000E+00 0. -1.
        -13    1    5    5    0    0  0.34721754489E+02  0.83631737398E+02 -0.23665688391E+03  0.25338971652E+03  0.00000000000E+00 0.  1.
          3    1    6    6  503    0 -0.14668902929E+03  0.17538366519E+03 -0.12569122907E+02  0.22898708300E+03  0.00000000000E+00 0. -1.
         -3    1    6    6    0  503 -0.38970400924E+03  0.56861693757E+03  0.10691194403E+03  0.69758483376E+03  0.00000000000E+00 0.  1.
<mgrwt>
<rscale>  0 0.25604401E+04</rscale>
<asrwt>0</asrwt>
<pdfrwt beam="1">  1        1 0.12783604E+00 0.25604401E+04</pdfrwt>
<pdfrwt beam="2">  1       -2 0.30345146E+00 0.25604401E+04</pdfrwt>
<totfact> 0.48779452E-01</totfact>
</mgrwt>
</event>
<event>
12    5  0.5197392E-008  0.1744835E+04  0.7818608E-02  0.8736198E-01
          1   -1    0    0  501    0  0.00000000000E+00  0.00000000000E+00  0.11240312351E+04  0.11240312351E+04  0.00000000000E+00 0. -1.
         -2   -1    0    0    0  501 -0.00000000000E+00 -0.00000000000E+00 -0.67712763263E+03  0.67712763263E+03  0.00000000000E+00 0.  1.
        -24    2    1    2    0    0 -0.30910232130E+03  0.20123788526E+03  0.69472357636E+03  0.79058259403E+03  0.79618207346E+02 0.  0.
        254    2    1    2    0    0  0.30910232130E+03 -0.20123788526E+03 -0.24781997386E+03  0.10105762737E+04  0.90763909903E+03 0.  0.
         23    2    4    4    0    0  0.53538581030E+03 -0.12235709688E+03 -0.42369560024E+03  0.69957524719E+03  0.90985382369E+02 0.  0.
         23    2    4    4    0    0 -0.22628348900E+03 -0.78880788378E+02  0.17587562637E+03  0.31100102653E+03  0.91449474488E+02 0.  0.
          1    1    3    3  502    0 -0.22207526806E+03  0.18407638387E+03  0.54159289620E+03  0.61361584481E+03  0.00000000000E+00 0. -1.
         -2    1    3    3    0  502 -0.87027053232E+02  0.17161501382E+02  0.15313068016E+03  0.17696674922E+03  0.00000000000E+00 0.  1.
         13    1    5    5    0    0  0.46175811559E+03 -0.12837160143E+03 -0.33818416544E+03  0.58657340131E+03  0.00000000000E+00 0.  1.
        -13    1    5    5    0    0  0.73627694707E+02  0.60145045547E+01 -0.85511434798E+02  0.11300184589E+03  0.00000000000E+00 0. -1.
          1    1    6    6  503    0 -0.34322021500E+02  0.95124578886E+01  0.60546842418E+02  0.70245342491E+02  0.00000000000E+00 0. -1.
         -1    1    6    6    0  503 -0.19196146750E+03 -0.88393246267E+02  0.11532878395E+03  0.24075568404E+03  0.00000000000E+00 0.  1.
<mgrwt>
<rscale>  0 0.17448354E+04</rscale>
<asrwt>0</asrwt>
<pdfrwt beam="1">  1        1 0.17292788E+00 0.17448354E+04</pdfrwt>
<pdfrwt beam="2">  1       -2 0.10417348E+00 0.17448354E+04</pdfrwt>
<totfact> 0.75754495E+00</totfact>
</mgrwt>
</event>
<event>
12    5  0.5197392E-008  0.1531632E+04  0.7818608E-02  0.8863686E-01
          1   -1    0    0  501    0  0.00000000000E+00  0.00000000000E+00  0.14907310771E+04  0.14907310771E+04  0.00000000000E+00 0. -1.
         -4   -1    0    0    0  501 -0.00000000000E+00 -0.00000000000E+00 -0.39341372223E+03  0.39341372223E+03  0.00000000000E+00 0.  1.
        -24    2    1    2    0    0 -0.42758202461E+03  0.14302232375E+03  0.10749493388E+03  0.47029130170E+03  0.79605117805E+02 0.  0.
        254    2    1    2    0    0  0.42758202461E+03 -0.14302232375E+03  0.98982242103E+03  0.14138534977E+04  0.90330034588E+03 0.  0.
         23    2    4    4    0    0 -0.13181539758E+03  0.25480924457E+03  0.19308710692E+03  0.35829524900E+03  0.93753956943E+02 0.  0.
         23    2    4    4    0    0  0.55939742219E+03 -0.39783156832E+03  0.79673531411E+03  0.10555582487E+04  0.90667650786E+02 0.  0.
          3    1    3    3  502    0 -0.37526149478E+03  0.11413895929E+03  0.11802290473E+03  0.40960749204E+03  0.00000000000E+00 0. -1.
         -4    1    3    3    0  502 -0.52320529826E+02  0.28883364464E+02 -0.10527970852E+02  0.60683809656E+02  0.00000000000E+00 0.  1.
         13    1    5    5    0    0 -0.93093406798E+02  0.24070833243E+03  0.18141297824E+03  0.31546402705E+03  0.00000000000E+00 0.  1.
        -13    1    5    5    0    0 -0.38721990783E+02  0.14100912138E+02  0.11674128681E+02  0.42831221950E+02  0.00000000000E+00 0. -1.
          4    1    6    6  503    0  0.35850122809E+03 -0.23819397451E+03  0.43402634292E+03  0.61125965545E+03  0.00000000000E+00 0. -1.
         -4    1    6    6    0  503  0.20089619410E+03 -0.15963759381E+03  0.36270897119E+03  0.44429859323E+03  0.00000000000E+00 0.  1.
<mgrwt>
<rscale>  0 0.15316319E+04</rscale>
<asrwt>0</asrwt>
<pdfrwt beam="1">  1        1 0.22934324E+00 0.15316319E+04</pdfrwt>
<pdfrwt beam="2">  1       -4 0.60525189E-01 0.15316319E+04</pdfrwt>
<totfact> 0.80920324E+00</totfact>
</mgrwt>
</event>
<event>
12    5  0.5197392E-008  0.2042790E+04  0.7818608E-02  0.8586872E-01
          1   -1    0    0  501    0  0.00000000000E+00  0.00000000000E+00  0.23690349985E+04  0.23690349985E+04  0.00000000000E+00 0. -1.
         -2   -1    0    0    0  501 -0.00000000000E+00 -0.00000000000E+00 -0.44036818216E+03  0.44036818216E+03  0.00000000000E+00 0.  1.
        -24    2    1    2    0    0 -0.52771037461E+03  0.47754383613E+03  0.14545742812E+04  0.16214374685E+04  0.82138721562E+02 0.  0.
        254    2    1    2    0    0  0.52771037461E+03 -0.47754383613E+03  0.47409253506E+03  0.11879657122E+04  0.82460441824E+03 0.  0.
         23    2    4    4    0    0  0.30637333907E+03 -0.45331399689E+03  0.67529539970E+03  0.87405157068E+03  0.92650249236E+02 0.  0.
         23    2    4    4    0    0  0.22133703554E+03 -0.24229839247E+02 -0.20120286464E+03  0.31391414149E+03  0.92099549819E+02 0.  0.
          3    1    3    3  502    0 -0.49679539736E+03  0.45869442754E+03  0.14119796139E+04  0.15655327128E+04  0.00000000000E+00 0. -1.
         -4    1    3    3    0  502 -0.30914977248E+02  0.18849408591E+02  0.42594667345E+02  0.55904755690E+02  0.00000000000E+00 0.  1.
         13    1    5    5    0    0  0.29367191323E+03 -0.38917802838E+03  0.56955588456E+03  0.74973104246E+03  0.00000000000E+00 0. -1.
        -13    1    5    5    0    0  0.12701425848E+02 -0.64135968508E+02  0.10573951514E+03  0.12432052822E+03  0.00000000000E+00 0.  1.
          4    1    6    6  503    0  0.12746582752E+03  0.30205890295E+00 -0.16901090608E+03  0.21168919386E+03  0.00000000000E+00 0. -1.
         -4    1    6    6    0  503  0.93871208014E+02 -0.24531898150E+02 -0.32191958564E+02  0.10222494763E+03  0.00000000000E+00 0.  1.
<mgrwt>
<rscale>  0 0.20427899E+04</rscale>
<asrwt>0</asrwt>
<pdfrwt beam="1">  1        1 0.36446692E+00 0.20427899E+04</pdfrwt>
<pdfrwt beam="2">  1       -2 0.67748952E-01 0.20427899E+04</pdfrwt>
<totfact> 0.27049941E+00</totfact>
</mgrwt>
</event>
<event>
12    5  0.5197392E-008  0.2103296E+04  0.7818608E-02  0.8559793E-01
         -2   -1    0    0    0  501 -0.00000000000E+00  0.00000000000E+00  0.57408044750E+03  0.57408044750E+03  0.00000000000E+00 0.  1.
          1   -1    0    0  501    0  0.00000000000E+00 -0.00000000000E+00 -0.19264958764E+04  0.19264958764E+04  0.00000000000E+00 0. -1.
        -24    2    1    2    0    0  0.35819132815E+03  0.74144226011E+03 -0.28068475289E+03  0.87343061040E+03  0.77842456487E+02 0.  0.
        254    2    1    2    0    0 -0.35819132815E+03 -0.74144226011E+03 -0.10717306760E+04  0.16271457135E+04  0.90606781118E+03 0.  0.
         23    2    4    4    0    0  0.29573428633E+03 -0.24402282493E+03 -0.29229877887E+03  0.49102172185E+03  0.93047557755E+02 0.  0.
         23    2    4    4    0    0 -0.65392561449E+03 -0.49741943518E+03 -0.77943189718E+03  0.11361239917E+04  0.90657809145E+02 0.  0.
          3    1    3    3  502    0  0.36194941706E+03  0.72710177295E+03 -0.27415116025E+03  0.85722997347E+03  0.00000000000E+00 0. -1.
         -4    1    3    3    0  502 -0.37580889093E+01  0.14340487159E+02 -0.65335926403E+01  0.16200636932E+02  0.00000000000E+00 0.  1.
         13    1    5    5    0    0  0.17249896614E+03 -0.91752059729E+02 -0.11442470351E+03  0.22642293735E+03  0.00000000000E+00 0. -1.
        -13    1    5    5    0    0  0.12323532020E+03 -0.15227076520E+03 -0.17787407535E+03  0.26459878451E+03  0.00000000000E+00 0.  1.
          1    1    6    6  503    0 -0.42498422707E+03 -0.37527373626E+03 -0.54475338535E+03  0.78625582429E+03  0.00000000000E+00 0. -1.
         -1    1    6    6    0  503 -0.22894138742E+03 -0.12214569892E+03 -0.23467851183E+03  0.34986816739E+03  0.00000000000E+00 0.  1.
<mgrwt>
<rscale>  0 0.21032961E+04</rscale>
<asrwt>0</asrwt>
<pdfrwt beam="1">  1        1 0.29638398E+00 0.21032961E+04</pdfrwt>
<pdfrwt beam="2">  1       -2 0.88320069E-01 0.21032961E+04</pdfrwt>
<totfact> 0.29790802E+00</totfact>
</mgrwt>
</event>
<event>
12    5  0.5197392E-008  0.1623842E+04  0.7818608E-02  0.8806033E-01
         -2   -1    0    0    0  501 -0.00000000000E+00  0.00000000000E+00  0.31231348497E+03  0.31231348497E+03  0.00000000000E+00 0.  1.
          1   -1    0    0  501    0  0.00000000000E+00 -0.00000000000E+00 -0.21107512290E+04  0.21107512290E+04  0.00000000000E+00 0. -1.
        -24    2    1    2    0    0 -0.20051447771E+03 -0.46592458884E+03 -0.96515355697E+03  0.10933161228E+04  0.80789711859E+02 0.  0.
        254    2    1    2    0    0  0.20051447771E+03  0.46592458884E+03 -0.83328418705E+03  0.13297485912E+04  0.90364650227E+03 0.  0.
         23    2    4    4    0    0  0.75501816280E+02 -0.15709856166E+03 -0.62474382244E+03  0.65487790442E+03  0.90441935376E+02 0.  0.
         23    2    4    4    0    0  0.12501266144E+03  0.62302315050E+03 -0.20854036460E+03  0.67487068675E+03  0.90417634247E+02 0.  0.
          1    1    3    3  502    0 -0.20564275893E+03 -0.45142790535E+03 -0.91447445393E+03  0.10403555281E+04  0.00000000000E+00 0. -1.
         -4    1    3    3    0  502  0.51282812138E+01 -0.14496683491E+02 -0.50679103044E+02  0.52960594651E+02  0.00000000000E+00 0.  1.
         13    1    5    5    0    0  0.89926263226E+01 -0.69701418026E+02 -0.38247266008E+03  0.38887593229E+03  0.00000000000E+00 0.  1.
        -13    1    5    5    0    0  0.66509189957E+02 -0.87397143634E+02 -0.24227116236E+03  0.26600197213E+03  0.00000000000E+00 0. -1.
          3    1    6    6  503    0  0.69308217153E+02  0.48816765373E+03 -0.18723193188E+03  0.52741547515E+03  0.00000000000E+00 0. -1.
         -3    1    6    6    0  503  0.55704444282E+02  0.13485549677E+03 -0.21308432728E+02  0.14745521160E+03  0.00000000000E+00 0.  1.
<mgrwt>
<rscale>  0 0.16238424E+04</rscale>
<asrwt>0</asrwt>
<pdfrwt beam="1">  1        1 0.32473096E+00 0.16238424E+04</pdfrwt>
<pdfrwt beam="2">  1       -2 0.48048228E-01 0.16238424E+04</pdfrwt>
<totfact> 0.86520213E+00</totfact>
</mgrwt>
</event>
<event>
12    5  0.5197392E-008  0.1716511E+04  0.7818608E-02  0.8752003E-01
         -2   -1    0    0    0  501 -0.00000000000E+00  0.00000000000E+00  0.57818750541E+03  0.57818750541E+03  0.00000000000E+00 0.  1.
          1   -1    0    0  501    0  0.00000000000E+00 -0.00000000000E+00 -0.12739861794E+04  0.12739861794E+04  0.00000000000E+00 0. -1.
        -24    2    1    2    0    0  0.11511146071E+03 -0.16417929779E+03  0.37046913838E+03  0.42906885488E+03  0.81530420875E+02 0.  0.
        254    2    1    2    0    0 -0.11511146071E+03  0.16417929779E+03 -0.10662678124E+04  0.14231048299E+04  0.92092063669E+03 0.  0.
         23    2    4    4    0    0 -0.57598433965E+02 -0.17966006254E+03 -0.10414197647E+04  0.10627519420E+04  0.96391110728E+02 0.  0.
         23    2    4    4    0    0 -0.57513026742E+02  0.34383936033E+03 -0.24848047623E+02  0.36035288790E+03  0.87769723646E+02 0.  0.
          3    1    3    3  502    0  0.17966753550E+00  0.87553870851E+01  0.16974821654E+02  0.19100619194E+02  0.00000000000E+00 0. -1.
         -4    1    3    3    0  502  0.11493179317E+03 -0.17293468487E+03  0.35349431672E+03  0.40996823568E+03  0.00000000000E+00 0.  1.
         13    1    5    5    0    0 -0.12775009757E+02 -0.15656396427E+03 -0.87009025978E+03  0.88415639790E+03  0.00000000000E+00 0. -1.
        -13    1    5    5    0    0 -0.44823424209E+02 -0.23096098276E+02 -0.17132950496E+03  0.17859554413E+03  0.00000000000E+00 0.  1.
          4    1    6    6  503    0 -0.45000455418E+02  0.20749146728E+03 -0.56741547564E+02  0.21976658801E+03  0.00000000000E+00 0. -1.
         -4    1    6    6    0  503 -0.12512571323E+02  0.13634789305E+03  0.31893499941E+02  0.14058629989E+03  0.00000000000E+00 0.  1.
<mgrwt>
<rscale>  0 0.17165115E+04</rscale>
<asrwt>0</asrwt>
<pdfrwt beam="1">  1        1 0.19599787E+00 0.17165115E+04</pdfrwt>
<pdfrwt beam="2">  1       -2 0.88951924E-01 0.17165115E+04</pdfrwt>
<totfact> 0.85470245E+00</totfact>
</mgrwt>
</event>
<event>
12    5  0.5197392E-008  0.1305178E+04  0.7818608E-02  0.9025469E-01
          1   -1    0    0  501    0  0.00000000000E+00  0.00000000000E+00  0.36199536615E+03  0.36199536615E+03  0.00000000000E+00 0. -1.
         -2   -1    0    0    0  501 -0.00000000000E+00 -0.00000000000E+00 -0.11764574418E+04  0.11764574418E+04  0.00000000000E+00 0.  1.
        -24    2    1    2    0    0 -0.20097145819E+03 -0.26213944386E+03 -0.15861464073E+03  0.37485301247E+03  0.79054169209E+02 0.  0.
        254    2    1    2    0    0  0.20097145819E+03  0.26213944386E+03 -0.65584743490E+03  0.11635997955E+04  0.90261952733E+03 0.  0.
         23    2    4    4    0    0 -0.25761834217E+03  0.20829138001E+03  0.14172399055E+02  0.34491076053E+03  0.94921370758E+02 0.  0.
         23    2    4    4    0    0  0.45858980036E+03  0.53848063842E+02 -0.67001983396E+03  0.81868903494E+03  0.90116252974E+02 0.  0.
          3    1    3    3  502    0 -0.20227899268E+03 -0.23572022317E+03 -0.13253681724E+03  0.33770819122E+03  0.00000000000E+00 0. -1.
         -4    1    3    3    0  502  0.13075344838E+01 -0.26419220683E+02 -0.26077823485E+02  0.37144821250E+02  0.00000000000E+00 0.  1.
         13    1    5    5    0    0 -0.26500382454E+03  0.20187145855E+03  0.77875606735E+01  0.33322628783E+03  0.00000000000E+00 0.  1.
        -13    1    5    5    0    0  0.73854823648E+01  0.64199214597E+01  0.63848383815E+01  0.11684472708E+02  0.00000000000E+00 0. -1.
          1    1    6    6  503    0  0.16764666181E+03  0.63485430900E+02 -0.26293090794E+03  0.31822706595E+03  0.00000000000E+00 0. -1.
         -1    1    6    6    0  503  0.29094313856E+03 -0.96373670583E+01 -0.40708892602E+03  0.50046196899E+03  0.00000000000E+00 0.  1.
<mgrwt>
<rscale>  0 0.13051776E+04</rscale>
<asrwt>0</asrwt>
<pdfrwt beam="1">  1        1 0.55691594E-01 0.13051776E+04</pdfrwt>
<pdfrwt beam="2">  1       -2 0.18099345E+00 0.13051776E+04</pdfrwt>
<totfact> 0.10477227E+01</totfact>
</mgrwt>
</event>
<event>
12    5  0.5197392E-008  0.1665201E+04  0.7818608E-02  0.8781464E-01
         -2   -1    0    0    0  501 -0.00000000000E+00  0.00000000000E+00  0.93480374490E+03  0.93480374490E+03  0.00000000000E+00 0.  1.
          1   -1    0    0  501    0  0.00000000000E+00 -0.00000000000E+00 -0.74157141171E+03  0.74157141171E+03  0.00000000000E+00 0. -1.
        -24    2    1    2    0    0 -0.36130219994E+03 -0.38787069163E+03 -0.19115416680E+03  0.56916721311E+03  0.80177602104E+02 0.  0.
        254    2    1    2    0    0  0.36130219994E+03  0.38787069163E+03  0.38438649999E+03  0.11072079435E+04  0.89284572892E+03 0.  0.
         23    2    4    4    0    0  0.47593995599E+03  0.12580056455E+03  0.56687421125E+03  0.75617878526E+03  0.90085293680E+02 0.  0.
         23    2    4    4    0    0 -0.11463775605E+03  0.26207012708E+03 -0.18248771126E+03  0.35102915824E+03  0.89984101652E+02 0.  0.
          1    1    3    3  502    0 -0.27899093204E+03 -0.27318727931E+03 -0.10717683027E+03  0.40491246299E+03  0.00000000000E+00 0. -1.
         -2    1    3    3    0  502 -0.82311267909E+02 -0.11468341233E+03 -0.83977336530E+02  0.16425475012E+03  0.00000000000E+00 0.  1.
         13    1    5    5    0    0  0.34128553049E+03  0.13133501714E+03  0.41234477016E+03  0.55113783169E+03  0.00000000000E+00 0. -1.
        -13    1    5    5    0    0  0.13465442550E+03 -0.55344525844E+01  0.15452944109E+03  0.20504095356E+03  0.00000000000E+00 0.  1.
          1    1    6    6  503    0 -0.61044226665E+02  0.21633585745E+03 -0.16381463643E+03  0.27814175511E+03  0.00000000000E+00 0. -1.
         -1    1    6    6    0  503 -0.53593529383E+02  0.45734269634E+02 -0.18673074827E+02  0.72887403124E+02  0.00000000000E+00 0.  1.
<mgrwt>
<rscale>  0 0.16652012E+04</rscale>
<asrwt>0</asrwt>
<pdfrwt beam="1">  1        1 0.11408791E+00 0.16652012E+04</pdfrwt>
<pdfrwt beam="2">  1       -2 0.14381596E+00 0.16652012E+04</pdfrwt>
<totfact> 0.69729564E+00</totfact>
</mgrwt>
</event>
<event>
12    5  0.5197392E-008  0.1943807E+04  0.7818608E-02  0.8633353E-01
          1   -1    0    0  501    0  0.00000000000E+00  0.00000000000E+00  0.19754890872E+04  0.19754890872E+04  0.00000000000E+00 0. -1.
         -2   -1    0    0    0  501 -0.00000000000E+00 -0.00000000000E+00 -0.47815820125E+03  0.47815820125E+03  0.00000000000E+00 0.  1.
        -24    2    1    2    0    0  0.28356136408E+03 -0.63377298967E+03  0.18629186728E+03  0.72322701232E+03  0.79230056759E+02 0.  0.
        254    2    1    2    0    0 -0.28356136408E+03  0.63377298967E+03  0.13110390187E+04  0.17304202762E+04  0.89076134513E+03 0.  0.
         23    2    4    4    0    0  0.25185431547E+02  0.65644753063E+03  0.12294889368E+04  0.13976404001E+04  0.10098502836E+03 0.  0.
         23    2    4    4    0    0 -0.30874679563E+03 -0.22674540961E+02  0.81550081914E+02  0.33277987604E+03  0.90847737553E+02 0.  0.
          1    1    3    3  502    0  0.25530026562E+03 -0.51203214619E+03  0.13326387274E+03  0.58746438542E+03  0.00000000000E+00 0. -1.
         -4    1    3    3    0  502  0.28261098466E+02 -0.12174084347E+03  0.53027994540E+02  0.13576262690E+03  0.00000000000E+00 0.  1.
         13    1    5    5    0    0 -0.17425834541E+02  0.99172963231E+02  0.13185657353E+03  0.16590687848E+03  0.00000000000E+00 0.  1.
        -13    1    5    5    0    0  0.42611266089E+02  0.55727456740E+03  0.10976323632E+04  0.12317335216E+04  0.00000000000E+00 0. -1.
          4    1    6    6  503    0 -0.20547196186E+03  0.27164317157E+02  0.41946371349E+02  0.21146187672E+03  0.00000000000E+00 0. -1.
         -4    1    6    6    0  503 -0.10327483377E+03 -0.49838858117E+02  0.39603710566E+02  0.12131799932E+03  0.00000000000E+00 0.  1.
<mgrwt>
<rscale>  0 0.19438069E+04</rscale>
<asrwt>0</asrwt>
<pdfrwt beam="1">  1        1 0.30392139E+00 0.19438069E+04</pdfrwt>
<pdfrwt beam="2">  1       -2 0.73562801E-01 0.19438069E+04</pdfrwt>
<totfact> 0.42244002E+00</totfact>
</mgrwt>
</event>
<event>
12    5  0.5197392E-008  0.2642050E+04  0.7818608E-02  0.8354057E-01
         -2   -1    0    0    0  501 -0.00000000000E+00  0.00000000000E+00  0.12086808424E+04  0.12086808424E+04  0.00000000000E+00 0.  1.
          1   -1    0    0  501    0  0.00000000000E+00 -0.00000000000E+00 -0.14438111558E+04  0.14438111558E+04  0.00000000000E+00 0. -1.
        -24    2    1    2    0    0  0.24991611495E+03 -0.11228927519E+04 -0.29323184583E+03  0.11897620134E+04  0.78756182191E+02 0.  0.
        254    2    1    2    0    0 -0.24991611495E+03  0.11228927519E+04  0.58101532383E+02  0.14627299848E+04  0.90158583808E+03 0.  0.
         23    2    4    4    0    0  0.10613531419E+03  0.68667700112E+03  0.39139952007E+03  0.80209524157E+03  0.85867243215E+02 0.  0.
         23    2    4    4    0    0 -0.35605142914E+03  0.43621575082E+03 -0.33329798768E+03  0.66063474320E+03  0.91070927722E+02 0.  0.
          3    1    3    3  502    0  0.61568711372E+02 -0.36882080363E+03 -0.12738012637E+03  0.39502555361E+03  0.00000000000E+00 0. -1.
         -4    1    3    3    0  502  0.18834740357E+03 -0.75407194830E+03 -0.16585171946E+03  0.79473645977E+03  0.00000000000E+00 0.  1.
         13    1    5    5    0    0  0.11177713807E+03  0.62300961131E+03  0.37648318110E+03  0.73646092227E+03  0.00000000000E+00 0.  1.
        -13    1    5    5    0    0 -0.56418238806E+01  0.63667389805E+02  0.14916338964E+02  0.65634319295E+02  0.00000000000E+00 0. -1.
          2    1    6    6  503    0 -0.19220336900E+03  0.17515707049E+03 -0.18108102458E+03  0.31687927017E+03  0.00000000000E+00 0. -1.
         -2    1    6    6    0  503 -0.16384806014E+03  0.26105868032E+03 -0.15221696310E+03  0.34375547303E+03  0.00000000000E+00 0.  1.
<mgrwt>
<rscale>  0 0.26420499E+04</rscale>
<asrwt>0</asrwt>
<pdfrwt beam="1">  1        1 0.22212479E+00 0.26420499E+04</pdfrwt>
<pdfrwt beam="2">  1       -2 0.18595090E+00 0.26420499E+04</pdfrwt>
<totfact> 0.91052042E-01</totfact>
</mgrwt>
</event>
<event>
12    5  0.5197392E-008  0.1998969E+04  0.7818608E-02  0.8607103E-01
          1   -1    0    0  501    0  0.00000000000E+00  0.00000000000E+00  0.15295182216E+04  0.15295182216E+04  0.00000000000E+00 0. -1.
         -2   -1    0    0    0  501 -0.00000000000E+00 -0.00000000000E+00 -0.65312686250E+03  0.65312686250E+03  0.00000000000E+00 0.  1.
        -24    2    1    2    0    0  0.62089982432E+03  0.36856258283E+03 -0.86503387196E+01  0.72642060479E+03  0.79101816632E+02 0.  0.
        254    2    1    2    0    0 -0.62089982432E+03 -0.36856258283E+03  0.88504169779E+03  0.14562244793E+04  0.90329173469E+03 0.  0.
         23    2    4    4    0    0  0.22422270377E+03 -0.75467046736E+02  0.14878172480E+03  0.29416912431E+03  0.91806187350E+02 0.  0.
         23    2    4    4    0    0 -0.84512252809E+03 -0.29309553610E+03  0.73625997299E+03  0.11620553550E+04  0.90315111921E+02 0.  0.
          1    1    3    3  502    0  0.14022234258E+03  0.61223834501E+02 -0.28061640494E+02  0.15555744578E+03  0.00000000000E+00 0. -1.
         -4    1    3    3    0  502  0.48067748174E+03  0.30733874833E+03  0.19411301774E+02  0.57086315901E+03  0.00000000000E+00 0.  1.
         13    1    5    5    0    0  0.41928516179E+01  0.72975584896E+01  0.29264212155E+02  0.30450426559E+02  0.00000000000E+00 0.  1.
        -13    1    5    5    0    0  0.22002985215E+03 -0.82764605226E+02  0.11951751265E+03  0.26371869775E+03  0.00000000000E+00 0. -1.
          1    1    6    6  503    0 -0.75197532315E+03 -0.23100723707E+03  0.63211763850E+03  0.10091600166E+04  0.00000000000E+00 0. -1.
         -1    1    6    6    0  503 -0.93147204944E+02 -0.62088299030E+02  0.10414233449E+03  0.15289533838E+03  0.00000000000E+00 0.  1.
<mgrwt>
<rscale>  0 0.19989692E+04</rscale>
<asrwt>0</asrwt>
<pdfrwt beam="1">  1        1 0.23531049E+00 0.19989692E+04</pdfrwt>
<pdfrwt beam="2">  1       -2 0.10048106E+00 0.19989692E+04</pdfrwt>
<totfact> 0.41502174E+00</totfact>
</mgrwt>
</event>
<event>
12    5  0.5197392E-008  0.2379234E+04  0.7818608E-02  0.8447319E-01
         -4   -1    0    0    0  501 -0.00000000000E+00  0.00000000000E+00  0.83828321452E+03  0.83828321452E+03  0.00000000000E+00 0.  1.
          3   -1    0    0  501    0  0.00000000000E+00 -0.00000000000E+00 -0.16881991049E+04  0.16881991049E+04  0.00000000000E+00 0. -1.
        -24    2    1    2    0    0  0.14751464090E+03  0.10016205124E+04 -0.43936845444E+03  0.11067072392E+04  0.82170885105E+02 0.  0.
        254    2    1    2    0    0 -0.14751464090E+03 -0.10016205124E+04 -0.41054743599E+03  0.14197750802E+04  0.90675678165E+03 0.  0.
         23    2    4    4    0    0 -0.45234285303E+02 -0.79682974206E+02 -0.46848221766E+03  0.48578509877E+03  0.90089161284E+02 0.  0.
         23    2    4    4    0    0 -0.10228035559E+03 -0.92193753823E+03  0.57934781669E+02  0.93398998147E+03  0.92470271018E+02 0.  0.
          3    1    3    3  502    0 -0.19396152380E+00  0.17830425422E+02  0.28007565426E+01  0.18050094986E+02  0.00000000000E+00 0. -1.
         -4    1    3    3    0  502  0.14770860242E+03  0.98379008702E+03 -0.44216921098E+03  0.10886571442E+04  0.00000000000E+00 0.  1.
         13    1    5    5    0    0 -0.50832021516E+02 -0.23317342320E+02 -0.11596059835E+03  0.12874180841E+03  0.00000000000E+00 0. -1.
        -13    1    5    5    0    0  0.55977362131E+01 -0.56365631887E+02 -0.35252161931E+03  0.35704329035E+03  0.00000000000E+00 0.  1.
          2    1    6    6  503    0  0.10558164789E+02 -0.10467777800E+03 -0.12633320239E+02  0.10596467728E+03  0.00000000000E+00 0. -1.
         -2    1    6    6    0  503 -0.11283852038E+03 -0.81725976023E+03  0.70568101908E+02  0.82802530419E+03  0.00000000000E+00 0.  1.
<mgrwt>
<rscale>  0 0.23792343E+04</rscale>
<asrwt>0</asrwt>
<pdfrwt beam="1">  1        3 0.25972294E+00 0.23792343E+04</pdfrwt>
<pdfrwt beam="2">  1       -4 0.12896665E+00 0.23792343E+04</pdfrwt>
<totfact> 0.59089934E-02</totfact>
</mgrwt>
</event>
<event>
12    5  0.5197392E-008  0.2639324E+04  0.7818608E-02  0.8354965E-01
         -2   -1    0    0    0  501 -0.00000000000E+00  0.00000000000E+00  0.48247464717E+03  0.48247464717E+03  0.00000000000E+00 0.  1.
          1   -1    0    0  501    0  0.00000000000E+00 -0.00000000000E+00 -0.36095329080E+04  0.36095329080E+04  0.00000000000E+00 0. -1.
        -24    2    1    2    0    0 -0.26049764991E+03  0.92585435771E+03 -0.24179596323E+04  0.26034115406E+04  0.78470052878E+02 0.  0.
        254    2    1    2    0    0  0.26049764991E+03 -0.92585435771E+03 -0.70909862849E+03  0.14885960145E+04  0.88771161540E+03 0.  0.
         23    2    4    4    0    0  0.57167530581E+03 -0.62465545300E+03 -0.36050812166E+03  0.92538239582E+03  0.96743901466E+02 0.  0.
         23    2    4    4    0    0 -0.31117765590E+03 -0.30119890471E+03 -0.34859050684E+03  0.56321361867E+03  0.90232616405E+02 0.  0.
          1    1    3    3  502    0 -0.21582059956E+03  0.84846886894E+03 -0.22072536431E+04  0.23745413447E+04  0.00000000000E+00 0. -1.
         -2    1    3    3    0  502 -0.44677050350E+02  0.77385488774E+02 -0.21070598921E+03  0.22887019594E+03  0.00000000000E+00 0.  1.
         13    1    5    5    0    0  0.10501135374E+03 -0.98177253817E+02 -0.10023260455E+03  0.17525048529E+03  0.00000000000E+00 0. -1.
        -13    1    5    5    0    0  0.46666395208E+03 -0.52647819919E+03 -0.26027551711E+03  0.75013191053E+03  0.00000000000E+00 0.  1.
          3    1    6    6  503    0 -0.13971183793E+03 -0.80776637461E+02 -0.10404881679E+03  0.19201671566E+03  0.00000000000E+00 0. -1.
         -3    1    6    6    0  503 -0.17146581798E+03 -0.22042226725E+03 -0.24454169004E+03  0.37119690301E+03  0.00000000000E+00 0.  1.
<mgrwt>
<rscale>  0 0.26393242E+04</rscale>
<asrwt>0</asrwt>
<pdfrwt beam="1">  1        1 0.55531274E+00 0.26393242E+04</pdfrwt>
<pdfrwt beam="2">  1       -2 0.74226871E-01 0.26393242E+04</pdfrwt>
<totfact> 0.25792921E-01</totfact>
</mgrwt>
</event>
<event>
12    5  0.5197392E-008  0.1713996E+04  0.7818608E-02  0.8753422E-01
         -2   -1    0    0    0  501 -0.00000000000E+00  0.00000000000E+00  0.57045622845E+03  0.57045622845E+03  0.00000000000E+00 0.  1.
          1   -1    0    0  501    0  0.00000000000E+00 -0.00000000000E+00 -0.12874697920E+04  0.12874697920E+04  0.00000000000E+00 0. -1.
        -24    2    1    2    0    0 -0.37696694298E+03 -0.34227983643E+03 -0.64279649892E+03  0.82386862870E+03  0.79451971695E+02 0.  0.
        254    2    1    2    0    0  0.37696694298E+03  0.34227983643E+03 -0.74217064597E+02  0.10340573917E+04  0.89694311645E+03 0.  0.
         23    2    4    4    0    0  0.19512201404E+03 -0.34677825126E+02  0.36190589126E+03  0.42283387905E+03  0.92398394056E+02 0.  0.
         23    2    4    4    0    0  0.18184492894E+03  0.37695766155E+03 -0.43612295586E+03  0.61122351266E+03  0.90698914100E+02 0.  0.
          3    1    3    3  502    0 -0.20562286228E+02 -0.30395878760E+02 -0.21103453780E+02  0.42332881097E+02  0.00000000000E+00 0. -1.
         -4    1    3    3    0  502 -0.35640465676E+03 -0.31188395767E+03 -0.62169304514E+03  0.78153574761E+03  0.00000000000E+00 0.  1.
         13    1    5    5    0    0  0.51864402177E+02 -0.10892025549E+02  0.19270697182E+03  0.19986127545E+03  0.00000000000E+00 0.  1.
        -13    1    5    5    0    0  0.14325761187E+03 -0.23785799577E+02  0.16919891944E+03  0.22297260360E+03  0.00000000000E+00 0. -1.
          3    1    6    6  503    0  0.11683624239E+03  0.32381040465E+03 -0.34776289149E+03  0.48932904511E+03  0.00000000000E+00 0. -1.
         -3    1    6    6    0  503  0.65008686555E+02  0.53147256909E+02 -0.88360064365E+02  0.12189446755E+03  0.00000000000E+00 0.  1.
<mgrwt>
<rscale>  0 0.17139955E+04</rscale>
<asrwt>0</asrwt>
<pdfrwt beam="1">  1        1 0.19807227E+00 0.17139955E+04</pdfrwt>
<pdfrwt beam="2">  1       -2 0.87762498E-01 0.17139955E+04</pdfrwt>
<totfact> 0.86232752E+00</totfact>
</mgrwt>
</event>
<event>
12    5  0.5197392E-008  0.2029402E+04  0.7818608E-02  0.8592996E-01
          1   -1    0    0  501    0  0.00000000000E+00  0.00000000000E+00  0.36448403776E+04  0.36448403776E+04  0.00000000000E+00 0. -1.
         -2   -1    0    0    0  501 -0.00000000000E+00 -0.00000000000E+00 -0.28248644092E+03  0.28248644092E+03  0.00000000000E+00 0.  1.
        -24    2    1    2    0    0  0.31936783287E+03  0.59441105199E+03  0.22131895060E+04  0.23158209145E+04  0.97459771592E+02 0.  0.
        254    2    1    2    0    0 -0.31936783287E+03 -0.59441105199E+03  0.11491644307E+04  0.16115059041E+04  0.90611924085E+03 0.  0.
         23    2    4    4    0    0 -0.58732534106E+03 -0.41978172121E+03  0.10262465398E+04  0.12580233495E+04  0.90956241454E+02 0.  0.
         23    2    4    4    0    0  0.26795750819E+03 -0.17462933078E+03  0.12291789093E+03  0.35348255453E+03  0.86858960863E+02 0.  0.
          1    1    3    3  502    0  0.27051225536E+03  0.42093615308E+03  0.16856597721E+04  0.17583551952E+04  0.00000000000E+00 0. -1.
         -2    1    3    3    0  502  0.48855577513E+02  0.17347489891E+03  0.52752973387E+03  0.55746571924E+03  0.00000000000E+00 0.  1.
         13    1    5    5    0    0 -0.51416843889E+03 -0.33694880739E+03  0.83093483833E+03  0.10336132681E+04  0.00000000000E+00 0. -1.
        -13    1    5    5    0    0 -0.73156902170E+02 -0.82832913826E+02  0.19531170146E+03  0.22441008149E+03  0.00000000000E+00 0.  1.
          2    1    6    6  503    0  0.24669567206E+03 -0.14314465763E+03  0.13221158377E+03  0.31437088050E+03  0.00000000000E+00 0. -1.
         -2    1    6    6    0  503  0.21261836128E+02 -0.31484673152E+02 -0.92936928407E+01  0.39111674032E+02  0.00000000000E+00 0.  1.
<mgrwt>
<rscale>  0 0.20294019E+04</rscale>
<asrwt>0</asrwt>
<pdfrwt beam="1">  1        1 0.56074464E+00 0.20294019E+04</pdfrwt>
<pdfrwt beam="2">  1       -2 0.43459455E-01 0.20294019E+04</pdfrwt>
<totfact> 0.78510131E-01</totfact>
</mgrwt>
</event>
<event>
12    5  0.5197392E-008  0.2479621E+04  0.7818608E-02  0.8410282E-01
          1   -1    0    0  501    0  0.00000000000E+00  0.00000000000E+00  0.23391504554E+04  0.23391504554E+04  0.00000000000E+00 0. -1.
         -2   -1    0    0    0  501 -0.00000000000E+00 -0.00000000000E+00 -0.65713165059E+03  0.65713165059E+03  0.00000000000E+00 0.  1.
        -24    2    1    2    0    0 -0.75925407880E+03  0.60893908890E+03  0.19432760550E+03  0.99562207541E+03  0.78908355859E+02 0.  0.
        254    2    1    2    0    0  0.75925407880E+03 -0.60893908890E+03  0.14876911993E+04  0.20006600305E+04  0.91768288816E+03 0.  0.
         23    2    4    4    0    0  0.25476245348E+03 -0.64782383399E+03  0.12519774634E+04  0.14349993543E+04  0.84828947983E+02 0.  0.
         23    2    4    4    0    0  0.50449162532E+03  0.38884745093E+02  0.23571373583E+03  0.56566067620E+03  0.91581722599E+02 0.  0.
          1    1    3    3  502    0  0.13703922679E+01  0.26453948515E+01  0.31102390501E+01  0.43069334609E+01  0.00000000000E+00 0. -1.
         -2    1    3    3    0  502 -0.76062447107E+03  0.60629369405E+03  0.19121736645E+03  0.99131514195E+03  0.00000000000E+00 0.  1.
         13    1    5    5    0    0  0.14028665287E+03 -0.46095814836E+03  0.84119368213E+03  0.96941712919E+03  0.00000000000E+00 0.  1.
        -13    1    5    5    0    0  0.11447580061E+03 -0.18686568564E+03  0.41078378129E+03  0.46558222514E+03  0.00000000000E+00 0. -1.
          1    1    6    6  503    0  0.16713452559E+03 -0.27636525527E+02  0.94130091044E+02  0.19379938397E+03  0.00000000000E+00 0. -1.
         -1    1    6    6    0  503  0.33735709973E+03  0.66521270620E+02  0.14158364479E+03  0.37186129223E+03  0.00000000000E+00 0.  1.
<mgrwt>
<rscale>  0 0.24796208E+04</rscale>
<asrwt>0</asrwt>
<pdfrwt beam="1">  1        1 0.35986930E+00 0.24796208E+04</pdfrwt>
<pdfrwt beam="2">  1       -2 0.10109718E+00 0.24796208E+04</pdfrwt>
<totfact> 0.11013386E+00</totfact>
</mgrwt>
</event>
<event>
12    5  0.5197392E-008  0.1941971E+04  0.7818608E-02  0.8634242E-01
         -2   -1    0    0    0  501 -0.00000000000E+00  0.00000000000E+00  0.19830949365E+04  0.19830949365E+04  0.00000000000E+00 0.  1.
          1   -1    0    0  501    0  0.00000000000E+00 -0.00000000000E+00 -0.47542496487E+03  0.47542496487E+03  0.00000000000E+00 0. -1.
        -24    2    1    2    0    0  0.29095800224E+03  0.68084858377E+03  0.38782231008E+03  0.83956053193E+03  0.79021449515E+02 0.  0.
        254    2    1    2    0    0 -0.29095800224E+03 -0.68084858377E+03  0.11198476616E+04  0.16189593695E+04  0.90485319350E+03 0.  0.
         23    2    4    4    0    0 -0.12827099563E+02  0.20717738051E+03  0.29199786622E+03  0.36981222617E+03  0.91713288391E+02 0.  0.
         23    2    4    4    0    0 -0.27813090268E+03 -0.88802596428E+03  0.82784979537E+03  0.12491471433E+04  0.95322556152E+02 0.  0.
          1    1    3    3  502    0  0.10861730657E+03  0.21809454894E+03  0.16686003248E+03  0.29530530304E+03  0.00000000000E+00 0. -1.
         -2    1    3    3    0  502  0.18234069568E+03  0.46275403482E+03  0.22096227760E+03  0.54425522888E+03  0.00000000000E+00 0.  1.
         13    1    5    5    0    0 -0.27628968824E+02  0.17885050177E+03  0.28417631980E+03  0.33690806259E+03  0.00000000000E+00 0.  1.
        -13    1    5    5    0    0  0.14801869260E+02  0.28326878737E+02  0.78215464260E+01  0.32904163583E+02  0.00000000000E+00 0. -1.
          3    1    6    6  503    0 -0.68412235195E+02 -0.13285599582E+03  0.16571598492E+03  0.22314286278E+03  0.00000000000E+00 0. -1.
         -3    1    6    6    0  503 -0.20971866749E+03 -0.75516996846E+03  0.66213381045E+03  0.10260042805E+04  0.00000000000E+00 0.  1.
<mgrwt>
<rscale>  0 0.19419710E+04</rscale>
<asrwt>0</asrwt>
<pdfrwt beam="1">  1        1 0.73142304E-01 0.19419710E+04</pdfrwt>
<pdfrwt beam="2">  1       -2 0.30509152E+00 0.19419710E+04</pdfrwt>
<totfact> 0.11481003E+00</totfact>
</mgrwt>
</event>
<event>
12    5  0.5197392E-008  0.2124085E+04  0.7818608E-02  0.8550708E-01
         -2   -1    0    0    0  501 -0.00000000000E+00  0.00000000000E+00  0.54475188467E+03  0.54475188467E+03  0.00000000000E+00 0.  1.
          1   -1    0    0  501    0  0.00000000000E+00 -0.00000000000E+00 -0.20705460096E+04  0.20705460096E+04  0.00000000000E+00 0. -1.
        -24    2    1    2    0    0 -0.71450157649E+03  0.11251166432E+03 -0.35398068699E+02  0.72864517828E+03  0.80618826287E+02 0.  0.
        254    2    1    2    0    0  0.71450157649E+03 -0.11251166432E+03 -0.14903960563E+04  0.18866527160E+04  0.90277720891E+03 0.  0.
         23    2    4    4    0    0  0.37385235999E+02 -0.23288646009E+03 -0.10129823170E+04  0.10442414769E+04  0.93130706384E+02 0.  0.
         23    2    4    4    0    0  0.67711634049E+03  0.12037479577E+03 -0.47741373928E+03  0.84241123908E+03  0.93574501129E+02 0.  0.
          3    1    3    3  502    0 -0.19937376925E+03  0.45597210985E+01 -0.34133840872E+02  0.20232599935E+03  0.00000000000E+00 0. -1.
         -4    1    3    3    0  502 -0.51512780725E+03  0.10795194322E+03 -0.12642278264E+01  0.52631917893E+03  0.00000000000E+00 0.  1.
         13    1    5    5    0    0  0.33596205603E+02 -0.17391813502E+02 -0.13605406159E+03  0.14121574941E+03  0.00000000000E+00 0. -1.
        -13    1    5    5    0    0  0.37890303957E+01 -0.21549464658E+03 -0.87692825540E+03  0.90302572753E+03  0.00000000000E+00 0.  1.
          1    1    6    6  503    0  0.78790161270E+02  0.11803651317E+02 -0.95339560328E+02  0.12424511041E+03  0.00000000000E+00 0. -1.
         -1    1    6    6    0  503  0.59832617922E+03  0.10857114445E+03 -0.38207417895E+03  0.71816612867E+03  0.00000000000E+00 0.  1.
<mgrwt>
<rscale>  0 0.21240846E+04</rscale>
<asrwt>0</asrwt>
<pdfrwt beam="1">  1        1 0.31854554E+00 0.21240846E+04</pdfrwt>
<pdfrwt beam="2">  1       -2 0.83807983E-01 0.21240846E+04</pdfrwt>
<totfact> 0.26768048E+00</totfact>
</mgrwt>
</event>
<event>
12    5  0.5197392E-008  0.1760599E+04  0.7818608E-02  0.8727538E-01
         -2   -1    0    0    0  501 -0.00000000000E+00  0.00000000000E+00  0.10054325879E+04  0.10054325879E+04  0.00000000000E+00 0.  1.
          1   -1    0    0  501    0  0.00000000000E+00 -0.00000000000E+00 -0.77074022455E+03  0.77074022455E+03  0.00000000000E+00 0. -1.
        -24    2    1    2    0    0 -0.45508016393E+03  0.45308947636E+03  0.63651659101E+01  0.64699093921E+03  0.78541268778E+02 0.  0.
        254    2    1    2    0    0  0.45508016393E+03 -0.45308947636E+03  0.22832719748E+03  0.11291818733E+04  0.90029459881E+03 0.  0.
         23    2    4    4    0    0  0.70457447640E+03 -0.25801312297E+03  0.57789749823E+02  0.75800512341E+03  0.90753223153E+02 0.  0.
         23    2    4    4    0    0 -0.24949431248E+03 -0.19507635339E+03  0.17053744766E+03  0.37117674987E+03  0.91580363503E+02 0.  0.
          1    1    3    3  502    0 -0.21229201896E+03  0.16608113297E+03 -0.19027394870E+02  0.27020896691E+03  0.00000000000E+00 0. -1.
         -2    1    3    3    0  502 -0.24278814497E+03  0.28700834338E+03  0.25392560780E+02  0.37678197230E+03  0.00000000000E+00 0.  1.
         13    1    5    5    0    0  0.50378986195E+03 -0.22709095686E+03  0.45719781211E+02  0.55449510916E+03  0.00000000000E+00 0.  1.
        -13    1    5    5    0    0  0.20078461445E+03 -0.30922166110E+02  0.12069968611E+02  0.20351001425E+03  0.00000000000E+00 0. -1.
          3    1    6    6  503    0  0.51598473859E+01  0.13948753014E+01  0.10818715809E+02  0.12067075615E+02  0.00000000000E+00 0. -1.
         -3    1    6    6    0  503 -0.25465415986E+03 -0.19647122869E+03  0.15971873185E+03  0.35910967425E+03  0.00000000000E+00 0.  1.
<mgrwt>
<rscale>  0 0.17605991E+04</rscale>
<asrwt>0</asrwt>
<pdfrwt beam="1">  1        1 0.11857542E+00 0.17605991E+04</pdfrwt>
<pdfrwt beam="2">  1       -2 0.15468194E+00 0.17605991E+04</pdfrwt>
<totfact> 0.53689578E+00</totfact>
</mgrwt>
</event>
<event>
12    5  0.5197392E-008  0.1944320E+04  0.7818608E-02  0.8633105E-01
          1   -1    0    0  501    0  0.00000000000E+00  0.00000000000E+00  0.39880872700E+03  0.39880872700E+03  0.00000000000E+00 0. -1.
         -2   -1    0    0    0  501 -0.00000000000E+00 -0.00000000000E+00 -0.23697942683E+04  0.23697942683E+04  0.00000000000E+00 0.  1.
        -24    2    1    2    0    0 -0.24979038603E+03 -0.65671602782E+03 -0.38879134005E+03  0.80694424464E+03  0.79555827645E+02 0.  0.
        254    2    1    2    0    0  0.24979038603E+03  0.65671602782E+03 -0.15821942012E+04  0.19616587506E+04  0.92254831062E+03 0.  0.
         23    2    4    4    0    0  0.35504307890E+03  0.39660911421E+03 -0.15765640264E+04  0.16664668119E+04  0.90571124562E+02 0.  0.
         23    2    4    4    0    0 -0.10525269287E+03  0.26010691361E+03 -0.56301748099E+01  0.29519193869E+03  0.91503256435E+02 0.  0.
          1    1    3    3  502    0 -0.22097857322E+03 -0.48844629442E+03 -0.28507188103E+03  0.60718801842E+03  0.00000000000E+00 0. -1.
         -2    1    3    3    0  502 -0.28811812810E+02 -0.16826973339E+03 -0.10371945902E+03  0.19975622622E+03  0.00000000000E+00 0.  1.
         13    1    5    5    0    0  0.30383710409E+03  0.28465224482E+03 -0.11857653990E+04  0.12567352417E+04  0.00000000000E+00 0. -1.
        -13    1    5    5    0    0  0.51205974810E+02  0.11195686939E+03 -0.39079862743E+03  0.40973157025E+03  0.00000000000E+00 0.  1.
          1    1    6    6  503    0 -0.11712602393E+03  0.24730070450E+03  0.68607818185E+01  0.27372105190E+03  0.00000000000E+00 0. -1.
         -1    1    6    6    0  503  0.11873331058E+02  0.12806209110E+02 -0.12490956628E+02  0.21470886793E+02  0.00000000000E+00 0.  1.
<mgrwt>
<rscale>  0 0.19443196E+04</rscale>
<asrwt>0</asrwt>
<pdfrwt beam="1">  1        1 0.61355188E-01 0.19443196E+04</pdfrwt>
<pdfrwt beam="2">  1       -2 0.36458374E+00 0.19443196E+04</pdfrwt>
<totfact> 0.61946075E-01</totfact>
</mgrwt>
</event>
<event>
12    5  0.5197392E-008  0.3010941E+04  0.7818608E-02  0.8240614E-01
          1   -1    0    0  501    0  0.00000000000E+00  0.00000000000E+00  0.13988607153E+04  0.13988607153E+04  0.00000000000E+00 0. -1.
         -2   -1    0    0    0  501 -0.00000000000E+00 -0.00000000000E+00 -0.16202050846E+04  0.16202050846E+04  0.00000000000E+00 0.  1.
        -24    2    1    2    0    0 -0.25409099760E+03 -0.84376440986E+03  0.95387270972E+03  0.13010810687E+04  0.80238310558E+02 0.  0.
        254    2    1    2    0    0  0.25409099760E+03  0.84376440986E+03 -0.11752170790E+04  0.17179847313E+04  0.89097460107E+03 0.  0.
         23    2    4    4    0    0  0.22784200060E+03  0.67760103921E+03 -0.13006679309E+04  0.14870245396E+04  0.91922625956E+02 0.  0.
         23    2    4    4    0    0  0.26248997001E+02  0.16616337065E+03  0.12545085190E+03  0.23096019174E+03  0.96464596287E+02 0.  0.
          3    1    3    3  502    0 -0.14592755606E+03 -0.58932930868E+03  0.62299082614E+03  0.86989738196E+03  0.00000000000E+00 0. -1.
         -4    1    3    3    0  502 -0.10816344155E+03 -0.25443510118E+03  0.33088188358E+03  0.43118368671E+03  0.00000000000E+00 0.  1.
         13    1    5    5    0    0  0.15548700142E+03  0.43857422670E+03 -0.75419815792E+03  0.88619321897E+03  0.00000000000E+00 0. -1.
        -13    1    5    5    0    0  0.72354999186E+02  0.23902681251E+03 -0.54646977300E+03  0.60083132060E+03  0.00000000000E+00 0.  1.
          1    1    6    6  503    0 -0.13522492853E+02 -0.32878043492E+00  0.34639519354E+02  0.37186855347E+02  0.00000000000E+00 0. -1.
         -1    1    6    6    0  503  0.39771489854E+02  0.16649215108E+03  0.90811332543E+02  0.19377333639E+03  0.00000000000E+00 0.  1.
<mgrwt>
<rscale>  0 0.30109409E+04</rscale>
<asrwt>0</asrwt>
<pdfrwt beam="1">  1        1 0.21520934E+00 0.30109409E+04</pdfrwt>
<pdfrwt beam="2">  1       -2 0.24926232E+00 0.30109409E+04</pdfrwt>
<totfact> 0.37317698E-01</totfact>
</mgrwt>
</event>
<event>
12    5  0.5197392E-008  0.3462680E+04  0.7818608E-02  0.8122692E-01
          1   -1    0    0  501    0  0.00000000000E+00  0.00000000000E+00  0.17511810421E+04  0.17511810421E+04  0.00000000000E+00 0. -1.
         -2   -1    0    0    0  501 -0.00000000000E+00 -0.00000000000E+00 -0.17117238928E+04  0.17117238928E+04  0.00000000000E+00 0.  1.
        -24    2    1    2    0    0  0.10247904735E+04  0.12810296035E+02  0.12669743040E+04  0.16314785707E+04  0.78350631131E+02 0.  0.
        254    2    1    2    0    0 -0.10247904735E+04 -0.12810296035E+02 -0.12275171548E+04  0.18314263641E+04  0.89272870671E+03 0.  0.
         23    2    4    4    0    0 -0.27762162105E+03 -0.27466979276E+03 -0.43056726281E+02  0.40368874200E+03  0.92700912678E+02 0.  0.
         23    2    4    4    0    0 -0.74716885244E+03  0.26185949672E+03 -0.11844604285E+04  0.14277376221E+04  0.93040426415E+02 0.  0.
          1    1    3    3  502    0  0.94910596930E+03  0.30908606264E+02  0.11580078652E+04  0.14975779442E+04  0.00000000000E+00 0. -1.
         -2    1    3    3    0  502  0.75684504191E+02 -0.18098310229E+02  0.10896643880E+03  0.13390062656E+03  0.00000000000E+00 0.  1.
         13    1    5    5    0    0 -0.54297893500E+01 -0.17380352006E+02 -0.21987756053E+02  0.28548566768E+02  0.00000000000E+00 0. -1.
        -13    1    5    5    0    0 -0.27219183170E+03 -0.25728944075E+03 -0.21068970228E+02  0.37514017523E+03  0.00000000000E+00 0.  1.
          2    1    6    6  503    0 -0.24326327044E+03  0.13106113995E+03 -0.39384809691E+03  0.48111367117E+03  0.00000000000E+00 0. -1.
         -2    1    6    6    0  503 -0.50390558200E+03  0.13079835677E+03 -0.79061233158E+03  0.94662395098E+03  0.00000000000E+00 0.  1.
<mgrwt>
<rscale>  0 0.34626801E+04</rscale>
<asrwt>0</asrwt>
<pdfrwt beam="1">  1        1 0.26941247E+00 0.34626801E+04</pdfrwt>
<pdfrwt beam="2">  1       -2 0.26334214E+00 0.34626801E+04</pdfrwt>
<totfact> 0.16835517E-01</totfact>
</mgrwt>
</event>
<event>
12    5  0.5197392E-008  0.3383899E+04  0.7818608E-02  0.8141869E-01
          1   -1    0    0  501    0  0.00000000000E+00  0.00000000000E+00  0.12956256807E+04  0.12956256807E+04  0.00000000000E+00 0. -1.
         -2   -1    0    0    0  501 -0.00000000000E+00 -0.00000000000E+00 -0.22095061371E+04  0.22095061371E+04  0.00000000000E+00 0.  1.
        -24    2    1    2    0    0  0.14277337802E+04 -0.66471095871E+03 -0.53619442692E+03  0.16655603423E+04  0.79513424662E+02 0.  0.
        254    2    1    2    0    0 -0.14277337802E+04  0.66471095871E+03 -0.37768602949E+03  0.18395714754E+04  0.87241737185E+03 0.  0.
         23    2    4    4    0    0 -0.14302941610E+04  0.60300189692E+03 -0.53707587105E+03  0.16450489034E+04  0.91557242292E+02 0.  0.
         23    2    4    4    0    0  0.25603808753E+01  0.61709061784E+02  0.15938984156E+03  0.19452257200E+03  0.92840430678E+02 0.  0.
          3    1    3    3  502    0  0.20326664433E+03 -0.64844830472E+02 -0.75589584067E+02  0.22635363031E+03  0.00000000000E+00 0. -1.
         -4    1    3    3    0  502  0.12244671358E+04 -0.59986612824E+03 -0.46060484286E+03  0.14392067120E+04  0.00000000000E+00 0.  1.
         13    1    5    5    0    0 -0.12723818431E+04  0.53100376632E+03 -0.50646750224E+03  0.14688192147E+04  0.00000000000E+00 0. -1.
        -13    1    5    5    0    0 -0.15791231789E+03  0.71998130609E+02 -0.30608368814E+02  0.17622968874E+03  0.00000000000E+00 0.  1.
          4    1    6    6  503    0 -0.18678596422E+02  0.62294651565E+02  0.47248460735E+02  0.80386134499E+02  0.00000000000E+00 0.  1.
         -4    1    6    6    0  503  0.21238977297E+02 -0.58558978092E+00  0.11214138083E+03  0.11413643750E+03  0.00000000000E+00 0. -1.
<mgrwt>
<rscale>  0 0.33838989E+04</rscale>
<asrwt>0</asrwt>
<pdfrwt beam="1">  1        1 0.19932703E+00 0.33838989E+04</pdfrwt>
<pdfrwt beam="2">  1       -2 0.33992401E+00 0.33838989E+04</pdfrwt>
<totfact> 0.11858058E-01</totfact>
</mgrwt>
</event>
<event>
12    5  0.5197392E-008  0.1605935E+04  0.7818608E-02  0.8816910E-01
          1   -1    0    0  501    0  0.00000000000E+00  0.00000000000E+00  0.11052757887E+04  0.11052757887E+04  0.00000000000E+00 0. -1.
         -2   -1    0    0    0  501 -0.00000000000E+00 -0.00000000000E+00 -0.58334475288E+03  0.58334475288E+03  0.00000000000E+00 0.  1.
        -24    2    1    2    0    0  0.58378085360E+02 -0.16005977439E+03 -0.36710388363E+03  0.41221065785E+03  0.78263866787E+02 0.  0.
        254    2    1    2    0    0 -0.58378085360E+02  0.16005977439E+03  0.88903491945E+03  0.12764098837E+04  0.89989553342E+03 0.  0.
         23    2    4    4    0    0 -0.34422198462E+03  0.11388139862E+03  0.89796392134E+03  0.97272305878E+03  0.91614395201E+02 0.  0.
         23    2    4    4    0    0  0.28584389926E+03  0.46178375774E+02 -0.89290018862E+01  0.30368682496E+03  0.91141557195E+02 0.  0.
          3    1    3    3  502    0 -0.72628876691E+01 -0.78669198765E+02 -0.20060998012E+03  0.21560602147E+03  0.00000000000E+00 0. -1.
         -4    1    3    3    0  502  0.65640973029E+02 -0.81390575627E+02 -0.16649390351E+03  0.19660463638E+03  0.00000000000E+00 0.  1.
         13    1    5    5    0    0 -0.29421524416E+03  0.10574158996E+03  0.83682519125E+03  0.89331981644E+03  0.00000000000E+00 0.  1.
        -13    1    5    5    0    0 -0.50006740459E+02  0.81398086586E+01  0.61138730091E+02  0.79403242336E+02  0.00000000000E+00 0. -1.
          2    1    6    6  503    0  0.18884717266E+03  0.42874419083E+02  0.35613592431E+02  0.19690047841E+03  0.00000000000E+00 0. -1.
         -2    1    6    6    0  503  0.96996726597E+02  0.33039566908E+01 -0.44542594317E+02  0.10678634655E+03  0.00000000000E+00 0.  1.
<mgrwt>
<rscale>  0 0.16059350E+04</rscale>
<asrwt>0</asrwt>
<pdfrwt beam="1">  1        1 0.17004243E+00 0.16059350E+04</pdfrwt>
<pdfrwt beam="2">  1       -2 0.89745347E-01 0.16059350E+04</pdfrwt>
<totfact> 0.11239464E+01</totfact>
</mgrwt>
</event>
<event>
12    5  0.5197392E-008  0.1681043E+04  0.7818608E-02  0.8772251E-01
         -2   -1    0    0    0  501 -0.00000000000E+00  0.00000000000E+00  0.24711067098E+03  0.24711067098E+03  0.00000000000E+00 0.  1.
          1   -1    0    0  501    0  0.00000000000E+00 -0.00000000000E+00 -0.28589473724E+04  0.28589473724E+04  0.00000000000E+00 0. -1.
        -24    2    1    2    0    0  0.24965797622E+03  0.53333342694E+03 -0.93698010908E+03  0.11094756916E+04  0.78936278582E+02 0.  0.
        254    2    1    2    0    0 -0.24965797622E+03 -0.53333342694E+03 -0.16748565924E+04  0.19965823518E+04  0.91346747788E+03 0.  0.
         23    2    4    4    0    0 -0.19189337038E+03  0.20372919339E+03 -0.23756358104E+03  0.37770919155E+03  0.88877041525E+02 0.  0.
         23    2    4    4    0    0 -0.57764605847E+02 -0.73706262033E+03 -0.14372930113E+04  0.16188731602E+04  0.91329363315E+02 0.  0.
          3    1    3    3  502    0  0.34535798193E+02  0.30779078347E+02 -0.93881391702E+02  0.10466034936E+03  0.00000000000E+00 0. -1.
         -4    1    3    3    0  502  0.21512217803E+03  0.50255434859E+03 -0.84309871737E+03  0.10048153422E+04  0.00000000000E+00 0.  1.
         13    1    5    5    0    0 -0.87869761573E+02  0.75939998852E+02 -0.15420863984E+03  0.19304994956E+03  0.00000000000E+00 0.  1.
        -13    1    5    5    0    0 -0.10402360880E+03  0.12778919454E+03 -0.83354941202E+02  0.18465924199E+03  0.00000000000E+00 0. -1.
          1    1    6    6  503    0 -0.88504283676E+01 -0.58402679293E+03 -0.11121630357E+04  0.12562134544E+04  0.00000000000E+00 0. -1.
         -1    1    6    6    0  503 -0.48914177480E+02 -0.15303582740E+03 -0.32512997559E+03  0.36265970586E+03  0.00000000000E+00 0.  1.
<mgrwt>
<rscale>  0 0.16810430E+04</rscale>
<asrwt>0</asrwt>
<pdfrwt beam="1">  1        1 0.43983808E+00 0.16810430E+04</pdfrwt>
<pdfrwt beam="2">  1       -2 0.38017025E-01 0.16810430E+04</pdfrwt>
<totfact> 0.41481588E+00</totfact>
</mgrwt>
</event>
<event>
12    5  0.5197392E-008  0.2229173E+04  0.7818608E-02  0.8506383E-01
         -2   -1    0    0    0  501 -0.00000000000E+00  0.00000000000E+00  0.91723792480E+03  0.91723792480E+03  0.00000000000E+00 0.  1.
          1   -1    0    0  501    0  0.00000000000E+00 -0.00000000000E+00 -0.13543960047E+04  0.13543960047E+04  0.00000000000E+00 0. -1.
        -24    2    1    2    0    0  0.23662538738E+02 -0.66371965621E+03 -0.85438179820E+03  0.10849455248E+04  0.77812833053E+02 0.  0.
        254    2    1    2    0    0 -0.23662538738E+02  0.66371965621E+03  0.41722371832E+03  0.11866884046E+04  0.89054480000E+03 0.  0.
         23    2    4    4    0    0 -0.24666349768E+03  0.40410718224E+03 -0.16076942993E+03  0.50828836372E+03  0.91459036021E+02 0.  0.
         23    2    4    4    0    0  0.22300095894E+03  0.25961247397E+03  0.57799314825E+03  0.67840004092E+03  0.94986692597E+02 0.  0.
          1    1    3    3  502    0  0.20758494329E+02 -0.62297538434E+03 -0.82770400096E+03  0.10361578827E+04  0.00000000000E+00 0. -1.
         -2    1    3    3    0  502  0.29040444087E+01 -0.40744271875E+02 -0.26677797245E+02  0.48787642189E+02  0.00000000000E+00 0.  1.
         13    1    5    5    0    0 -0.17349671382E+03  0.26539450392E+03 -0.62374009898E+02  0.32314991804E+03  0.00000000000E+00 0. -1.
        -13    1    5    5    0    0 -0.73166783860E+02  0.13871267832E+03 -0.98395420034E+02  0.18513844569E+03  0.00000000000E+00 0.  1.
          1    1    6    6  503    0  0.21735397938E+03  0.20664505512E+03  0.46267785088E+03  0.55137620991E+03  0.00000000000E+00 0. -1.
         -1    1    6    6    0  503  0.56469795568E+01  0.52967418850E+02  0.11531529736E+03  0.12702383101E+03  0.00000000000E+00 0.  1.
<mgrwt>
<rscale>  0 0.22291733E+04</rscale>
<asrwt>0</asrwt>
<pdfrwt beam="1">  1        1 0.20836861E+00 0.22291733E+04</pdfrwt>
<pdfrwt beam="2">  1       -2 0.14111353E+00 0.22291733E+04</pdfrwt>
<totfact> 0.23234574E+00</totfact>
</mgrwt>
</event>
<event>
12    5  0.5197392E-008  0.2306904E+04  0.7818608E-02  0.8475204E-01
          1   -1    0    0  501    0  0.00000000000E+00  0.00000000000E+00  0.15045250716E+04  0.15045250716E+04  0.00000000000E+00 0. -1.
         -2   -1    0    0    0  501 -0.00000000000E+00 -0.00000000000E+00 -0.88430034254E+03  0.88430034254E+03  0.00000000000E+00 0.  1.
        -24    2    1    2    0    0  0.86791124028E+03  0.35224927503E+03  0.55464362270E+03  0.10913748242E+04  0.78230339405E+02 0.  0.
        254    2    1    2    0    0 -0.86791124028E+03 -0.35224927503E+03  0.65581106378E+02  0.12974505899E+04  0.89539247205E+03 0.  0.
         23    2    4    4    0    0 -0.10351438313E+04 -0.24149050108E+03  0.64584144890E+00  0.10668292921E+04  0.91015974559E+02 0.  0.
         23    2    4    4    0    0  0.16723259106E+03 -0.11075877395E+03  0.64935264929E+02  0.23062129785E+03  0.93463088274E+02 0.  0.
          1    1    3    3  502    0  0.23082822989E+03  0.10979253595E+03  0.11539479372E+03  0.28044969438E+03  0.00000000000E+00 0. -1.
         -2    1    3    3    0  502  0.63708301040E+03  0.24245673907E+03  0.43924882898E+03  0.81092512985E+03  0.00000000000E+00 0.  1.
         13    1    5    5    0    0 -0.43031986387E+02  0.65073274642E+00  0.14761297621E+02  0.45498035265E+02  0.00000000000E+00 0.  1.
        -13    1    5    5    0    0 -0.99211184496E+03 -0.24214123382E+03 -0.14115456172E+02  0.10213312568E+04  0.00000000000E+00 0. -1.
          2    1    6    6  503    0  0.57068561153E+02  0.67753595085E+01  0.14966001605E+01  0.57488833530E+02  0.00000000000E+00 0. -1.
         -2    1    6    6    0  503  0.11016402991E+03 -0.11753413346E+03  0.63438664768E+02  0.17313246432E+03  0.00000000000E+00 0.  1.
<mgrwt>
<rscale>  0 0.23069045E+04</rscale>
<asrwt>0</asrwt>
<pdfrwt beam="1">  1        1 0.23146540E+00 0.23069045E+04</pdfrwt>
<pdfrwt beam="2">  1       -2 0.13604621E+00 0.23069045E+04</pdfrwt>
<totfact> 0.19924068E+00</totfact>
</mgrwt>
</event>
<event>
12    5  0.5197392E-008  0.1275172E+04  0.7818608E-02  0.9049489E-01
         -4   -1    0    0    0  501 -0.00000000000E+00  0.00000000000E+00  0.10247633105E+04  0.10247633105E+04  0.00000000000E+00 0.  1.
          3   -1    0    0  501    0  0.00000000000E+00 -0.00000000000E+00 -0.39669223746E+03  0.39669223746E+03  0.00000000000E+00 0. -1.
        -24    2    1    2    0    0  0.17783150846E+03 -0.37078546768E+02  0.43145793139E+03  0.47401031524E+03  0.74370480445E+02 0.  0.
        254    2    1    2    0    0 -0.17783150846E+03  0.37078546768E+02  0.19661314167E+03  0.94744523275E+03  0.90884370359E+03 0.  0.
         23    2    4    4    0    0 -0.10319383442E+03  0.36506042261E+03 -0.18408370583E+03  0.43124992592E+03  0.90396948131E+02 0.  0.
         23    2    4    4    0    0 -0.74637674044E+02 -0.32798187585E+03  0.38069684751E+03  0.51619530683E+03  0.91567526027E+02 0.  0.
          3    1    3    3  502    0  0.25105250482E+02  0.20619596836E+02  0.85512445610E+02  0.91475787669E+02  0.00000000000E+00 0. -1.
         -4    1    3    3    0  502  0.15272625798E+03 -0.57698143604E+02  0.34594548578E+03  0.38253452757E+03  0.00000000000E+00 0.  1.
         13    1    5    5    0    0  0.68885226229E+01  0.11872677428E+03 -0.72442745064E+02  0.13925318663E+03  0.00000000000E+00 0. -1.
        -13    1    5    5    0    0 -0.11008235704E+03  0.24633364833E+03 -0.11164096077E+03  0.29199673929E+03  0.00000000000E+00 0.  1.
          1    1    6    6  503    0 -0.86607059200E+02 -0.18352380882E+03  0.23831183008E+03  0.31300846548E+03  0.00000000000E+00 0. -1.
         -1    1    6    6    0  503  0.11969385156E+02 -0.14445806703E+03  0.14238501742E+03  0.20318684135E+03  0.00000000000E+00 0.  1.
<mgrwt>
<rscale>  0 0.12751716E+04</rscale>
<asrwt>0</asrwt>
<pdfrwt beam="1">  1        3 0.61029575E-01 0.12751716E+04</pdfrwt>
<pdfrwt beam="2">  1       -4 0.15765589E+00 0.12751716E+04</pdfrwt>
<totfact> 0.15319338E+00</totfact>
</mgrwt>
</event>
<event>
12    5  0.5197392E-008  0.1261070E+04  0.7818608E-02  0.9061019E-01
          1   -1    0    0  501    0  0.00000000000E+00  0.00000000000E+00  0.39908098506E+04  0.39908098506E+04  0.00000000000E+00 0. -1.
         -2   -1    0    0    0  501 -0.00000000000E+00 -0.00000000000E+00 -0.99622555118E+02  0.99622555118E+02  0.00000000000E+00 0.  1.
        -24    2    1    2    0    0  0.19021863190E+03 -0.73119493664E+02  0.16802304082E+04  0.16943234882E+04  0.77641933196E+02 0.  0.
        254    2    1    2    0    0 -0.19021863190E+03  0.73119493664E+02  0.22109568872E+04  0.23961089175E+04  0.90082073624E+03 0.  0.
         23    2    4    4    0    0  0.25047184503E+03 -0.16364642951E+03  0.36161375551E+03  0.47807721541E+03  0.90978110983E+02 0.  0.
         23    2    4    4    0    0 -0.44069047693E+03  0.23676592317E+03  0.18493431317E+04  0.19180317021E+04  0.92246367833E+02 0.  0.
          1    1    3    3  502    0  0.13262092166E+03 -0.13042173857E+02  0.11308366148E+04  0.11386614320E+04  0.00000000000E+00 0. -1.
         -2    1    3    3    0  502  0.57597710243E+02 -0.60077319807E+02  0.54939379336E+03  0.55566205625E+03  0.00000000000E+00 0.  1.
         13    1    5    5    0    0  0.25351111736E+02 -0.55867542887E+02  0.92915086900E+02  0.11134215099E+03  0.00000000000E+00 0.  1.
        -13    1    5    5    0    0  0.22512073329E+03 -0.10777888662E+03  0.26869866861E+03  0.36673506442E+03  0.00000000000E+00 0. -1.
          3    1    6    6  503    0 -0.30515493415E+03  0.19799967105E+03  0.12190333055E+04  0.12721499926E+04  0.00000000000E+00 0. -1.
         -3    1    6    6    0  503 -0.13553554279E+03  0.38766252125E+02  0.63030982619E+03  0.64588170949E+03  0.00000000000E+00 0.  1.
<mgrwt>
<rscale>  0 0.12610705E+04</rscale>
<asrwt>0</asrwt>
<pdfrwt beam="1">  1        1 0.61397062E+00 0.12610705E+04</pdfrwt>
<pdfrwt beam="2">  1       -2 0.15326550E-01 0.12610705E+04</pdfrwt>
<totfact> 0.29514681E+00</totfact>
</mgrwt>
</event>
<event>
12    5  0.5197392E-008  0.1686809E+04  0.7818608E-02  0.8768924E-01
         -2   -1    0    0    0  501 -0.00000000000E+00  0.00000000000E+00  0.49595203267E+03  0.49595203267E+03  0.00000000000E+00 0.  1.
          1   -1    0    0  501    0  0.00000000000E+00 -0.00000000000E+00 -0.14342738974E+04  0.14342738974E+04  0.00000000000E+00 0. -1.
        -24    2    1    2    0    0  0.49798629999E+03  0.30605964599E+03 -0.49289382832E+03  0.76829526391E+03  0.75302222186E+02 0.  0.
        254    2    1    2    0    0 -0.49798629999E+03 -0.30605964599E+03 -0.44542803637E+03  0.11619306661E+04  0.90000770853E+03 0.  0.
         23    2    4    4    0    0 -0.15336457896E+03  0.28958458054E+03 -0.29902624177E+03  0.45256848793E+03  0.89563494985E+02 0.  0.
         23    2    4    4    0    0 -0.34462172103E+03 -0.59564422653E+03 -0.14640179460E+03  0.70936217819E+03  0.90581671348E+02 0.  0.
          1    1    3    3  502    0  0.21111772949E+03  0.13202738499E+03 -0.16207374104E+03  0.29710237904E+03  0.00000000000E+00 0. -1.
         -2    1    3    3    0  502  0.28686857050E+03  0.17403226100E+03 -0.33082008727E+03  0.47119288487E+03  0.00000000000E+00 0.  1.
         13    1    5    5    0    0 -0.13011747062E+03  0.15228033525E+03 -0.18298716918E+03  0.27130086758E+03  0.00000000000E+00 0.  1.
        -13    1    5    5    0    0 -0.23247108347E+02  0.13730424529E+03 -0.11603907259E+03  0.18126762035E+03  0.00000000000E+00 0. -1.
          4    1    6    6  503    0 -0.21376811193E+03 -0.41338989111E+03 -0.13558054423E+03  0.48473713673E+03  0.00000000000E+00 0. -1.
         -4    1    6    6    0  503 -0.13085360909E+03 -0.18225433543E+03 -0.10821250370E+02  0.22462504147E+03  0.00000000000E+00 0.  1.
<mgrwt>
<rscale>  0 0.16868089E+04</rscale>
<asrwt>0</asrwt>
<pdfrwt beam="1">  1        1 0.22065752E+00 0.16868089E+04</pdfrwt>
<pdfrwt beam="2">  1       -2 0.76300314E-01 0.16868089E+04</pdfrwt>
<totfact> 0.93386933E+00</totfact>
</mgrwt>
</event>
<event>
12    5  0.5197392E-008  0.1613560E+04  0.7818608E-02  0.8812260E-01
          3   -1    0    0  501    0  0.00000000000E+00  0.00000000000E+00  0.10953602543E+04  0.10953602543E+04  0.00000000000E+00 0. -1.
         -4   -1    0    0    0  501 -0.00000000000E+00 -0.00000000000E+00 -0.59422855904E+03  0.59422855904E+03  0.00000000000E+00 0.  1.
        -24    2    1    2    0    0  0.32304060052E+03  0.43787892441E+03  0.17002365704E+03  0.57513364430E+03  0.76009754795E+02 0.  0.
        254    2    1    2    0    0 -0.32304060052E+03 -0.43787892441E+03  0.33110803824E+03  0.11144551691E+04  0.91448598068E+03 0.  0.
         23    2    4    4    0    0 -0.24460479855E+03  0.40125633602E+02 -0.24232539484E+03  0.35842886303E+03  0.91148663876E+02 0.  0.
         23    2    4    4    0    0 -0.78435801972E+02 -0.47800455802E+03  0.57343343308E+03  0.75602630604E+03  0.90051878053E+02 0.  0.
          3    1    3    3  502    0  0.24461250052E+03  0.29411839369E+03  0.14674354532E+03  0.40972499681E+03  0.00000000000E+00 0. -1.
         -4    1    3    3    0  502  0.78428099994E+02  0.14376053072E+03  0.23280111726E+02  0.16540864749E+03  0.00000000000E+00 0.  1.
         13    1    5    5    0    0 -0.14256301293E+03  0.34765891175E+02 -0.19945175209E+03  0.24761639941E+03  0.00000000000E+00 0.  1.
        -13    1    5    5    0    0 -0.10204178562E+03  0.53597424266E+01 -0.42873642744E+02  0.11081246362E+03  0.00000000000E+00 0. -1.
          1    1    6    6  503    0 -0.34525569751E+02 -0.42840661605E+02  0.72689971974E+02  0.91165614565E+02  0.00000000000E+00 0. -1.
         -1    1    6    6    0  503 -0.43910232221E+02 -0.43516389641E+03  0.50074346111E+03  0.66486069148E+03  0.00000000000E+00 0.  1.
<mgrwt>
<rscale>  0 0.16135605E+04</rscale>
<asrwt>0</asrwt>
<pdfrwt beam="1">  1        3 0.16851696E+00 0.16135605E+04</pdfrwt>
<pdfrwt beam="2">  1       -4 0.91419778E-01 0.16135605E+04</pdfrwt>
<totfact> 0.53256459E-01</totfact>
</mgrwt>
</event>
<event>
12    5  0.5197392E-008  0.1619499E+04  0.7818608E-02  0.8808658E-01
          1   -1    0    0  501    0  0.00000000000E+00  0.00000000000E+00  0.11256975592E+04  0.11256975592E+04  0.00000000000E+00 0. -1.
         -2   -1    0    0    0  501 -0.00000000000E+00 -0.00000000000E+00 -0.58247801929E+03  0.58247801929E+03  0.00000000000E+00 0.  1.
        -24    2    1    2    0    0  0.44795199309E+03 -0.69640994970E+02  0.52723381419E+03  0.69998226990E+03  0.80553256016E+02 0.  0.
        254    2    1    2    0    0 -0.44795199309E+03  0.69640994970E+02  0.15985725703E+02  0.10081933086E+04  0.90038177888E+03 0.  0.
         23    2    4    4    0    0 -0.46429078314E+03 -0.28402693201E+03 -0.19596396581E+03  0.58541140512E+03  0.89818750429E+02 0.  0.
         23    2    4    4    0    0  0.16338790051E+02  0.35366792698E+03  0.21194969151E+03  0.42278190346E+03  0.92053829497E+02 0.  0.
          1    1    3    3  502    0  0.28290763048E+03 -0.48167903254E+01  0.31489309595E+03  0.42334098636E+03  0.00000000000E+00 0. -1.
         -2    1    3    3    0  502  0.16504436261E+03 -0.64824204645E+02  0.21234071824E+03  0.27664128354E+03  0.00000000000E+00 0.  1.
         13    1    5    5    0    0 -0.24805039176E+03 -0.18434991613E+03 -0.73574328223E+02  0.31769021106E+03  0.00000000000E+00 0. -1.
        -13    1    5    5    0    0 -0.21624039138E+03 -0.99677015883E+02 -0.12238963759E+03  0.26772119406E+03  0.00000000000E+00 0.  1.
          3    1    6    6  503    0  0.46512518302E+02  0.29938189199E+03  0.16553107133E+03  0.34524406901E+03  0.00000000000E+00 0. -1.
         -3    1    6    6    0  503 -0.30173728251E+02  0.54286034993E+02  0.46418620184E+02  0.77537834452E+02  0.00000000000E+00 0.  1.
<mgrwt>
<rscale>  0 0.16194988E+04</rscale>
<asrwt>0</asrwt>
<pdfrwt beam="1">  1        1 0.17318424E+00 0.16194988E+04</pdfrwt>
<pdfrwt beam="2">  1       -2 0.89612003E-01 0.16194988E+04</pdfrwt>
<totfact> 0.10875481E+01</totfact>
</mgrwt>
</event>
<event>
12    5  0.5197392E-008  0.2397286E+04  0.7818608E-02  0.8440520E-01
         -2   -1    0    0    0  501 -0.00000000000E+00  0.00000000000E+00  0.58768244812E+03  0.58768244812E+03  0.00000000000E+00 0.  1.
          1   -1    0    0  501    0  0.00000000000E+00 -0.00000000000E+00 -0.24447643061E+04  0.24447643061E+04  0.00000000000E+00 0. -1.
        -24    2    1    2    0    0 -0.46318819427E+03  0.51581385675E+03  0.16237759487E+03  0.71648085391E+03  0.79819124215E+02 0.  0.
        254    2    1    2    0    0  0.46318819427E+03 -0.51581385675E+03 -0.20194594529E+04  0.23159659003E+04  0.89714788723E+03 0.  0.
         23    2    4    4    0    0  0.66464262887E+03 -0.59769225476E+03 -0.15712821369E+04  0.18101082291E+04  0.92619609363E+02 0.  0.
         23    2    4    4    0    0 -0.20145443460E+03  0.81878398008E+02 -0.44817731600E+03  0.50585767119E+03  0.87983610070E+02 0.  0.
          1    1    3    3  502    0 -0.45473084722E+03  0.51754846936E+03  0.15810361327E+03  0.70684744753E+03  0.00000000000E+00 0. -1.
         -2    1    3    3    0  502 -0.84573470437E+01 -0.17346126077E+01  0.42739815958E+01  0.96334063860E+01  0.00000000000E+00 0.  1.
         13    1    5    5    0    0  0.40958254662E+02 -0.29812652313E+02 -0.13856995806E+03  0.14753984594E+03  0.00000000000E+00 0. -1.
        -13    1    5    5    0    0  0.62368437421E+03 -0.56787960244E+03 -0.14327121788E+04  0.16625683832E+04  0.00000000000E+00 0.  1.
          3    1    6    6  503    0 -0.37966139922E+02  0.11303365970E+02 -0.25262765542E+02  0.46982988258E+02  0.00000000000E+00 0. -1.
         -3    1    6    6    0  503 -0.16348829468E+03  0.70575032038E+02 -0.42291455046E+03  0.45887468293E+03  0.00000000000E+00 0.  1.
<mgrwt>
<rscale>  0 0.23972860E+04</rscale>
<asrwt>0</asrwt>
<pdfrwt beam="1">  1        1 0.37611758E+00 0.23972860E+04</pdfrwt>
<pdfrwt beam="2">  1       -2 0.90412685E-01 0.23972860E+04</pdfrwt>
<totfact> 0.12187407E+00</totfact>
</mgrwt>
</event>
<event>
12    5  0.5197392E-008  0.2303950E+04  0.7818608E-02  0.8476365E-01
         -2   -1    0    0    0  501 -0.00000000000E+00  0.00000000000E+00  0.10112948071E+04  0.10112948071E+04  0.00000000000E+00 0.  1.
          1   -1    0    0  501    0  0.00000000000E+00 -0.00000000000E+00 -0.13122246197E+04  0.13122246197E+04  0.00000000000E+00 0. -1.
        -24    2    1    2    0    0  0.10416225617E+03  0.83199310479E+02  0.84561375070E+03  0.85980834079E+03  0.80223853290E+02 0.  0.
        254    2    1    2    0    0 -0.10416225617E+03 -0.83199310479E+02 -0.11465435633E+04  0.14637110861E+04  0.90006449775E+03 0.  0.
         23    2    4    4    0    0 -0.22442761387E+03  0.87298949147E+02 -0.12025127625E+04  0.12297885888E+04  0.91401141645E+02 0.  0.
         23    2    4    4    0    0  0.12026535770E+03 -0.17049825963E+03  0.55969199207E+02  0.23392249732E+03  0.89742803025E+02 0.  0.
          3    1    3    3  502    0  0.88192498748E+01  0.98854980382E+01  0.33342542423E+03  0.33368850109E+03  0.00000000000E+00 0. -1.
         -4    1    3    3    0  502  0.95343006300E+02  0.73313812441E+02  0.51218832647E+03  0.52611983969E+03  0.00000000000E+00 0.  1.
         13    1    5    5    0    0 -0.21369184608E+03  0.94361648450E+02 -0.10022070865E+04  0.10290711200E+04  0.00000000000E+00 0.  1.
        -13    1    5    5    0    0 -0.10735767787E+02 -0.70626993037E+01 -0.20030567598E+03  0.20071746875E+03  0.00000000000E+00 0. -1.
          1    1    6    6  503    0 -0.48409458987E+01 -0.55823795412E+02  0.25224199052E+02  0.61449093641E+02  0.00000000000E+00 0. -1.
         -1    1    6    6    0  503  0.12510630359E+03 -0.11467446421E+03  0.30745000155E+02  0.17247340368E+03  0.00000000000E+00 0.  1.
<mgrwt>
<rscale>  0 0.23039496E+04</rscale>
<asrwt>0</asrwt>
<pdfrwt beam="1">  1        1 0.20188071E+00 0.23039496E+04</pdfrwt>
<pdfrwt beam="2">  1       -2 0.15558382E+00 0.23039496E+04</pdfrwt>
<totfact> 0.19105211E+00</totfact>
</mgrwt>
</event>
<event>
12    5  0.5197392E-008  0.1444144E+04  0.7818608E-02  0.8922471E-01
         -2   -1    0    0    0  501 -0.00000000000E+00  0.00000000000E+00  0.16335605179E+04  0.16335605179E+04  0.00000000000E+00 0.  1.
          1   -1    0    0  501    0  0.00000000000E+00 -0.00000000000E+00 -0.31917260049E+03  0.31917260049E+03  0.00000000000E+00 0. -1.
        -24    2    1    2    0    0 -0.22945395735E+03  0.33754719624E+03  0.19878640246E+03  0.46098673930E+03  0.80034441218E+02 0.  0.
        254    2    1    2    0    0  0.22945395735E+03 -0.33754719624E+03  0.11156015150E+04  0.14917463791E+04  0.90230443376E+03 0.  0.
         23    2    4    4    0    0  0.43454388462E+03  0.76168412773E+02  0.81878389581E+03  0.93486127591E+03  0.94490858818E+02 0.  0.
         23    2    4    4    0    0 -0.20508992728E+03 -0.41371560901E+03  0.29681761919E+03  0.55688510322E+03  0.93796778854E+02 0.  0.
          3    1    3    3  502    0 -0.20352290094E+03  0.33107475261E+03  0.19169795248E+03  0.43333609128E+03  0.00000000000E+00 0. -1.
         -4    1    3    3    0  502 -0.25931056408E+02  0.64724436282E+01  0.70884499786E+01  0.27650648022E+02  0.00000000000E+00 0.  1.
         13    1    5    5    0    0  0.38859393921E+03  0.66243151094E+02  0.77986344768E+03  0.87383087705E+03  0.00000000000E+00 0. -1.
        -13    1    5    5    0    0  0.45949945414E+02  0.99252616790E+01  0.38920448124E+02  0.61030398861E+02  0.00000000000E+00 0.  1.
          1    1    6    6  503    0 -0.19354144173E+03 -0.30090463321E+03  0.22339744649E+03  0.42179178163E+03  0.00000000000E+00 0. -1.
         -1    1    6    6    0  503 -0.11548485544E+02 -0.11281097580E+03  0.73420172703E+02  0.13509332159E+03  0.00000000000E+00 0.  1.
<mgrwt>
<rscale>  0 0.14441437E+04</rscale>
<asrwt>0</asrwt>
<pdfrwt beam="1">  1        1 0.49103478E-01 0.14441437E+04</pdfrwt>
<pdfrwt beam="2">  1       -2 0.25131700E+00 0.14441437E+04</pdfrwt>
<totfact> 0.43315845E+00</totfact>
</mgrwt>
</event>
<event>
12    5  0.5197392E-008  0.2071678E+04  0.7818608E-02  0.8573823E-01
          1   -1    0    0  501    0  0.00000000000E+00  0.00000000000E+00  0.10252195979E+04  0.10252195979E+04  0.00000000000E+00 0. -1.
         -2   -1    0    0    0  501 -0.00000000000E+00 -0.00000000000E+00 -0.10465681443E+04  0.10465681443E+04  0.00000000000E+00 0.  1.
        -24    2    1    2    0    0  0.46063575797E+03 -0.20426175045E+03  0.65808144311E+03  0.83280154995E+03  0.81111476438E+02 0.  0.
        254    2    1    2    0    0 -0.46063575797E+03  0.20426175045E+03 -0.67942998945E+03  0.12389861923E+04  0.90529194730E+03 0.  0.
         23    2    4    4    0    0  0.24275408264E+03  0.13695927350E+03 -0.34284113298E+03  0.45106910827E+03  0.90751918628E+02 0.  0.
         23    2    4    4    0    0 -0.70338984061E+03  0.67302476951E+02 -0.33658885647E+03  0.78791708399E+03  0.90743493850E+02 0.  0.
          1    1    3    3  502    0  0.45856217907E+03 -0.20990412297E+03  0.65150188298E+03  0.82388938362E+03  0.00000000000E+00 0. -1.
         -2    1    3    3    0  502  0.20735788977E+01  0.56423725216E+01  0.65795601295E+01  0.89121663256E+01  0.00000000000E+00 0.  1.
         13    1    5    5    0    0  0.19462947584E+03  0.10694910099E+03 -0.20587680068E+03  0.30282668332E+03  0.00000000000E+00 0. -1.
        -13    1    5    5    0    0  0.48124606798E+02  0.30010172509E+02 -0.13696433230E+03  0.14824242495E+03  0.00000000000E+00 0.  1.
          2    1    6    6  503    0 -0.53333128817E+03  0.12176363114E+02 -0.25941488589E+03  0.59320031168E+03  0.00000000000E+00 0. -1.
         -2    1    6    6    0  503 -0.17005855244E+03  0.55126113838E+02 -0.77173970573E+02  0.19471677231E+03  0.00000000000E+00 0.  1.
<mgrwt>
<rscale>  0 0.20716777E+04</rscale>
<asrwt>0</asrwt>
<pdfrwt beam="1">  1        1 0.15772609E+00 0.20716777E+04</pdfrwt>
<pdfrwt beam="2">  1       -2 0.16101048E+00 0.20716777E+04</pdfrwt>
<totfact> 0.28941100E+00</totfact>
</mgrwt>
</event>
<event>
12    5  0.7505139E-008  0.2081603E+04  0.7818608E-02  0.8569391E-01
         -2   -1    0    0    0  501 -0.00000000000E+00  0.00000000000E+00  0.96966553767E+03  0.96966553767E+03  0.00000000000E+00 0.  1.
          1   -1    0    0  501    0  0.00000000000E+00 -0.00000000000E+00 -0.11171556570E+04  0.11171556570E+04  0.00000000000E+00 0. -1.
        -24    2    1    2    0    0 -0.14797258459E+03  0.39017227176E+03  0.67488967400E+03  0.79755147049E+03  0.80510797893E+02 0.  0.
        254    2    1    2    0    0  0.14797258459E+03 -0.39017227176E+03 -0.82237979336E+03  0.12892697242E+04  0.90098701977E+03 0.  0.
         23    2    4    4    0    0 -0.73287198848E+02 -0.57005643137E+03 -0.23211180461E+03  0.62657152851E+03  0.91545846677E+02 0.  0.
         23    2    4    4    0    0  0.22125978344E+03  0.17988415961E+03 -0.59026798875E+03  0.66269819570E+03  0.97151414769E+02 0.  0.
          1    1    3    3  502    0  0.10917218637E+01  0.82684572245E+02  0.14854920960E+03  0.17001411123E+03  0.00000000000E+00 0. -1.
         -2    1    3    3    0  502 -0.14906430645E+03  0.30748769951E+03  0.52634046440E+03  0.62753735927E+03  0.00000000000E+00 0.  1.
         13    1    5    5    0    0 -0.63007586082E+02 -0.17435725440E+03 -0.89146404949E+02  0.20571215224E+03  0.00000000000E+00 0. -1.
        -13    1    5    5    0    0 -0.10279612766E+02 -0.39569917697E+03 -0.14296539966E+03  0.42085937627E+03  0.00000000000E+00 0.  1.
          2    1    6    6  503    0  0.13623361234E+02  0.17287636190E+00 -0.23720060474E+01  0.13829398767E+02  0.00000000000E+00 0. -1.
         -2    1    6    6    0  503  0.20763642220E+03  0.17971128325E+03 -0.58789598271E+03  0.64886879693E+03  0.00000000000E+00 0.  1.
<mgrwt>
<rscale>  0 0.20816026E+04</rscale>
<asrwt>0</asrwt>
<pdfrwt beam="1">  1        1 0.17187010E+00 0.20816026E+04</pdfrwt>
<pdfrwt beam="2">  1       -2 0.14917931E+00 0.20816026E+04</pdfrwt>
<totfact> 0.30226083E+00</totfact>
</mgrwt>
</event>
<event>
12    5  0.5197392E-008  0.1240833E+04  0.7818608E-02  0.9077847E-01
          1   -1    0    0  501    0  0.00000000000E+00  0.00000000000E+00  0.18980458713E+04  0.18980458713E+04  0.00000000000E+00 0. -1.
         -2   -1    0    0    0  501 -0.00000000000E+00 -0.00000000000E+00 -0.20279638188E+03  0.20279638188E+03  0.00000000000E+00 0.  1.
        -24    2    1    2    0    0 -0.88120071961E+02  0.23151708063E+03  0.15674102740E+03  0.30172987474E+03  0.71469307618E+02 0.  0.
        254    2    1    2    0    0  0.88120071961E+02 -0.23151708063E+03  0.15385084621E+04  0.17991123785E+04  0.89912833170E+03 0.  0.
         23    2    4    4    0    0 -0.32501105097E+03 -0.32576106933E+03  0.57209620653E+03  0.73982166076E+03  0.91047035390E+02 0.  0.
         23    2    4    4    0    0  0.41313112293E+03  0.94243988698E+02  0.96641225553E+03  0.10592907177E+04  0.92654858943E+02 0.  0.
          1    1    3    3  502    0 -0.47001874094E+02  0.94053101992E+02  0.10662705907E+03  0.14974809477E+03  0.00000000000E+00 0. -1.
         -2    1    3    3    0  502 -0.41118197867E+02  0.13746397864E+03  0.50113968338E+02  0.15198177997E+03  0.00000000000E+00 0.  1.
         13    1    5    5    0    0 -0.11419780238E+03 -0.14574817354E+03  0.29187155073E+03  0.34564818860E+03  0.00000000000E+00 0.  1.
        -13    1    5    5    0    0 -0.21081324859E+03 -0.18001289579E+03  0.28022465581E+03  0.39417347216E+03  0.00000000000E+00 0. -1.
          4    1    6    6  503    0  0.41699911459E+02 -0.15351904593E+02  0.13467090520E+03  0.14181260980E+03  0.00000000000E+00 0.  1.
         -4    1    6    6    0  503  0.37143121147E+03  0.10959589329E+03  0.83174135033E+03  0.91747810793E+03  0.00000000000E+00 0. -1.
<mgrwt>
<rscale>  0 0.12408333E+04</rscale>
<asrwt>0</asrwt>
<pdfrwt beam="1">  1        1 0.29200705E+00 0.12408333E+04</pdfrwt>
<pdfrwt beam="2">  1       -2 0.31199445E-01 0.12408333E+04</pdfrwt>
<totfact> 0.28875203E+01</totfact>
</mgrwt>
</event>
<event>
12    5  0.5197392E-008  0.2252288E+04  0.7818608E-02  0.8496974E-01
         -2   -1    0    0    0  501 -0.00000000000E+00  0.00000000000E+00  0.66954841483E+03  0.66954841483E+03  0.00000000000E+00 0.  1.
          1   -1    0    0  501    0  0.00000000000E+00 -0.00000000000E+00 -0.18941134102E+04  0.18941134102E+04  0.00000000000E+00 0. -1.
        -24    2    1    2    0    0  0.69203167926E+03  0.64543975531E+03 -0.52155128121E+03  0.10831653357E+04  0.75703914029E+02 0.  0.
        254    2    1    2    0    0 -0.69203167926E+03 -0.64543975531E+03 -0.70301371412E+03  0.14804964893E+04  0.89562338618E+03 0.  0.
         23    2    4    4    0    0 -0.57857949963E+03 -0.18290263772E+03 -0.77571629411E+03  0.98913183525E+03  0.91860798321E+02 0.  0.
         23    2    4    4    0    0 -0.11345217963E+03 -0.46253711759E+03  0.72702579993E+02  0.49136465409E+03  0.96651828433E+02 0.  0.
          3    1    3    3  502    0  0.58190651220E+03  0.50866383504E+03 -0.40693631115E+03  0.87347080510E+03  0.00000000000E+00 0. -1.
         -4    1    3    3    0  502  0.11012516706E+03  0.13677592027E+03 -0.11461497006E+03  0.20969453056E+03  0.00000000000E+00 0.  1.
         13    1    5    5    0    0 -0.29738520055E+03 -0.10715843492E+03 -0.47457389849E+03  0.57021160353E+03  0.00000000000E+00 0. -1.
        -13    1    5    5    0    0 -0.28119429909E+03 -0.75744202794E+02 -0.30114239562E+03  0.41892023171E+03  0.00000000000E+00 0.  1.
          2    1    6    6  503    0  0.16946442634E+02 -0.75735899753E+02  0.16218773010E+02  0.79285288845E+02  0.00000000000E+00 0.  1.
         -2    1    6    6    0  503 -0.13039862226E+03 -0.38680121784E+03  0.56483806983E+02  0.41207936525E+03  0.00000000000E+00 0. -1.
<mgrwt>
<rscale>  0 0.22522883E+04</rscale>
<asrwt>0</asrwt>
<pdfrwt beam="1">  1        1 0.29140205E+00 0.22522883E+04</pdfrwt>
<pdfrwt beam="2">  1       -2 0.10300745E+00 0.22522883E+04</pdfrwt>
<totfact> 0.21574986E+00</totfact>
</mgrwt>
</event>
<event>
12    5  0.5197392E-008  0.1155192E+04  0.7818608E-02  0.9153007E-01
         -2   -1    0    0    0  501 -0.00000000000E+00  0.00000000000E+00  0.41565431432E+03  0.41565431432E+03  0.00000000000E+00 0.  1.
          1   -1    0    0  501    0  0.00000000000E+00 -0.00000000000E+00 -0.80263157052E+03  0.80263157052E+03  0.00000000000E+00 0. -1.
        -24    2    1    2    0    0 -0.18430370830E+03  0.11639351989E+03 -0.54640324637E+02  0.23872249701E+03  0.80545373160E+02 0.  0.
        254    2    1    2    0    0  0.18430370830E+03 -0.11639351989E+03 -0.33233693156E+03  0.97956338783E+03  0.89531072055E+03 0.  0.
         23    2    4    4    0    0  0.27848619597E+03 -0.23148735346E+03  0.19656190157E+03  0.42229675924E+03  0.92504138097E+02 0.  0.
         23    2    4    4    0    0 -0.94182487665E+02  0.11509383357E+03 -0.52889883313E+03  0.55726662858E+03  0.93247992682E+02 0.  0.
          3    1    3    3  502    0 -0.71591755893E+02  0.18591105852E+02  0.12621588822E+02  0.75035413193E+02  0.00000000000E+00 0. -1.
         -4    1    3    3    0  502 -0.11271195241E+03  0.97802414035E+02 -0.67261913459E+02  0.16368708382E+03  0.00000000000E+00 0.  1.
         13    1    5    5    0    0  0.94658105959E+02 -0.43062829865E+02  0.92679086914E+02  0.13929816040E+03  0.00000000000E+00 0. -1.
        -13    1    5    5    0    0  0.18382809001E+03 -0.18842452359E+03  0.10388281465E+03  0.28299859884E+03  0.00000000000E+00 0.  1.
          3    1    6    6  503    0 -0.83119497844E+01  0.82159110422E+02 -0.22093854266E+03  0.23586658849E+03  0.00000000000E+00 0. -1.
         -3    1    6    6    0  503 -0.85870537880E+02  0.32934723149E+02 -0.30796029047E+03  0.32140004009E+03  0.00000000000E+00 0.  1.
<mgrwt>
<rscale>  0 0.11551922E+04</rscale>
<asrwt>0</asrwt>
<pdfrwt beam="1">  1        1 0.12348178E+00 0.11551922E+04</pdfrwt>
<pdfrwt beam="2">  1       -2 0.63946818E-01 0.11551922E+04</pdfrwt>
<totfact> 0.43266387E+01</totfact>
</mgrwt>
</event>
<event>
12    5  0.5197392E-008  0.2047769E+04  0.7818608E-02  0.8584607E-01
          1   -1    0    0  501    0  0.00000000000E+00  0.00000000000E+00  0.86025715612E+03  0.86025715612E+03  0.00000000000E+00 0. -1.
         -2   -1    0    0    0  501 -0.00000000000E+00 -0.00000000000E+00 -0.12186347057E+04  0.12186347057E+04  0.00000000000E+00 0.  1.
        -24    2    1    2    0    0 -0.25766036692E+03 -0.16297119038E+03  0.64010804691E+03  0.71313415827E+03  0.76639039623E+02 0.  0.
        254    2    1    2    0    0  0.25766036692E+03  0.16297119038E+03 -0.99848559652E+03  0.13657577036E+04  0.88055218177E+03 0.  0.
         23    2    4    4    0    0  0.42846727403E+03 -0.30818995933E+02 -0.13376417738E+03  0.45871392364E+03  0.89395711094E+02 0.  0.
         23    2    4    4    0    0 -0.17080690711E+03  0.19379018631E+03 -0.86472141914E+03  0.90704377993E+03  0.90860608459E+02 0.  0.
          1    1    3    3  502    0 -0.16928981282E+03 -0.13947480933E+03  0.39982047373E+03  0.45603582576E+03  0.00000000000E+00 0. -1.
         -2    1    3    3    0  502 -0.88370554108E+02 -0.23496381051E+02  0.24028757318E+03  0.25709833251E+03  0.00000000000E+00 0.  1.
         13    1    5    5    0    0  0.64929730543E+02  0.27369142642E+02 -0.25926915904E+02  0.75080921982E+02  0.00000000000E+00 0. -1.
        -13    1    5    5    0    0  0.36353754349E+03 -0.58188138574E+02 -0.10783726148E+03  0.38363300165E+03  0.00000000000E+00 0.  1.
          4    1    6    6  503    0 -0.29678269128E+02 -0.12902388953E+01 -0.14823833689E+03  0.15118554461E+03  0.00000000000E+00 0. -1.
         -4    1    6    6    0  503 -0.14112863798E+03  0.19508042520E+03 -0.71648308225E+03  0.75585823533E+03  0.00000000000E+00 0.  1.
<mgrwt>
<rscale>  0 0.20477688E+04</rscale>
<asrwt>0</asrwt>
<pdfrwt beam="1">  1        1 0.13234726E+00 0.20477688E+04</pdfrwt>
<pdfrwt beam="2">  1       -2 0.18748226E+00 0.20477688E+04</pdfrwt>
<totfact> 0.25610236E+00</totfact>
</mgrwt>
</event>
<event>
12    5  0.5197392E-008  0.1450948E+04  0.7818608E-02  0.8917744E-01
          1   -1    0    0  501    0  0.00000000000E+00  0.00000000000E+00  0.26058585435E+04  0.26058585435E+04  0.00000000000E+00 0. -1.
         -2   -1    0    0    0  501 -0.00000000000E+00 -0.00000000000E+00 -0.20197276855E+03  0.20197276855E+03  0.00000000000E+00 0.  1.
        -24    2    1    2    0    0 -0.17359651641E+03 -0.13623703643E+03  0.14940832710E+04  0.15120543853E+04  0.72988785831E+02 0.  0.
        254    2    1    2    0    0  0.17359651641E+03  0.13623703643E+03  0.90980250394E+03  0.12957769267E+04  0.89587999589E+03 0.  0.
         23    2    4    4    0    0  0.17084772425E+03  0.28231950860E+03  0.10294527551E+04  0.10839815106E+04  0.79684946048E+02 0.  0.
         23    2    4    4    0    0  0.27487921639E+01 -0.14608247217E+03 -0.11965025112E+03  0.21179541611E+03  0.95882590484E+02 0.  0.
          3    1    3    3  502    0 -0.94296523756E+02 -0.88008979862E+02  0.63471825306E+03  0.64769180610E+03  0.00000000000E+00 0. -1.
         -4    1    3    3    0  502 -0.79299992657E+02 -0.48228056567E+02  0.85936501791E+03  0.86436257918E+03  0.00000000000E+00 0.  1.
         13    1    5    5    0    0  0.41335694633E+01  0.56555973540E+02  0.13184071295E+03  0.14351877275E+03  0.00000000000E+00 0. -1.
        -13    1    5    5    0    0  0.16671415479E+03  0.22576353506E+03  0.89761204211E+03  0.94046273786E+03  0.00000000000E+00 0.  1.
          2    1    6    6  503    0  0.92179759184E+01 -0.10946584851E+03 -0.28704058819E+02  0.11354147287E+03  0.00000000000E+00 0. -1.
         -2    1    6    6    0  503 -0.64691837545E+01 -0.36616623660E+02 -0.90946192303E+02  0.98253943234E+02  0.00000000000E+00 0.  1.
<mgrwt>
<rscale>  0 0.14509479E+04</rscale>
<asrwt>0</asrwt>
<pdfrwt beam="1">  1        1 0.40090129E+00 0.14509479E+04</pdfrwt>
<pdfrwt beam="2">  1       -2 0.31072736E-01 0.14509479E+04</pdfrwt>
<totfact> 0.93933178E+00</totfact>
</mgrwt>
</event>
<event>
12    5  0.5197392E-008  0.2230009E+04  0.7818608E-02  0.8506040E-01
         -2   -1    0    0    0  501 -0.00000000000E+00  0.00000000000E+00  0.10182610782E+04  0.10182610782E+04  0.00000000000E+00 0.  1.
          1   -1    0    0  501    0  0.00000000000E+00 -0.00000000000E+00 -0.12209396243E+04  0.12209396243E+04  0.00000000000E+00 0. -1.
        -24    2    1    2    0    0  0.77895144568E+03 -0.45617146822E+03 -0.32107460684E+03  0.96180142692E+03  0.84352347383E+02 0.  0.
        254    2    1    2    0    0 -0.77895144568E+03  0.45617146822E+03  0.11839606076E+03  0.12773992756E+04  0.89603209701E+03 0.  0.
         23    2    4    4    0    0 -0.97021393860E+03  0.38317490106E+03  0.11328945588E+03  0.10532327326E+04  0.91250187464E+02 0.  0.
         23    2    4    4    0    0  0.19126249292E+03  0.72996567160E+02  0.51066048761E+01  0.22416654299E+03  0.91185095090E+02 0.  0.
          3    1    3    3  502    0  0.17454989029E+03 -0.13717304056E+03 -0.10030721530E+03  0.24360961537E+03  0.00000000000E+00 0. -1.
         -4    1    3    3    0  502  0.60440155539E+03 -0.31899842766E+03 -0.22076739153E+03  0.71819181154E+03  0.00000000000E+00 0.  1.
         13    1    5    5    0    0 -0.86396711542E+03  0.35918588081E+03  0.78744301572E+02  0.93896450334E+03  0.00000000000E+00 0.  1.
        -13    1    5    5    0    0 -0.10624682318E+03  0.23989020255E+02  0.34545154307E+02  0.11426822924E+03  0.00000000000E+00 0. -1.
          2    1    6    6  503    0  0.12209084715E+02  0.34325102067E+02  0.17795493817E+02  0.40545702382E+02  0.00000000000E+00 0. -1.
         -2    1    6    6    0  503  0.17905340820E+03  0.38671465093E+02 -0.12688888941E+02  0.18362084060E+03  0.00000000000E+00 0.  1.
<mgrwt>
<rscale>  0 0.22300092E+04</rscale>
<asrwt>0</asrwt>
<pdfrwt beam="1">  1        1 0.18783687E+00 0.22300092E+04</pdfrwt>
<pdfrwt beam="2">  1       -2 0.15665555E+00 0.22300092E+04</pdfrwt>
<totfact> 0.21955388E+00</totfact>
</mgrwt>
</event>
<event>
12    5  0.5197392E-008  0.1553732E+04  0.7818608E-02  0.8849488E-01
          1   -1    0    0  501    0  0.00000000000E+00  0.00000000000E+00  0.92488174787E+03  0.92488174787E+03  0.00000000000E+00 0. -1.
         -2   -1    0    0    0  501 -0.00000000000E+00 -0.00000000000E+00 -0.65253823271E+03  0.65253823271E+03  0.00000000000E+00 0.  1.
        -24    2    1    2    0    0 -0.45183432821E+03 -0.24257432545E+03  0.48248137338E+02  0.52141178902E+03  0.80906164546E+02 0.  0.
        254    2    1    2    0    0  0.45183432821E+03  0.24257432545E+03  0.22409537782E+03  0.10560081916E+04  0.89550990993E+03 0.  0.
         23    2    4    4    0    0  0.18870448909E+03  0.46153826358E+03  0.41255196207E+03  0.65485333475E+03  0.10003407261E+03 0.  0.
         23    2    4    4    0    0  0.26312983912E+03 -0.21896393813E+03 -0.18845658424E+03  0.40115485681E+03  0.90701800231E+02 0.  0.
          1    1    3    3  502    0 -0.44063828748E+03 -0.22154603874E+03  0.55980231706E+02  0.49636532314E+03  0.00000000000E+00 0. -1.
         -2    1    3    3    0  502 -0.11196040729E+02 -0.21028286709E+02 -0.77320943680E+01  0.25046465883E+02  0.00000000000E+00 0.  1.
         13    1    5    5    0    0  0.14440439023E+03  0.33882500054E+03  0.24440351786E+03  0.44202724854E+03  0.00000000000E+00 0.  1.
        -13    1    5    5    0    0  0.44300098863E+02  0.12271326304E+03  0.16814844420E+03  0.21282608621E+03  0.00000000000E+00 0. -1.
          3    1    6    6  503    0  0.20443662114E+03 -0.11886634908E+03 -0.10814331701E+03  0.26003560914E+03  0.00000000000E+00 0. -1.
         -3    1    6    6    0  503  0.58693217976E+02 -0.10009758905E+03 -0.80313267231E+02  0.14111924767E+03  0.00000000000E+00 0.  1.
<mgrwt>
<rscale>  0 0.15537319E+04</rscale>
<asrwt>0</asrwt>
<pdfrwt beam="1">  1        1 0.14228950E+00 0.15537319E+04</pdfrwt>
<pdfrwt beam="2">  1       -2 0.10039050E+00 0.15537319E+04</pdfrwt>
<totfact> 0.11997089E+01</totfact>
</mgrwt>
</event>
<event>
12    5  0.5197392E-008  0.1936664E+04  0.7818608E-02  0.8636818E-01
         -2   -1    0    0    0  501 -0.00000000000E+00  0.00000000000E+00  0.27499714754E+04  0.27499714754E+04  0.00000000000E+00 0.  1.
          1   -1    0    0  501    0  0.00000000000E+00 -0.00000000000E+00 -0.34097347580E+03  0.34097347580E+03  0.00000000000E+00 0. -1.
        -24    2    1    2    0    0 -0.24189858503E+03  0.27362612568E+03  0.20026805189E+04  0.20373070130E+04  0.80649998876E+02 0.  0.
        254    2    1    2    0    0  0.24189858503E+03 -0.27362612568E+03  0.40631748065E+03  0.10536379382E+04  0.90092886931E+03 0.  0.
         23    2    4    4    0    0  0.47992249949E+03 -0.25164652665E+03 -0.27773863268E+02  0.55018519851E+03  0.90998820277E+02 0.  0.
         23    2    4    4    0    0 -0.23802391446E+03 -0.21979599028E+02  0.43409134392E+03  0.50345273964E+03  0.88830622864E+02 0.  0.
          3    1    3    3  502    0 -0.16241550396E+02  0.29165901602E+02  0.91795295856E+02  0.97677091054E+02  0.00000000000E+00 0. -1.
         -2    1    3    3    0  502 -0.22565703463E+03  0.24446022407E+03  0.19108852231E+04  0.19396299220E+04  0.00000000000E+00 0.  1.
         13    1    5    5    0    0  0.43569873563E+03 -0.21316698658E+03 -0.49718258821E+02  0.48759148645E+03  0.00000000000E+00 0. -1.
        -13    1    5    5    0    0  0.44223763857E+02 -0.38479540065E+02  0.21944395554E+02  0.62593712060E+02  0.00000000000E+00 0.  1.
          1    1    6    6  503    0 -0.20982550752E+03 -0.22996832298E+02  0.30247113761E+03  0.36884195395E+03  0.00000000000E+00 0. -1.
         -1    1    6    6    0  503 -0.28198406941E+02  0.10172332694E+01  0.13162020631E+03  0.13461078570E+03  0.00000000000E+00 0.  1.
<mgrwt>
<rscale>  0 0.19366645E+04</rscale>
<asrwt>0</asrwt>
<pdfrwt beam="1">  1        1 0.52457460E-01 0.19366645E+04</pdfrwt>
<pdfrwt beam="2">  1       -2 0.42307252E+00 0.19366645E+04</pdfrwt>
<totfact> 0.31737858E-01</totfact>
</mgrwt>
</event>
<event>
12    5  0.5197392E-008  0.2024746E+04  0.7818608E-02  0.8595138E-01
         -2   -1    0    0    0  501 -0.00000000000E+00  0.00000000000E+00  0.10497298565E+04  0.10497298565E+04  0.00000000000E+00 0.  1.
          1   -1    0    0  501    0  0.00000000000E+00 -0.00000000000E+00 -0.97634514956E+03  0.97634514956E+03  0.00000000000E+00 0. -1.
        -24    2    1    2    0    0  0.21824344310E+03  0.62739048552E+03  0.49370697475E+03  0.83145921944E+03  0.79553974737E+02 0.  0.
        254    2    1    2    0    0 -0.21824344310E+03 -0.62739048552E+03 -0.42032226781E+03  0.11946157866E+04  0.89954824608E+03 0.  0.
         23    2    4    4    0    0  0.74260233527E+02 -0.23630913864E+03 -0.60866067268E+03  0.66334141953E+03  0.90539677018E+02 0.  0.
         23    2    4    4    0    0 -0.29250367663E+03 -0.39108134689E+03  0.18833840486E+03  0.53127436709E+03  0.90983941719E+02 0.  0.
          3    1    3    3  502    0 -0.47773886299E+01  0.16455075573E+02  0.22730974355E+02  0.28465595890E+02  0.00000000000E+00 0. -1.
         -4    1    3    3    0  502  0.22302083173E+03  0.61093540995E+03  0.47097600039E+03  0.80299362355E+03  0.00000000000E+00 0.  1.
         13    1    5    5    0    0  0.27648759958E+01 -0.12031834466E+03 -0.21003420985E+03  0.24207130749E+03  0.00000000000E+00 0.  1.
        -13    1    5    5    0    0  0.71495357531E+02 -0.11599079398E+03 -0.39862646283E+03  0.42127011204E+03  0.00000000000E+00 0. -1.
          1    1    6    6  503    0 -0.21340127336E+03 -0.33137908648E+03  0.12430811150E+03  0.41328526348E+03  0.00000000000E+00 0. -1.
         -1    1    6    6    0  503 -0.79102403266E+02 -0.59702260408E+02  0.64030293364E+02  0.11798910360E+03  0.00000000000E+00 0.  1.
<mgrwt>
<rscale>  0 0.20247456E+04</rscale>
<asrwt>0</asrwt>
<pdfrwt beam="1">  1        1 0.15020695E+00 0.20247456E+04</pdfrwt>
<pdfrwt beam="2">  1       -2 0.16149690E+00 0.20247456E+04</pdfrwt>
<totfact> 0.31466847E+00</totfact>
</mgrwt>
</event>
<event>
12    5  0.5197392E-008  0.1468988E+04  0.7818608E-02  0.8905342E-01
          1   -1    0    0  501    0  0.00000000000E+00  0.00000000000E+00  0.21800792932E+04  0.21800792932E+04  0.00000000000E+00 0. -1.
         -2   -1    0    0    0  501 -0.00000000000E+00 -0.00000000000E+00 -0.24745945041E+03  0.24745945041E+03  0.00000000000E+00 0.  1.
        -24    2    1    2    0    0 -0.12193200224E+03 -0.83640344796E+02  0.13201739552E+04  0.13308717064E+04  0.80604631530E+02 0.  0.
        254    2    1    2    0    0  0.12193200224E+03  0.83640344796E+02  0.61244588768E+03  0.10966670372E+04  0.89762213919E+03 0.  0.
         23    2    4    4    0    0 -0.27879806774E+03  0.15389269515E+03 -0.28741233486E+02  0.33144346183E+03  0.87277635689E+02 0.  0.
         23    2    4    4    0    0  0.40073006998E+03 -0.70252350349E+02  0.64118712117E+03  0.76522357541E+03  0.94478644624E+02 0.  0.
          3    1    3    3  502    0 -0.63111643547E+02 -0.14387273265E+02  0.31394999449E+03  0.32055369632E+03  0.00000000000E+00 0. -1.
         -4    1    3    3    0  502 -0.58820358693E+02 -0.69253071531E+02  0.10062239607E+04  0.10103180101E+04  0.00000000000E+00 0.  1.
         13    1    5    5    0    0 -0.14260367701E+03  0.50835183483E+02  0.22670659127E+02  0.15308162320E+03  0.00000000000E+00 0. -1.
        -13    1    5    5    0    0 -0.13619439073E+03  0.10305751166E+03 -0.51411892613E+02  0.17836183863E+03  0.00000000000E+00 0.  1.
          3    1    6    6  503    0  0.26131181729E+03 -0.58516014135E+02  0.33728235323E+03  0.43065923369E+03  0.00000000000E+00 0. -1.
         -3    1    6    6    0  503  0.13941825270E+03 -0.11736336214E+02  0.30390476793E+03  0.33456434171E+03  0.00000000000E+00 0.  1.
<mgrwt>
<rscale>  0 0.14689877E+04</rscale>
<asrwt>0</asrwt>
<pdfrwt beam="1">  1        1 0.33539680E+00 0.14689877E+04</pdfrwt>
<pdfrwt beam="2">  1       -2 0.38070686E-01 0.14689877E+04</pdfrwt>
<totfact> 0.12481830E+01</totfact>
</mgrwt>
</event>
<event>
12    5  0.5197392E-008  0.1608045E+04  0.7818608E-02  0.8815621E-01
         -4   -1    0    0    0  501 -0.00000000000E+00  0.00000000000E+00  0.17165821831E+04  0.17165821831E+04  0.00000000000E+00 0.  1.
          3   -1    0    0  501    0  0.00000000000E+00 -0.00000000000E+00 -0.37659247343E+03  0.37659247343E+03  0.00000000000E+00 0. -1.
        -24    2    1    2    0    0  0.37639015637E+03  0.37809837351E+02 -0.50544253154E+02  0.38983729326E+03  0.79493773818E+02 0.  0.
        254    2    1    2    0    0 -0.37639015637E+03 -0.37809837351E+02  0.13905339628E+04  0.17033373632E+04  0.90811581734E+03 0.  0.
         23    2    4    4    0    0 -0.30494933146E+03 -0.11349836544E+03  0.14932089137E+04  0.15309818801E+04  0.91414898292E+02 0.  0.
         23    2    4    4    0    0 -0.71440824918E+02  0.75688528090E+02 -0.10267495088E+03  0.17235548312E+03  0.91278268362E+02 0.  0.
          3    1    3    3  502    0  0.26801928959E+03  0.60284561102E+02 -0.22333920025E+02  0.27562179138E+03  0.00000000000E+00 0. -1.
         -4    1    3    3    0  502  0.10837086679E+03 -0.22474723751E+02 -0.28210333129E+02  0.11421550189E+03  0.00000000000E+00 0.  1.
         13    1    5    5    0    0 -0.22943465926E+03 -0.12455018151E+03  0.11922387894E+04  0.12204861087E+04  0.00000000000E+00 0. -1.
        -13    1    5    5    0    0 -0.75514672193E+02  0.11051816073E+02  0.30097012428E+03  0.31049577141E+03  0.00000000000E+00 0.  1.
          4    1    6    6  503    0 -0.68020308721E+02  0.73787186806E+02 -0.37608433144E+02  0.10717138414E+03  0.00000000000E+00 0. -1.
         -4    1    6    6    0  503 -0.34205161972E+01  0.19013412838E+01 -0.65066517738E+02  0.65184098983E+02  0.00000000000E+00 0.  1.
<mgrwt>
<rscale>  0 0.16080447E+04</rscale>
<asrwt>0</asrwt>
<pdfrwt beam="1">  1        3 0.57937304E-01 0.16080447E+04</pdfrwt>
<pdfrwt beam="2">  1       -4 0.26408956E+00 0.16080447E+04</pdfrwt>
<totfact> 0.33143271E-01</totfact>
</mgrwt>
</event>
<event>
12    5  0.5197392E-008  0.1569054E+04  0.7818608E-02  0.8839788E-01
          1   -1    0    0  501    0  0.00000000000E+00  0.00000000000E+00  0.10169686376E+04  0.10169686376E+04  0.00000000000E+00 0. -1.
         -2   -1    0    0    0  501 -0.00000000000E+00 -0.00000000000E+00 -0.60521297743E+03  0.60521297743E+03  0.00000000000E+00 0.  1.
        -24    2    1    2    0    0  0.21400135546E+03 -0.43557309855E+03  0.31240033050E+03  0.58257105932E+03  0.79212172989E+02 0.  0.
        254    2    1    2    0    0 -0.21400135546E+03  0.43557309855E+03  0.99355329639E+02  0.10396105557E+04  0.91400116063E+03 0.  0.
         23    2    4    4    0    0 -0.34972060604E+03 -0.15127814336E+03 -0.89876604510E+02  0.40174798664E+03  0.90189033618E+02 0.  0.
         23    2    4    4    0    0  0.13571925058E+03  0.58685124191E+03  0.18923193415E+03  0.63786256903E+03  0.90806590991E+02 0.  0.
          1    1    3    3  502    0  0.17725983511E+03 -0.35122611180E+03  0.28745094704E+03  0.48724621877E+03  0.00000000000E+00 0. -1.
         -2    1    3    3    0  502  0.36741520351E+02 -0.84346986750E+02  0.24949383454E+02  0.95324840553E+02  0.00000000000E+00 0.  1.
         13    1    5    5    0    0 -0.34338917753E+03 -0.15522234905E+03 -0.73765903599E+02  0.38399415806E+03  0.00000000000E+00 0.  1.
        -13    1    5    5    0    0 -0.63314285068E+01  0.39442056878E+01 -0.16110700911E+02  0.17753828581E+02  0.00000000000E+00 0. -1.
          2    1    6    6  503    0  0.55317587552E+01  0.13705955034E+02  0.22509584134E+02  0.26928329622E+02  0.00000000000E+00 0. -1.
         -2    1    6    6    0  503  0.13018749183E+03  0.57314528687E+03  0.16672235001E+03  0.61093423941E+03  0.00000000000E+00 0.  1.
<mgrwt>
<rscale>  0 0.15690540E+04</rscale>
<asrwt>0</asrwt>
<pdfrwt beam="1">  1        1 0.15645671E+00 0.15690540E+04</pdfrwt>
<pdfrwt beam="2">  1       -2 0.93109689E-01 0.15690540E+04</pdfrwt>
<totfact> 0.12090288E+01</totfact>
</mgrwt>
</event>
<event>
12    5  0.5197392E-008  0.1895822E+04  0.7818608E-02  0.8656939E-01
         -2   -1    0    0    0  501 -0.00000000000E+00  0.00000000000E+00  0.25985394996E+03  0.25985394996E+03  0.00000000000E+00 0.  1.
          1   -1    0    0  501    0  0.00000000000E+00 -0.00000000000E+00 -0.34578474477E+04  0.34578474477E+04  0.00000000000E+00 0. -1.
        -24    2    1    2    0    0 -0.50055896889E+03 -0.53172205944E+03 -0.11310501038E+04  0.13486592907E+04  0.79497893497E+02 0.  0.
        254    2    1    2    0    0  0.50055896889E+03  0.53172205944E+03 -0.20669433940E+04  0.23690421070E+04  0.89823041658E+03 0.  0.
         23    2    4    4    0    0  0.39267873049E+03  0.27404115042E+03 -0.28889512473E+03  0.56693202016E+03  0.93039695188E+02 0.  0.
         23    2    4    4    0    0  0.10788023840E+03  0.25768090902E+03 -0.17780482692E+04  0.18021100869E+04  0.90041772740E+02 0.  0.
          1    1    3    3  502    0 -0.14010329915E+03 -0.11633575279E+03 -0.33135863654E+03  0.37810248322E+03  0.00000000000E+00 0. -1.
         -2    1    3    3    0  502 -0.36045566974E+03 -0.41538630665E+03 -0.79969146728E+03  0.97055680743E+03  0.00000000000E+00 0.  1.
         13    1    5    5    0    0  0.35613375877E+03  0.25142298075E+03 -0.29059866328E+03  0.52392017759E+03  0.00000000000E+00 0.  1.
        -13    1    5    5    0    0  0.36544971719E+02  0.22618169672E+02  0.17035385504E+01  0.43011842565E+02  0.00000000000E+00 0. -1.
          1    1    6    6  503    0 -0.10701437836E+02  0.58136162828E+02 -0.45943311165E+03  0.46322037766E+03  0.00000000000E+00 0. -1.
         -1    1    6    6    0  503  0.11858167624E+03  0.19954474619E+03 -0.13186151576E+04  0.13388897092E+04  0.00000000000E+00 0.  1.
<mgrwt>
<rscale>  0 0.18958221E+04</rscale>
<asrwt>0</asrwt>
<pdfrwt beam="1">  1        1 0.53197647E+00 0.18958221E+04</pdfrwt>
<pdfrwt beam="2">  1       -2 0.39977535E-01 0.18958221E+04</pdfrwt>
<totfact> 0.13197381E+00</totfact>
</mgrwt>
</event>
<event>
12    5  0.5197392E-008  0.1243108E+04  0.7818608E-02  0.9075939E-01
          1   -1    0    0  501    0  0.00000000000E+00  0.00000000000E+00  0.89762469539E+03  0.89762469539E+03  0.00000000000E+00 0. -1.
         -2   -1    0    0    0  501 -0.00000000000E+00 -0.00000000000E+00 -0.43039078656E+03  0.43039078656E+03  0.00000000000E+00 0.  1.
        -24    2    1    2    0    0  0.24510728460E+03 -0.11662522783E+03  0.20083060731E+03  0.34716923433E+03  0.80712574609E+02 0.  0.
        254    2    1    2    0    0 -0.24510728460E+03  0.11662522783E+03  0.26640330151E+03  0.98084624762E+03  0.90410708309E+03 0.  0.
         23    2    4    4    0    0 -0.86315769755E+02 -0.35364418570E+03 -0.62731305035E+02  0.37982157884E+03  0.88400186277E+02 0.  0.
         23    2    4    4    0    0 -0.15879151485E+03  0.47026941353E+03  0.32913460654E+03  0.60102466878E+03  0.80826955765E+02 0.  0.
          1    1    3    3  502    0  0.11425021329E+02 -0.86206644964E+01  0.42729280497E+02  0.45062605124E+02  0.00000000000E+00 0. -1.
         -2    1    3    3    0  502  0.23368226327E+03 -0.10800456333E+03  0.15810132682E+03  0.30210662921E+03  0.00000000000E+00 0.  1.
         13    1    5    5    0    0  0.67606645692E+01 -0.33132015454E+02 -0.28673301956E+02  0.44335034437E+02  0.00000000000E+00 0.  1.
        -13    1    5    5    0    0 -0.93076434324E+02 -0.32051217024E+03 -0.34058003078E+02  0.33548654440E+03  0.00000000000E+00 0. -1.
          2    1    6    6  503    0 -0.15204665242E+03  0.46393294713E+03  0.30619217015E+03  0.57628604790E+03  0.00000000000E+00 0. -1.
         -2    1    6    6    0  503 -0.67448624229E+01  0.63364663971E+01  0.22942436395E+02  0.24738620884E+02  0.00000000000E+00 0.  1.
<mgrwt>
<rscale>  0 0.12431080E+04</rscale>
<asrwt>0</asrwt>
<pdfrwt beam="1">  1        1 0.13809611E+00 0.12431080E+04</pdfrwt>
<pdfrwt beam="2">  1       -2 0.66213967E-01 0.12431080E+04</pdfrwt>
<totfact> 0.33161564E+01</totfact>
</mgrwt>
</event>
<event>
12    5  0.5197392E-008  0.1582893E+04  0.7818608E-02  0.8831127E-01
         -2   -1    0    0    0  501 -0.00000000000E+00  0.00000000000E+00  0.36000973621E+03  0.36000973621E+03  0.00000000000E+00 0.  1.
          1   -1    0    0  501    0  0.00000000000E+00 -0.00000000000E+00 -0.17399177004E+04  0.17399177004E+04  0.00000000000E+00 0. -1.
        -24    2    1    2    0    0  0.49112498992E+03  0.11269182760E+03 -0.69676407895E+03  0.86366379920E+03  0.80819382602E+02 0.  0.
        254    2    1    2    0    0 -0.49112498992E+03 -0.11269182760E+03 -0.68314388522E+03  0.12362636374E+04  0.89875414297E+03 0.  0.
         23    2    4    4    0    0 -0.24441821005E+03  0.27669736477E+03 -0.66475898531E+03  0.76577990280E+03  0.90623716038E+02 0.  0.
         23    2    4    4    0    0 -0.24670677986E+03 -0.38938919237E+03 -0.18384899905E+02  0.47048373459E+03  0.92351294528E+02 0.  0.
          1    1    3    3  502    0  0.38325339512E+03  0.52654766630E+02 -0.53157328356E+03  0.65743885275E+03  0.00000000000E+00 0. -1.
         -2    1    3    3    0  502  0.10787159480E+03  0.60037060967E+02 -0.16519079539E+03  0.20622494644E+03  0.00000000000E+00 0.  1.
         13    1    5    5    0    0 -0.19281454560E+03  0.18536711550E+03 -0.54128515975E+03  0.60376157601E+03  0.00000000000E+00 0. -1.
        -13    1    5    5    0    0 -0.51603664452E+02  0.91330249278E+02 -0.12347382556E+03  0.16201832680E+03  0.00000000000E+00 0.  1.
          4    1    6    6  503    0 -0.15993107675E+02 -0.70950458799E+02  0.19865846772E+02  0.75394953180E+02  0.00000000000E+00 0. -1.
         -4    1    6    6    0  503 -0.23071367219E+03 -0.31843873357E+03 -0.38250746677E+02  0.39508878141E+03  0.00000000000E+00 0.  1.
<mgrwt>
<rscale>  0 0.15828927E+04</rscale>
<asrwt>0</asrwt>
<pdfrwt beam="1">  1        1 0.26767964E+00 0.15828927E+04</pdfrwt>
<pdfrwt beam="2">  1       -2 0.55386115E-01 0.15828927E+04</pdfrwt>
<totfact> 0.11568564E+01</totfact>
</mgrwt>
</event>
<event>
12    5  0.5197392E-008  0.1371745E+04  0.7818608E-02  0.8974529E-01
         -2   -1    0    0    0  501 -0.00000000000E+00  0.00000000000E+00  0.26450092297E+03  0.26450092297E+03  0.00000000000E+00 0.  1.
          1   -1    0    0  501    0  0.00000000000E+00 -0.00000000000E+00 -0.17785234147E+04  0.17785234147E+04  0.00000000000E+00 0. -1.
        -24    2    1    2    0    0 -0.37966068091E+03 -0.11608434198E+02 -0.36608000915E+03  0.53378190214E+03  0.81434375897E+02 0.  0.
        254    2    1    2    0    0  0.37966068091E+03  0.11608434198E+02 -0.11479424826E+04  0.15092424355E+04  0.90319643352E+03 0.  0.
         23    2    4    4    0    0  0.47233318741E+03 -0.98832342949E+02 -0.12259148189E+04  0.13206816124E+04  0.92012532564E+02 0.  0.
         23    2    4    4    0    0 -0.92672506506E+02  0.11044077715E+03  0.77972336356E+02  0.18856082312E+03  0.93220920712E+02 0.  0.
          1    1    3    3  502    0 -0.16606829091E+03 -0.12104121154E+02 -0.10664257304E+03  0.19773170050E+03  0.00000000000E+00 0. -1.
         -2    1    3    3    0  502 -0.21359238999E+03  0.49568695550E+00 -0.25943743611E+03  0.33605020164E+03  0.00000000000E+00 0.  1.
         13    1    5    5    0    0  0.52099548886E+02 -0.24144540032E+02 -0.23193230083E+03  0.23893495762E+03  0.00000000000E+00 0.  1.
        -13    1    5    5    0    0  0.42023363853E+03 -0.74687802917E+02 -0.99398251810E+03  0.10817466548E+04  0.00000000000E+00 0. -1.
          1    1    6    6  503    0 -0.11025101166E+03  0.86016161597E+02  0.53308989434E+02  0.14965264442E+03  0.00000000000E+00 0. -1.
         -1    1    6    6    0  503  0.17578505151E+02  0.24424615550E+02  0.24663346922E+02  0.38908178697E+02  0.00000000000E+00 0.  1.
<mgrwt>
<rscale>  0 0.13717450E+04</rscale>
<asrwt>0</asrwt>
<pdfrwt beam="1">  1        1 0.27361898E+00 0.13717450E+04</pdfrwt>
<pdfrwt beam="2">  1       -2 0.40692450E-01 0.13717450E+04</pdfrwt>
<totfact> 0.20672271E+01</totfact>
</mgrwt>
</event>
<event>
12    5  0.5197392E-008  0.2408126E+04  0.7818608E-02  0.8436468E-01
         -2   -1    0    0    0  501 -0.00000000000E+00  0.00000000000E+00  0.12701453835E+04  0.12701453835E+04  0.00000000000E+00 0.  1.
          1   -1    0    0  501    0  0.00000000000E+00 -0.00000000000E+00 -0.11414184019E+04  0.11414184019E+04  0.00000000000E+00 0. -1.
        -24    2    1    2    0    0  0.36587198966E+03 -0.72283409599E+03 -0.58088080388E+03  0.10001356030E+04  0.80605663099E+02 0.  0.
        254    2    1    2    0    0 -0.36587198966E+03  0.72283409599E+03  0.70960778547E+03  0.14114281824E+04  0.91226907313E+03 0.  0.
         23    2    4    4    0    0  0.27391435811E+02 -0.16231101282E+03 -0.27442316574E+02  0.19080839386E+03  0.92518143036E+02 0.  0.
         23    2    4    4    0    0 -0.39326342547E+03  0.88514510881E+03  0.73705010204E+03  0.12206197886E+04  0.92367904807E+02 0.  0.
          1    1    3    3  502    0  0.30542294505E+03 -0.64458521429E+03 -0.48614080708E+03  0.86319531865E+03  0.00000000000E+00 0. -1.
         -2    1    3    3    0  502  0.60449044610E+02 -0.78248881708E+02 -0.94739996806E+02  0.13694028435E+03  0.00000000000E+00 0.  1.
         13    1    5    5    0    0  0.54467834884E+02 -0.10239118065E+03 -0.42205443104E+02  0.12341798224E+03  0.00000000000E+00 0.  1.
        -13    1    5    5    0    0 -0.27076399074E+02 -0.59919832168E+02  0.14763126530E+02  0.67390411623E+02  0.00000000000E+00 0. -1.
          1    1    6    6  503    0 -0.85474363573E+02  0.26193068994E+03  0.17159315348E+03  0.32458860651E+03  0.00000000000E+00 0. -1.
         -1    1    6    6    0  503 -0.30778906190E+03  0.62321441888E+03  0.56545694856E+03  0.89603118205E+03  0.00000000000E+00 0.  1.
<mgrwt>
<rscale>  0 0.24081257E+04</rscale>
<asrwt>0</asrwt>
<pdfrwt beam="1">  1        1 0.17560283E+00 0.24081257E+04</pdfrwt>
<pdfrwt beam="2">  1       -2 0.19540698E+00 0.24081257E+04</pdfrwt>
<totfact> 0.13225547E+00</totfact>
</mgrwt>
</event>
<event>
12    5  0.5197392E-008  0.2509741E+04  0.7818608E-02  0.8399524E-01
          1   -1    0    0  501    0  0.00000000000E+00  0.00000000000E+00  0.17960938873E+04  0.17960938873E+04  0.00000000000E+00 0. -1.
         -2   -1    0    0    0  501 -0.00000000000E+00 -0.00000000000E+00 -0.87673555084E+03  0.87673555084E+03  0.00000000000E+00 0.  1.
        -24    2    1    2    0    0  0.15601879718E+03  0.10669413823E+04  0.19067799587E+03  0.10977198508E+04  0.76973985030E+02 0.  0.
        254    2    1    2    0    0 -0.15601879718E+03 -0.10669413823E+04  0.72868034056E+03  0.15751095873E+04  0.88729329710E+03 0.  0.
         23    2    4    4    0    0  0.26896714736E+03 -0.86442942903E+03  0.40049975523E+03  0.99419446892E+03  0.91875045437E+02 0.  0.
         23    2    4    4    0    0 -0.42498594454E+03 -0.20251195326E+03  0.32818058532E+03  0.58091511841E+03  0.90198303439E+02 0.  0.
          1    1    3    3  502    0  0.20896405249E+02  0.12668469018E+03  0.48359039322E+02  0.13720155671E+03  0.00000000000E+00 0. -1.
         -2    1    3    3    0  502  0.13512239193E+03  0.94025669210E+03  0.14231895654E+03  0.96051829407E+03  0.00000000000E+00 0.  1.
         13    1    5    5    0    0  0.17198511018E+02 -0.12739209557E+03  0.31494252288E+02  0.13234962305E+03  0.00000000000E+00 0.  1.
        -13    1    5    5    0    0  0.25176863634E+03 -0.73703733346E+03  0.36900550295E+03  0.86184484587E+03  0.00000000000E+00 0. -1.
          4    1    6    6  503    0 -0.99996601742E+02 -0.73427146247E+02  0.48742270777E+02  0.13329169189E+03  0.00000000000E+00 0. -1.
         -4    1    6    6    0  503 -0.32498934280E+03 -0.12908480701E+03  0.27943831454E+03  0.44762342652E+03  0.00000000000E+00 0.  1.
<mgrwt>
<rscale>  0 0.25097405E+04</rscale>
<asrwt>0</asrwt>
<pdfrwt beam="1">  1        1 0.27632214E+00 0.25097405E+04</pdfrwt>
<pdfrwt beam="2">  1       -2 0.13488239E+00 0.25097405E+04</pdfrwt>
<totfact> 0.12639343E+00</totfact>
</mgrwt>
</event>
<event>
12    5  0.5197392E-008  0.1709651E+04  0.7818608E-02  0.8755879E-01
          1   -1    0    0  501    0  0.00000000000E+00  0.00000000000E+00  0.13999614075E+04  0.13999614075E+04  0.00000000000E+00 0. -1.
         -2   -1    0    0    0  501 -0.00000000000E+00 -0.00000000000E+00 -0.52196199858E+03  0.52196199858E+03  0.00000000000E+00 0.  1.
        -24    2    1    2    0    0 -0.25467428600E+03  0.49586361119E+03  0.50219142717E+02  0.56572569746E+03  0.82364371074E+02 0.  0.
        254    2    1    2    0    0  0.25467428600E+03 -0.49586361119E+03  0.82778026624E+03  0.13561977087E+04  0.91832039230E+03 0.  0.
         23    2    4    4    0    0  0.38320310905E+02 -0.54376434776E+03  0.94109039380E+03  0.10917511530E+04  0.95505700009E+02 0.  0.
         23    2    4    4    0    0  0.21635397510E+03  0.47900736570E+02 -0.11331012755E+03  0.26444655562E+03  0.89382731371E+02 0.  0.
          1    1    3    3  502    0 -0.44362801471E+02  0.38927572523E+02  0.17904228602E+02  0.61676376829E+02  0.00000000000E+00 0. -1.
         -2    1    3    3    0  502 -0.21031148453E+03  0.45693603867E+03  0.32314914115E+02  0.50404932064E+03  0.00000000000E+00 0.  1.
         13    1    5    5    0    0  0.48942215472E+02 -0.47411545061E+03  0.75605070142E+03  0.89375246241E+03  0.00000000000E+00 0. -1.
        -13    1    5    5    0    0 -0.10621904567E+02 -0.69648897152E+02  0.18503969238E+03  0.19799869062E+03  0.00000000000E+00 0.  1.
          4    1    6    6  503    0  0.21463871588E+03  0.52988313055E+02 -0.86984671161E+02  0.23757919246E+03  0.00000000000E+00 0. -1.
         -4    1    6    6    0  503  0.17152592200E+01 -0.50875764851E+01 -0.26325456391E+02  0.26867363155E+02  0.00000000000E+00 0.  1.
<mgrwt>
<rscale>  0 0.17096510E+04</rscale>
<asrwt>0</asrwt>
<pdfrwt beam="1">  1        1 0.21537868E+00 0.17096510E+04</pdfrwt>
<pdfrwt beam="2">  1       -2 0.80301847E-01 0.17096510E+04</pdfrwt>
<totfact> 0.87856718E+00</totfact>
</mgrwt>
</event>
<event>
12    5  0.5197392E-008  0.1307447E+04  0.7818608E-02  0.9023681E-01
          1   -1    0    0  501    0  0.00000000000E+00  0.00000000000E+00  0.12074806405E+04  0.12074806405E+04  0.00000000000E+00 0. -1.
         -2   -1    0    0    0  501 -0.00000000000E+00 -0.00000000000E+00 -0.35392211999E+03  0.35392211999E+03  0.00000000000E+00 0.  1.
        -24    2    1    2    0    0 -0.22779810834E+03 -0.19803529567E+03  0.78093789856E+02  0.32470615244E+03  0.90694481246E+02 0.  0.
        254    2    1    2    0    0  0.22779810834E+03  0.19803529567E+03  0.77546473066E+03  0.12366966081E+04  0.91485681688E+03 0.  0.
         23    2    4    4    0    0  0.87962434932E+02 -0.23187169216E+03  0.72638797257E+03  0.77311767868E+03  0.92572062717E+02 0.  0.
         23    2    4    4    0    0  0.13983567341E+03  0.42990698782E+03  0.49076758084E+02  0.46357892938E+03  0.90126920758E+02 0.  0.
          3    1    3    3  502    0 -0.23547449045E+02 -0.60507558348E+02  0.37990200302E+02  0.75225675755E+02  0.00000000000E+00 0. -1.
         -4    1    3    3    0  502 -0.20425065929E+03 -0.13752773732E+03  0.40103589554E+02  0.24948047669E+03  0.00000000000E+00 0.  1.
         13    1    5    5    0    0  0.79726086308E+02 -0.13883379827E+03  0.55854412943E+03  0.58103581379E+03  0.00000000000E+00 0. -1.
        -13    1    5    5    0    0  0.82363486236E+01 -0.93037893891E+02  0.16784384314E+03  0.19208186489E+03  0.00000000000E+00 0.  1.
          1    1    6    6  503    0  0.98632276227E+02  0.28252889674E+03 -0.10315221647E+02  0.29942830061E+03  0.00000000000E+00 0. -1.
         -1    1    6    6    0  503  0.41203397180E+02  0.14737809108E+03  0.59391979730E+02  0.16415062877E+03  0.00000000000E+00 0.  1.
<mgrwt>
<rscale>  0 0.13074465E+04</rscale>
<asrwt>0</asrwt>
<pdfrwt beam="1">  1        1 0.18576625E+00 0.13074465E+04</pdfrwt>
<pdfrwt beam="2">  1       -2 0.54449557E-01 0.13074465E+04</pdfrwt>
<totfact> 0.28849125E+01</totfact>
</mgrwt>
</event>
<event>
12    5  0.5197392E-008  0.2661090E+04  0.7818608E-02  0.8347742E-01
          1   -1    0    0  501    0  0.00000000000E+00  0.00000000000E+00  0.11350037891E+04  0.11350037891E+04  0.00000000000E+00 0. -1.
         -2   -1    0    0    0  501 -0.00000000000E+00 -0.00000000000E+00 -0.15597742421E+04  0.15597742421E+04  0.00000000000E+00 0.  1.
        -24    2    1    2    0    0 -0.13071383256E+03 -0.42564403806E+03  0.91421861339E+03  0.10198689388E+04  0.77961696373E+02 0.  0.
        254    2    1    2    0    0  0.13071383256E+03  0.42564403806E+03 -0.13389890663E+04  0.16749090924E+04  0.90231357904E+03 0.  0.
         23    2    4    4    0    0  0.41869881331E+03 -0.51152804863E+02 -0.46649613035E+03  0.63565286111E+03  0.92252991834E+02 0.  0.
         23    2    4    4    0    0 -0.28798498074E+03  0.47679684292E+03 -0.87249293599E+03  0.10392562313E+04  0.92406776782E+02 0.  0.
          3    1    3    3  502    0 -0.13611005718E+03 -0.39077062037E+03  0.80556185422E+03  0.90562548903E+03  0.00000000000E+00 0. -1.
         -4    1    3    3    0  502  0.53962246219E+01 -0.34873417693E+02  0.10865675917E+03  0.11424344977E+03  0.00000000000E+00 0.  1.
         13    1    5    5    0    0  0.19370675415E+03  0.22431726281E+02 -0.21605549997E+03  0.29104203823E+03  0.00000000000E+00 0. -1.
        -13    1    5    5    0    0  0.22499205915E+03 -0.73584531144E+02 -0.25044063038E+03  0.34461082289E+03  0.00000000000E+00 0.  1.
          1    1    6    6  503    0  0.66798903180E+01  0.14118940117E+02 -0.17832204383E+02  0.23705546141E+02  0.00000000000E+00 0. -1.
         -1    1    6    6    0  503 -0.29466487106E+03  0.46267790281E+03 -0.85466073160E+03  0.10155506852E+04  0.00000000000E+00 0.  1.
<mgrwt>
<rscale>  0 0.26610898E+04</rscale>
<asrwt>0</asrwt>
<pdfrwt beam="1">  1        1 0.17461597E+00 0.26610898E+04</pdfrwt>
<pdfrwt beam="2">  1       -2 0.23996527E+00 0.26610898E+04</pdfrwt>
<totfact> 0.67993081E-01</totfact>
</mgrwt>
</event>
<event>
12    5  0.5197392E-008  0.2275722E+04  0.7818608E-02  0.8487556E-01
          1   -1    0    0  501    0  0.00000000000E+00  0.00000000000E+00  0.49892466120E+03  0.49892466120E+03  0.00000000000E+00 0. -1.
         -2   -1    0    0    0  501 -0.00000000000E+00 -0.00000000000E+00 -0.25950360518E+04  0.25950360518E+04  0.00000000000E+00 0.  1.
        -24    2    1    2    0    0  0.92149016825E+03  0.25379006713E+03 -0.96450848372E+03  0.13601822731E+04  0.79156000571E+02 0.  0.
        254    2    1    2    0    0 -0.92149016825E+03 -0.25379006713E+03 -0.11316029069E+04  0.17337784399E+04  0.90105993785E+03 0.  0.
         23    2    4    4    0    0  0.15766084166E+03 -0.12605973965E+03 -0.21799473192E+03  0.31034927365E+03  0.89704902628E+02 0.  0.
         23    2    4    4    0    0 -0.10791510099E+04 -0.12773032748E+03 -0.91360817497E+03  0.14234291663E+04  0.10290167810E+03 0.  0.
          3    1    3    3  502    0  0.51192254230E+03  0.11881500582E+03 -0.48264192842E+03  0.71352990547E+03  0.00000000000E+00 0. -1.
         -4    1    3    3    0  502  0.40956762595E+03  0.13497506130E+03 -0.48186655530E+03  0.64665236760E+03  0.00000000000E+00 0.  1.
         13    1    5    5    0    0  0.16888054335E+03 -0.11332194310E+03 -0.20658643882E+03  0.28989732219E+03  0.00000000000E+00 0.  1.
        -13    1    5    5    0    0 -0.11219701688E+02 -0.12737796552E+02 -0.11408293098E+02  0.20451951456E+02  0.00000000000E+00 0. -1.
          4    1    6    6  503    0 -0.14618643635E+03 -0.41916524899E+02 -0.95240823244E+02  0.17943880195E+03  0.00000000000E+00 0. -1.
         -4    1    6    6    0  503 -0.93296457356E+03 -0.85813802577E+02 -0.81836735172E+03  0.12439903643E+04  0.00000000000E+00 0.  1.
<mgrwt>
<rscale>  0 0.22757218E+04</rscale>
<asrwt>0</asrwt>
<pdfrwt beam="1">  1        1 0.76757639E-01 0.22757218E+04</pdfrwt>
<pdfrwt beam="2">  1       -2 0.39923632E+00 0.22757218E+04</pdfrwt>
<totfact> 0.26510656E-01</totfact>
</mgrwt>
</event>
<event>
12    5  0.5197392E-008  0.9840311E+03  0.7818608E-02  0.9326235E-01
          1   -1    0    0  501    0  0.00000000000E+00  0.00000000000E+00  0.71373000396E+03  0.71373000396E+03  0.00000000000E+00 0. -1.
         -2   -1    0    0    0  501 -0.00000000000E+00 -0.00000000000E+00 -0.33917492904E+03  0.33917492904E+03  0.00000000000E+00 0.  1.
        -24    2    1    2    0    0  0.56452428938E+02  0.11778639869E+03  0.71117487953E+02  0.16893267422E+03  0.80125145094E+02 0.  0.
        254    2    1    2    0    0 -0.56452428938E+02 -0.11778639869E+03  0.30343758696E+03  0.88397225878E+03  0.81992199182E+03 0.  0.
         23    2    4    4    0    0  0.28733487291E+02  0.12547565947E+03  0.51462430362E+03  0.53827278261E+03  0.91266972215E+02 0.  0.
         23    2    4    4    0    0 -0.85185916229E+02 -0.24326205816E+03 -0.21118671665E+03  0.34569947617E+03  0.92061008393E+02 0.  0.
          1    1    3    3  502    0  0.56063592831E+02  0.12485727002E+03  0.79245216280E+02  0.15815267503E+03  0.00000000000E+00 0. -1.
         -2    1    3    3    0  502  0.38883610728E+00 -0.70708713204E+01 -0.81277283270E+01  0.10779999189E+02  0.00000000000E+00 0.  1.
         13    1    5    5    0    0  0.12501499590E+01  0.97295857784E+02  0.46427904142E+03  0.47436597171E+03  0.00000000000E+00 0. -1.
        -13    1    5    5    0    0  0.27483337332E+02  0.28179801686E+02  0.50345262203E+02  0.63906810907E+02  0.00000000000E+00 0.  1.
          3    1    6    6  503    0 -0.90668290619E+02 -0.23919627623E+03 -0.17756493982E+03  0.31139188387E+03  0.00000000000E+00 0. -1.
         -3    1    6    6    0  503  0.54823743895E+01 -0.40657819304E+01 -0.33621776838E+02  0.34307592300E+02  0.00000000000E+00 0.  1.
<mgrwt>
<rscale>  0 0.98403114E+03</rscale>
<asrwt>0</asrwt>
<pdfrwt beam="1">  1        1 0.10980462E+00 0.98403114E+03</pdfrwt>
<pdfrwt beam="2">  1       -2 0.52180759E-01 0.98403114E+03</pdfrwt>
<totfact> 0.80607115E+01</totfact>
</mgrwt>
</event>
<event>
12    5  0.5197392E-008  0.1625468E+04  0.7818608E-02  0.8805053E-01
          3   -1    0    0  501    0  0.00000000000E+00  0.00000000000E+00  0.31128860741E+03  0.31128860741E+03  0.00000000000E+00 0. -1.
         -2   -1    0    0    0  501 -0.00000000000E+00 -0.00000000000E+00 -0.21219429230E+04  0.21219429230E+04  0.00000000000E+00 0.  1.
        -24    2    1    2    0    0  0.31711182874E+03 -0.20592193772E+03 -0.12765401924E+02  0.38671218104E+03  0.80122400863E+02 0.  0.
        254    2    1    2    0    0 -0.31711182874E+03  0.20592193772E+03 -0.17978889137E+04  0.20465193494E+04  0.90159477881E+03 0.  0.
         23    2    4    4    0    0 -0.25331619866E+03  0.46074536688E+03 -0.54203369348E+03  0.76063556650E+03  0.91162221120E+02 0.  0.
         23    2    4    4    0    0 -0.63795630076E+02 -0.25482342916E+03 -0.12558552202E+04  0.12858837829E+04  0.85556452310E+02 0.  0.
          3    1    3    3  502    0  0.10708553170E+03 -0.69571571445E+02 -0.42409816355E+02  0.13455893570E+03  0.00000000000E+00 0. -1.
         -4    1    3    3    0  502  0.21002629703E+03 -0.13635036627E+03  0.29644414431E+02  0.25215324534E+03  0.00000000000E+00 0.  1.
         13    1    5    5    0    0 -0.16128780279E+03  0.37155596334E+03 -0.39854363110E+03  0.56824696666E+03  0.00000000000E+00 0. -1.
        -13    1    5    5    0    0 -0.92028395869E+02  0.89189403535E+02 -0.14349006237E+03  0.19238859984E+03  0.00000000000E+00 0.  1.
          2    1    6    6  503    0  0.29070486685E+01 -0.69273139860E+02 -0.19746692144E+03  0.20928546032E+03  0.00000000000E+00 0.  1.
         -2    1    6    6    0  503 -0.66702678744E+02 -0.18555028930E+03 -0.10583882988E+04  0.10765983226E+04  0.00000000000E+00 0. -1.
<mgrwt>
<rscale>  0 0.16254681E+04</rscale>
<asrwt>0</asrwt>
<pdfrwt beam="1">  1        3 0.47890556E-01 0.16254681E+04</pdfrwt>
<pdfrwt beam="2">  1       -2 0.32645275E+00 0.16254681E+04</pdfrwt>
<totfact> 0.38401500E-01</totfact>
</mgrwt>
</event>
<event>
12    5  0.5197392E-008  0.2044728E+04  0.7818608E-02  0.8585990E-01
          1   -1    0    0  501    0  0.00000000000E+00  0.00000000000E+00  0.52973517884E+03  0.52973517884E+03  0.00000000000E+00 0. -1.
         -2   -1    0    0    0  501 -0.00000000000E+00 -0.00000000000E+00 -0.19731143569E+04  0.19731143569E+04  0.00000000000E+00 0.  1.
        -24    2    1    2    0    0  0.63905887663E+03 -0.50918263356E+03 -0.42275038724E+03  0.92337348946E+03  0.78977902026E+02 0.  0.
        254    2    1    2    0    0 -0.63905887663E+03  0.50918263356E+03 -0.10206287908E+04  0.15794760463E+04  0.88622697429E+03 0.  0.
         23    2    4    4    0    0 -0.32397564781E+03  0.14320754405E+03  0.79789901807E+02  0.37425950769E+03  0.90747614965E+02 0.  0.
         23    2    4    4    0    0 -0.31508322882E+03  0.36597508951E+03 -0.11004186926E+04  0.12052165386E+04  0.91708225152E+02 0.  0.
          3    1    3    3  502    0  0.59352088273E+02 -0.78081977903E+02 -0.41289629485E+02  0.10641569038E+03  0.00000000000E+00 0. -1.
         -4    1    3    3    0  502  0.57970678836E+03 -0.43110065566E+03 -0.38146075776E+03  0.81695779909E+03  0.00000000000E+00 0.  1.
         13    1    5    5    0    0 -0.12477648438E+03  0.35739694353E+02  0.70555754725E+02  0.14773155158E+03  0.00000000000E+00 0.  1.
        -13    1    5    5    0    0 -0.19919916343E+03  0.10746784970E+03  0.92341470823E+01  0.22652795612E+03  0.00000000000E+00 0. -1.
          1    1    6    6  503    0 -0.21019948793E+03  0.23598008406E+03 -0.82043115187E+03  0.87919150346E+03  0.00000000000E+00 0. -1.
         -1    1    6    6    0  503 -0.10488374089E+03  0.12999500545E+03 -0.27998754073E+03  0.32602503510E+03  0.00000000000E+00 0.  1.
<mgrwt>
<rscale>  0 0.20447279E+04</rscale>
<asrwt>0</asrwt>
<pdfrwt beam="1">  1        1 0.81497719E-01 0.20447279E+04</pdfrwt>
<pdfrwt beam="2">  1       -2 0.30355606E+00 0.20447279E+04</pdfrwt>
<totfact> 0.10012118E+00</totfact>
</mgrwt>
</event>
<event>
12    5  0.5197392E-008  0.2490495E+04  0.7818608E-02  0.8406379E-01
         -2   -1    0    0    0  501 -0.00000000000E+00  0.00000000000E+00  0.11654697352E+04  0.11654697352E+04  0.00000000000E+00 0.  1.
          1   -1    0    0  501    0  0.00000000000E+00 -0.00000000000E+00 -0.13304865333E+04  0.13304865333E+04  0.00000000000E+00 0. -1.
        -24    2    1    2    0    0 -0.76423714903E+03 -0.76113618214E+03 -0.12982146459E+03  0.10893899358E+04  0.80809107071E+02 0.  0.
        254    2    1    2    0    0  0.76423714903E+03  0.76113618214E+03 -0.35195333582E+02  0.14065663327E+04  0.90211054149E+03 0.  0.
         23    2    4    4    0    0  0.95931648875E+03  0.66774983569E+03 -0.29577953103E+02  0.11731103449E+04  0.95577494373E+02 0.  0.
         23    2    4    4    0    0 -0.19507933972E+03  0.93386346449E+02 -0.56173804791E+01  0.23345598777E+03  0.87710801910E+02 0.  0.
          1    1    3    3  502    0 -0.21066201569E+03 -0.20989111286E+03  0.44080899873E+00  0.29737679537E+03  0.00000000000E+00 0. -1.
         -2    1    3    3    0  502 -0.55357513334E+03 -0.55124506928E+03 -0.13026227359E+03  0.79201314040E+03  0.00000000000E+00 0.  1.
         13    1    5    5    0    0  0.62668011456E+03  0.49050106555E+03 -0.22325838517E+02  0.79612668863E+03  0.00000000000E+00 0.  1.
        -13    1    5    5    0    0  0.33263637419E+03  0.17724877013E+03 -0.72521145860E+01  0.37698365630E+03  0.00000000000E+00 0. -1.
          3    1    6    6  503    0 -0.14910098693E+03  0.10076309103E+03  0.18695023854E+02  0.18092487042E+03  0.00000000000E+00 0. -1.
         -3    1    6    6    0  503 -0.45978352789E+02 -0.73767445798E+01 -0.24312404333E+02  0.52531117352E+02  0.00000000000E+00 0.  1.
<mgrwt>
<rscale>  0 0.24904954E+04</rscale>
<asrwt>0</asrwt>
<pdfrwt beam="1">  1        1 0.20469024E+00 0.24904954E+04</pdfrwt>
<pdfrwt beam="2">  1       -2 0.17930304E+00 0.24904954E+04</pdfrwt>
<totfact> 0.12311426E+00</totfact>
</mgrwt>
</event>
<event>
12    5  0.5197392E-008  0.1234396E+04  0.7818608E-02  0.9083272E-01
          3   -1    0    0  501    0  0.00000000000E+00  0.00000000000E+00  0.20670639348E+04  0.20670639348E+04  0.00000000000E+00 0. -1.
         -4   -1    0    0    0  501 -0.00000000000E+00 -0.00000000000E+00 -0.18428704388E+03  0.18428704388E+03  0.00000000000E+00 0.  1.
        -24    2    1    2    0    0  0.80114953483E+02  0.12591117822E+03  0.86064472032E+03  0.87710766581E+03  0.79602086927E+02 0.  0.
        254    2    1    2    0    0 -0.80114953483E+02 -0.12591117822E+03  0.10221321706E+04  0.13742433129E+04  0.90637656534E+03 0.  0.
         23    2    4    4    0    0 -0.23299372231E+03  0.33827673080E+03  0.47962659387E+03  0.63815146408E+03  0.92078229363E+02 0.  0.
         23    2    4    4    0    0  0.15287876883E+03 -0.46418790901E+03  0.54250557674E+03  0.73609184880E+03  0.93148141334E+02 0.  0.
          1    1    3    3  502    0  0.60305564848E+02  0.13241708740E+03  0.68863911239E+03  0.70384293226E+03  0.00000000000E+00 0. -1.
         -2    1    3    3    0  502  0.19809388635E+02 -0.65059091799E+01  0.17200560793E+03  0.17326473355E+03  0.00000000000E+00 0.  1.
         13    1    5    5    0    0 -0.19046407980E+03  0.19959261389E+03  0.31419745295E+03  0.41813133900E+03  0.00000000000E+00 0. -1.
        -13    1    5    5    0    0 -0.42529642512E+02  0.13868411690E+03  0.16542914093E+03  0.22002012508E+03  0.00000000000E+00 0.  1.
          4    1    6    6  503    0  0.10413244772E+03 -0.21201393125E+03  0.21095186508E+03  0.31669253716E+03  0.00000000000E+00 0. -1.
         -4    1    6    6    0  503  0.48746321104E+02 -0.25217397776E+03  0.33155371166E+03  0.41939931163E+03  0.00000000000E+00 0.  1.
<mgrwt>
<rscale>  0 0.12343956E+04</rscale>
<asrwt>0</asrwt>
<pdfrwt beam="1">  1        3 0.31800982E+00 0.12343956E+04</pdfrwt>
<pdfrwt beam="2">  1       -4 0.28351854E-01 0.12343956E+04</pdfrwt>
<totfact> 0.84286418E-01</totfact>
</mgrwt>
</event>
<event>
12    5  0.5197392E-008  0.1367229E+04  0.7818608E-02  0.8977888E-01
         -2   -1    0    0    0  501 -0.00000000000E+00  0.00000000000E+00  0.15405494019E+04  0.15405494019E+04  0.00000000000E+00 0.  1.
          1   -1    0    0  501    0  0.00000000000E+00 -0.00000000000E+00 -0.30335183132E+03  0.30335183132E+03  0.00000000000E+00 0. -1.
        -24    2    1    2    0    0  0.36857618584E+03  0.79502573899E+02  0.22099753245E+03  0.44470895670E+03  0.82201476856E+02 0.  0.
        254    2    1    2    0    0 -0.36857618584E+03 -0.79502573899E+02  0.10162000381E+04  0.13991922765E+04  0.88482057228E+03 0.  0.
         23    2    4    4    0    0  0.14492832930E+03  0.27550045005E+03  0.26966866613E+03  0.42182290239E+03  0.91151812264E+02 0.  0.
         23    2    4    4    0    0 -0.51350451514E+03 -0.35500302395E+03  0.74653137201E+03  0.97736937412E+03  0.90707055914E+02 0.  0.
          1    1    3    3  502    0  0.95001955386E+02  0.23462351906E+02  0.10141090212E+03  0.14092559935E+03  0.00000000000E+00 0. -1.
         -2    1    3    3    0  502  0.27357423045E+03  0.56040221993E+02  0.11958663033E+03  0.30378335735E+03  0.00000000000E+00 0.  1.
         13    1    5    5    0    0 -0.12131122268E+01 -0.46695772522E+01  0.15681865230E+02  0.16407238954E+02  0.00000000000E+00 0.  1.
        -13    1    5    5    0    0  0.14614144153E+03  0.28017002730E+03  0.25398680090E+03  0.40541566344E+03  0.00000000000E+00 0. -1.
          1    1    6    6  503    0 -0.37474695437E+03 -0.23627350067E+03  0.46908079423E+03  0.64521100304E+03  0.00000000000E+00 0. -1.
         -1    1    6    6    0  503 -0.13875756077E+03 -0.11872952328E+03  0.27745057778E+03  0.33215837108E+03  0.00000000000E+00 0.  1.
<mgrwt>
<rscale>  0 0.13672286E+04</rscale>
<asrwt>0</asrwt>
<pdfrwt beam="1">  1        1 0.46669513E-01 0.13672286E+04</pdfrwt>
<pdfrwt beam="2">  1       -2 0.23700760E+00 0.13672286E+04</pdfrwt>
<totfact> 0.57045712E+00</totfact>
</mgrwt>
</event>
<event>
12    5  0.5197392E-008  0.1707155E+04  0.7818608E-02  0.8757294E-01
          1   -1    0    0  501    0  0.00000000000E+00  0.00000000000E+00  0.16449521659E+04  0.16449521659E+04  0.00000000000E+00 0. -1.
         -2   -1    0    0    0  501 -0.00000000000E+00 -0.00000000000E+00 -0.44292743643E+03  0.44292743643E+03  0.00000000000E+00 0.  1.
        -24    2    1    2    0    0 -0.39482747334E+03  0.22140408594E+03  0.94133935229E+03  0.10475575164E+04  0.79677293651E+02 0.  0.
        254    2    1    2    0    0  0.39482747334E+03 -0.22140408594E+03  0.26068537718E+03  0.10403220859E+04  0.89966920228E+03 0.  0.
         23    2    4    4    0    0 -0.14684575041E+03  0.97807577332E+02  0.34517426677E+03  0.39938840118E+03  0.96103194349E+02 0.  0.
         23    2    4    4    0    0  0.54167322375E+03 -0.31921166327E+03 -0.84488889583E+02  0.64093368470E+03  0.91387353739E+02 0.  0.
          3    1    3    3  502    0 -0.15755882269E+03  0.80434434666E+02  0.45794437142E+03  0.49092517577E+03  0.00000000000E+00 0. -1.
         -4    1    3    3    0  502 -0.23726865065E+03  0.14096965127E+03  0.48339498087E+03  0.55663234068E+03  0.00000000000E+00 0.  1.
         13    1    5    5    0    0 -0.84829152177E+02  0.10188149416E+03  0.18515836521E+03  0.22772668732E+03  0.00000000000E+00 0.  1.
        -13    1    5    5    0    0 -0.62016598232E+02 -0.40739168276E+01  0.16001590155E+03  0.17166171386E+03  0.00000000000E+00 0. -1.
          1    1    6    6  503    0  0.60418119281E+02 -0.25417864078E+02 -0.36563868294E+02  0.75055535548E+02  0.00000000000E+00 0. -1.
         -1    1    6    6    0  503  0.48125510447E+03 -0.29379379919E+03 -0.47925021289E+02  0.56587814915E+03  0.00000000000E+00 0.  1.
<mgrwt>
<rscale>  0 0.17071549E+04</rscale>
<asrwt>0</asrwt>
<pdfrwt beam="1">  1        1 0.25306956E+00 0.17071549E+04</pdfrwt>
<pdfrwt beam="2">  1       -2 0.68142683E-01 0.17071549E+04</pdfrwt>
<totfact> 0.85518867E+00</totfact>
</mgrwt>
</event>
<event>
12    5  0.5197392E-008  0.1007707E+04  0.7818608E-02  0.9300132E-01
          1   -1    0    0  501    0  0.00000000000E+00  0.00000000000E+00  0.48367786874E+03  0.48367786874E+03  0.00000000000E+00 0. -1.
         -2   -1    0    0    0  501 -0.00000000000E+00 -0.00000000000E+00 -0.52487072725E+03  0.52487072725E+03  0.00000000000E+00 0.  1.
        -24    2    1    2    0    0 -0.19516184790E+02  0.56808313788E+02  0.65796144030E+01  0.99909656792E+02  0.79564955919E+02 0.  0.
        254    2    1    2    0    0  0.19516184790E+02 -0.56808313788E+02 -0.47772472907E+02  0.90863893920E+03  0.90539187465E+03 0.  0.
         23    2    4    4    0    0  0.30829343504E+03 -0.26210660375E+03 -0.25644853686E+03  0.48757115860E+03  0.90637016810E+02 0.  0.
         23    2    4    4    0    0 -0.28877725025E+03  0.20529828997E+03  0.20867606396E+03  0.42106778060E+03  0.90623882430E+02 0.  0.
          3    1    3    3  502    0  0.10255168208E+02  0.12595910723E+02  0.35664446135E+02  0.39189005601E+02  0.00000000000E+00 0. -1.
         -4    1    3    3    0  502 -0.29771352998E+02  0.44212403066E+02 -0.29084831732E+02  0.60720651191E+02  0.00000000000E+00 0.  1.
         13    1    5    5    0    0  0.46121502774E+02 -0.47166349553E+02 -0.63285915290E+01  0.66271476662E+02  0.00000000000E+00 0.  1.
        -13    1    5    5    0    0  0.26217193227E+03 -0.21494025420E+03 -0.25011994534E+03  0.42129968194E+03  0.00000000000E+00 0. -1.
          2    1    6    6  503    0 -0.17054291060E+03  0.10034939820E+03  0.16339262352E+03  0.25661651446E+03  0.00000000000E+00 0. -1.
         -2    1    6    6    0  503 -0.11823433966E+03  0.10494889177E+03  0.45283440434E+02  0.16445126614E+03  0.00000000000E+00 0.  1.
<mgrwt>
<rscale>  0 0.10077070E+04</rscale>
<asrwt>0</asrwt>
<pdfrwt beam="1">  1        1 0.74411981E-01 0.10077070E+04</pdfrwt>
<pdfrwt beam="2">  1       -2 0.80749342E-01 0.10077070E+04</pdfrwt>
<totfact> 0.55070673E+01</totfact>
</mgrwt>
</event>
<event>
12    5  0.5197392E-008  0.1586284E+04  0.7818608E-02  0.8829019E-01
         -2   -1    0    0    0  501 -0.00000000000E+00  0.00000000000E+00  0.13178634706E+04  0.13178634706E+04  0.00000000000E+00 0.  1.
          1   -1    0    0  501    0  0.00000000000E+00 -0.00000000000E+00 -0.47734419701E+03  0.47734419701E+03  0.00000000000E+00 0. -1.
        -24    2    1    2    0    0 -0.52474371208E+03  0.44750211700E+02  0.19121604057E+03  0.56590529456E+03  0.79540451498E+02 0.  0.
        254    2    1    2    0    0  0.52474371208E+03 -0.44750211700E+02  0.64930323301E+03  0.12293023730E+04  0.90123864272E+03 0.  0.
         23    2    4    4    0    0  0.74152866354E+03  0.11151529210E+03  0.52145735458E+03  0.91790695568E+03  0.91296152299E+02 0.  0.
         23    2    4    4    0    0 -0.21678495146E+03 -0.15626550380E+03  0.12784587843E+03  0.31139541735E+03  0.95957878585E+02 0.  0.
          3    1    3    3  502    0 -0.52363290664E+03  0.38768637870E+02  0.19323592759E+03  0.55949490785E+03  0.00000000000E+00 0. -1.
         -4    1    3    3    0  502 -0.11108054410E+01  0.59815738292E+01 -0.20198870200E+01  0.64103867103E+01  0.00000000000E+00 0.  1.
         13    1    5    5    0    0  0.28339793590E+02 -0.59887024296E-01  0.16958205530E+01  0.28390549387E+02  0.00000000000E+00 0. -1.
        -13    1    5    5    0    0  0.71318886995E+03  0.11157517912E+03  0.51976153403E+03  0.88951640630E+03  0.00000000000E+00 0.  1.
          2    1    6    6  503    0 -0.11989260814E+03 -0.11884775558E+03  0.12022232430E+03  0.20724968939E+03  0.00000000000E+00 0. -1.
         -2    1    6    6    0  503 -0.96892343316E+02 -0.37417748219E+02  0.76235541273E+01  0.10414572796E+03  0.00000000000E+00 0.  1.
<mgrwt>
<rscale>  0 0.15862843E+04</rscale>
<asrwt>0</asrwt>
<pdfrwt beam="1">  1        1 0.73437569E-01 0.15862843E+04</pdfrwt>
<pdfrwt beam="2">  1       -2 0.20274822E+00 0.15862843E+04</pdfrwt>
<totfact> 0.50602467E+00</totfact>
</mgrwt>
</event>
<event>
12    5  0.5197392E-008  0.1525235E+04  0.7818608E-02  0.8867843E-01
          1   -1    0    0  501    0  0.00000000000E+00  0.00000000000E+00  0.16709910749E+04  0.16709910749E+04  0.00000000000E+00 0. -1.
         -2   -1    0    0    0  501 -0.00000000000E+00 -0.00000000000E+00 -0.34804802815E+03  0.34804802815E+03  0.00000000000E+00 0.  1.
        -24    2    1    2    0    0  0.32658133970E+03 -0.26309972604E+03  0.89384616689E+02  0.43729719497E+03  0.85804369048E+02 0.  0.
        254    2    1    2    0    0 -0.32658133970E+03  0.26309972604E+03  0.12335584301E+04  0.15817419081E+04  0.89686354934E+03 0.  0.
         23    2    4    4    0    0 -0.44173433955E+03  0.46377363685E+02  0.12403707211E+04  0.13205629192E+04  0.89926698859E+02 0.  0.
         23    2    4    4    0    0  0.11515299985E+03  0.21672236235E+03 -0.68122909789E+01  0.26117898894E+03  0.89102532182E+02 0.  0.
          1    1    3    3  502    0  0.11857466204E+03 -0.11267587594E+03  0.75685435435E+02  0.18023342818E+03  0.00000000000E+00 0. -1.
         -2    1    3    3    0  502  0.20800667766E+03 -0.15042385010E+03  0.13699181254E+02  0.25706376679E+03  0.00000000000E+00 0.  1.
         13    1    5    5    0    0 -0.22492813142E+03  0.53162688863E+02  0.73849865034E+03  0.77382116303E+03  0.00000000000E+00 0.  1.
        -13    1    5    5    0    0 -0.21680620813E+03 -0.67853251784E+01  0.50187207075E+03  0.54674175615E+03  0.00000000000E+00 0. -1.
          3    1    6    6  503    0  0.54720543600E+02  0.11898619235E+03  0.40239816316E+02  0.13700837448E+03  0.00000000000E+00 0. -1.
         -3    1    6    6    0  503  0.60432456246E+02  0.97736170004E+02 -0.47052107295E+02  0.12417061446E+03  0.00000000000E+00 0.  1.
<mgrwt>
<rscale>  0 0.15252346E+04</rscale>
<asrwt>0</asrwt>
<pdfrwt beam="1">  1        1 0.25707555E+00 0.15252346E+04</pdfrwt>
<pdfrwt beam="2">  1       -2 0.53545851E-01 0.15252346E+04</pdfrwt>
<totfact> 0.13892986E+01</totfact>
</mgrwt>
</event>
<event>
12    5  0.5269330E-008  0.1958434E+04  0.7818608E-02  0.8626304E-01
          1   -1    0    0  501    0  0.00000000000E+00  0.00000000000E+00  0.85769218730E+03  0.85769218730E+03  0.00000000000E+00 0. -1.
         -2   -1    0    0    0  501 -0.00000000000E+00 -0.00000000000E+00 -0.11179604720E+04  0.11179604720E+04  0.00000000000E+00 0.  1.
        -24    2    1    2    0    0 -0.33405324005E+03 -0.35985418196E+03 -0.70200244506E+03  0.86037370094E+03  0.79679815182E+02 0.  0.
        254    2    1    2    0    0  0.33405324005E+03  0.35985418196E+03  0.44173416039E+03  0.11152789583E+04  0.89868319611E+03 0.  0.
         23    2    4    4    0    0  0.39329953817E+03  0.45724070474E+03  0.62952772626E+03  0.87664534537E+03  0.91914713860E+02 0.  0.
         23    2    4    4    0    0 -0.59246298121E+02 -0.97386522784E+02 -0.18779356587E+03  0.23863361296E+03  0.93195059908E+02 0.  0.
          1    1    3    3  502    0 -0.55479367031E+02 -0.56522169895E+02 -0.68203565938E+02  0.10452005675E+03  0.00000000000E+00 0. -1.
         -2    1    3    3    0  502 -0.27857387302E+03 -0.30333201206E+03 -0.63379887912E+03  0.75585364420E+03  0.00000000000E+00 0.  1.
         13    1    5    5    0    0  0.27279656236E+03  0.37198974304E+03  0.49963696234E+03  0.68002310806E+03  0.00000000000E+00 0. -1.
        -13    1    5    5    0    0  0.12050297582E+03  0.85250961704E+02  0.12989076392E+03  0.19662223731E+03  0.00000000000E+00 0.  1.
          1    1    6    6  503    0 -0.55409873153E+02 -0.99395561356E+02 -0.19753728387E+03  0.22797085380E+03  0.00000000000E+00 0. -1.
         -1    1    6    6    0  503 -0.38364249674E+01  0.20090385713E+01  0.97437180024E+01  0.10662759166E+02  0.00000000000E+00 0.  1.
<mgrwt>
<rscale>  0 0.19584340E+04</rscale>
<asrwt>0</asrwt>
<pdfrwt beam="1">  1        1 0.13195264E+00 0.19584340E+04</pdfrwt>
<pdfrwt beam="2">  1       -2 0.17199392E+00 0.19584340E+04</pdfrwt>
<totfact> 0.33194887E+00</totfact>
</mgrwt>
</event>
<event>
12    5  0.5197392E-008  0.1985337E+04  0.7818608E-02  0.8613507E-01
          1   -1    0    0  501    0  0.00000000000E+00  0.00000000000E+00  0.44345302280E+03  0.44345302280E+03  0.00000000000E+00 0. -1.
         -2   -1    0    0    0  501 -0.00000000000E+00 -0.00000000000E+00 -0.22220860819E+04  0.22220860819E+04  0.00000000000E+00 0.  1.
        -24    2    1    2    0    0  0.47431838228E+03 -0.61130382803E+03 -0.52532825776E+03  0.93856629333E+03  0.79161926743E+02 0.  0.
        254    2    1    2    0    0 -0.47431838228E+03  0.61130382803E+03 -0.12533048013E+04  0.17269728114E+04  0.90166061697E+03 0.  0.
         23    2    4    4    0    0 -0.27009642627E+03  0.82263156128E+03 -0.10197932100E+04  0.13412854384E+04  0.96920952214E+02 0.  0.
         23    2    4    4    0    0 -0.20422195601E+03 -0.21132773325E+03 -0.23351159128E+03  0.38568737293E+03  0.88662665299E+02 0.  0.
          3    1    3    3  502    0  0.26288491009E+03 -0.39493309314E+03 -0.29955760167E+03  0.56108411199E+03  0.00000000000E+00 0. -1.
         -4    1    3    3    0  502  0.21143347219E+03 -0.21637073489E+03 -0.22577065609E+03  0.37748218134E+03  0.00000000000E+00 0.  1.
         13    1    5    5    0    0 -0.24239547244E+03  0.61307074298E+03 -0.79336784586E+03  0.10315250069E+04  0.00000000000E+00 0.  1.
        -13    1    5    5    0    0 -0.27700953827E+02  0.20956081829E+03 -0.22642536419E+03  0.30976043155E+03  0.00000000000E+00 0. -1.
          1    1    6    6  503    0 -0.60010224359E+02 -0.46419191951E+02 -0.11169798008E+03  0.13502743115E+03  0.00000000000E+00 0. -1.
         -1    1    6    6    0  503 -0.14421173165E+03 -0.16490854130E+03 -0.12181361120E+03  0.25065994178E+03  0.00000000000E+00 0.  1.
<mgrwt>
<rscale>  0 0.19853370E+04</rscale>
<asrwt>0</asrwt>
<pdfrwt beam="1">  1        1 0.68223544E-01 0.19853370E+04</pdfrwt>
<pdfrwt beam="2">  1       -2 0.34185939E+00 0.19853370E+04</pdfrwt>
<totfact> 0.74485543E-01</totfact>
</mgrwt>
</event>
<event>
12    5  0.5197392E-008  0.1370166E+04  0.7818608E-02  0.8975701E-01
         -2   -1    0    0    0  501 -0.00000000000E+00  0.00000000000E+00  0.40739764472E+03  0.40739764472E+03  0.00000000000E+00 0.  1.
          1   -1    0    0  501    0  0.00000000000E+00 -0.00000000000E+00 -0.11520414371E+04  0.11520414371E+04  0.00000000000E+00 0. -1.
        -24    2    1    2    0    0 -0.15231230346E+03  0.60166331482E+02  0.17888278136E+03  0.26103914643E+03  0.96557554179E+02 0.  0.
        254    2    1    2    0    0  0.15231230346E+03 -0.60166331482E+02 -0.92352657373E+03  0.12983999354E+04  0.89784298995E+03 0.  0.
         23    2    4    4    0    0 -0.19226674467E+03  0.15470218165E+03 -0.83216651806E+03  0.87286874990E+03  0.92192595521E+02 0.  0.
         23    2    4    4    0    0  0.34457904813E+03 -0.21486851313E+03 -0.91360055668E+02  0.42553118548E+03  0.88469948008E+02 0.  0.
          1    1    3    3  502    0  0.40978887337E+01 -0.53326775540E-01  0.48556765469E+02  0.48729405995E+02  0.00000000000E+00 0. -1.
         -2    1    3    3    0  502 -0.15641019220E+03  0.60219658258E+02  0.13032601589E+03  0.21230974043E+03  0.00000000000E+00 0.  1.
         13    1    5    5    0    0 -0.70372189138E+02  0.15109127875E+02 -0.15668136172E+03  0.17242267791E+03  0.00000000000E+00 0. -1.
        -13    1    5    5    0    0 -0.12189455553E+03  0.13959305377E+03 -0.67548515634E+03  0.70044607199E+03  0.00000000000E+00 0.  1.
          1    1    6    6  503    0  0.48472379090E+02  0.11062454555E+01 -0.32966399364E+01  0.48596945877E+02  0.00000000000E+00 0. -1.
         -1    1    6    6    0  503  0.29610666904E+03 -0.21597475858E+03 -0.88063415732E+02  0.37693423960E+03  0.00000000000E+00 0.  1.
<mgrwt>
<rscale>  0 0.13701664E+04</rscale>
<asrwt>0</asrwt>
<pdfrwt beam="1">  1        1 0.17723714E+00 0.13701664E+04</pdfrwt>
<pdfrwt beam="2">  1       -2 0.62676561E-01 0.13701664E+04</pdfrwt>
<totfact> 0.23450504E+01</totfact>
</mgrwt>
</event>
<event>
12    5  0.5197392E-008  0.1645690E+04  0.7818608E-02  0.8792961E-01
         -2   -1    0    0    0  501 -0.00000000000E+00  0.00000000000E+00  0.30931370061E+03  0.30931370061E+03  0.00000000000E+00 0.  1.
          1   -1    0    0  501    0  0.00000000000E+00 -0.00000000000E+00 -0.21889543502E+04  0.21889543502E+04  0.00000000000E+00 0. -1.
        -24    2    1    2    0    0  0.42962037511E+03 -0.19444468046E+03 -0.17351611611E+03  0.51457387427E+03  0.11088746125E+03 0.  0.
        254    2    1    2    0    0 -0.42962037511E+03  0.19444468046E+03 -0.17061245335E+04  0.19836941765E+04  0.89543244402E+03 0.  0.
         23    2    4    4    0    0 -0.66296686992E+03  0.29773993207E+03 -0.11230900908E+04  0.13408027788E+04  0.90810802911E+02 0.  0.
         23    2    4    4    0    0  0.23334649481E+03 -0.10329525161E+03 -0.58303444271E+03  0.64289139772E+03  0.90882848936E+02 0.  0.
          1    1    3    3  502    0  0.12172207528E+02 -0.18323102187E+02 -0.34007002899E+02  0.40501542637E+02  0.00000000000E+00 0. -1.
         -2    1    3    3    0  502  0.41744816758E+03 -0.17612157827E+03 -0.13950911322E+03  0.47407233164E+03  0.00000000000E+00 0.  1.
         13    1    5    5    0    0 -0.13953846804E+03  0.65130431128E+02 -0.31098537191E+03  0.34702285035E+03  0.00000000000E+00 0. -1.
        -13    1    5    5    0    0 -0.52342840189E+03  0.23260950094E+03 -0.81210471885E+03  0.99377992846E+03  0.00000000000E+00 0.  1.
          3    1    6    6  503    0  0.57311285231E+02 -0.69860932823E+02 -0.16618830585E+03  0.18916576422E+03  0.00000000000E+00 0. -1.
         -3    1    6    6    0  503  0.17603520958E+03 -0.33434318784E+02 -0.41684613685E+03  0.45372563350E+03  0.00000000000E+00 0.  1.
<mgrwt>
<rscale>  0 0.16456896E+04</rscale>
<asrwt>0</asrwt>
<pdfrwt beam="1">  1        1 0.33676221E+00 0.16456896E+04</pdfrwt>
<pdfrwt beam="2">  1       -2 0.47586723E-01 0.16456896E+04</pdfrwt>
<totfact> 0.77919198E+00</totfact>
</mgrwt>
</event>
<event>
12    5  0.5197392E-008  0.2968307E+04  0.7818608E-02  0.8252839E-01
         -2   -1    0    0    0  501 -0.00000000000E+00  0.00000000000E+00  0.12657294077E+04  0.12657294077E+04  0.00000000000E+00 0.  1.
          1   -1    0    0  501    0  0.00000000000E+00 -0.00000000000E+00 -0.17402700903E+04  0.17402700903E+04  0.00000000000E+00 0. -1.
        -24    2    1    2    0    0  0.12875031963E+04  0.24312317143E+03  0.93567687138E+02  0.13159788112E+04  0.79195722140E+02 0.  0.
        254    2    1    2    0    0 -0.12875031963E+04 -0.24312317143E+03 -0.56810836974E+03  0.16900206867E+04  0.90368658554E+03 0.  0.
         23    2    4    4    0    0 -0.13162690736E+04 -0.36188923402E+03 -0.32739725535E+03  0.14068873395E+04  0.92816655225E+02 0.  0.
         23    2    4    4    0    0  0.28765877264E+02  0.11876606259E+03 -0.24071111439E+03  0.28313334726E+03  0.85380316362E+02 0.  0.
          1    1    3    3  502    0  0.52166534832E+03  0.77629888790E+02  0.46091000768E+01  0.52742997551E+03  0.00000000000E+00 0. -1.
         -2    1    3    3    0  502  0.76583784798E+03  0.16549328264E+03  0.88958587061E+02  0.78854883566E+03  0.00000000000E+00 0.  1.
         13    1    5    5    0    0 -0.35819187516E+03 -0.12114140480E+03 -0.54546403542E+02  0.38203660757E+03  0.00000000000E+00 0.  1.
        -13    1    5    5    0    0 -0.95807719841E+03 -0.24074782921E+03 -0.27285085181E+03  0.10248507319E+04  0.00000000000E+00 0. -1.
          1    1    6    6  503    0  0.54807718702E+02  0.54556813979E+02 -0.15226973467E+03  0.17078174398E+03  0.00000000000E+00 0. -1.
         -1    1    6    6    0  503 -0.26041841438E+02  0.64209248607E+02 -0.88441379720E+02  0.11235160328E+03  0.00000000000E+00 0.  1.
<mgrwt>
<rscale>  0 0.29683066E+04</rscale>
<asrwt>0</asrwt>
<pdfrwt beam="1">  1        1 0.26773386E+00 0.29683066E+04</pdfrwt>
<pdfrwt beam="2">  1       -2 0.19472760E+00 0.29683066E+04</pdfrwt>
<totfact> 0.48351048E-01</totfact>
</mgrwt>
</event>
<event>
12    5  0.5197392E-008  0.2006138E+04  0.7818608E-02  0.8603756E-01
          1   -1    0    0  501    0  0.00000000000E+00  0.00000000000E+00  0.27481780362E+04  0.27481780362E+04  0.00000000000E+00 0. -1.
         -2   -1    0    0    0  501 -0.00000000000E+00 -0.00000000000E+00 -0.36611438693E+03  0.36611438693E+03  0.00000000000E+00 0.  1.
        -24    2    1    2    0    0  0.27982957574E+03 -0.44146247917E+03  0.18761163147E+04  0.19491511590E+04  0.78639065489E+02 0.  0.
        254    2    1    2    0    0 -0.27982957574E+03  0.44146247917E+03  0.50594733456E+03  0.11651412641E+04  0.91015259595E+03 0.  0.
         23    2    4    4    0    0  0.85752987419E+02  0.35524153997E+03  0.65116582323E+03  0.75223257194E+03  0.91031787786E+02 0.  0.
         23    2    4    4    0    0 -0.36558256316E+03  0.86220939203E+02 -0.14521848866E+03  0.41290869212E+03  0.91216872013E+02 0.  0.
          1    1    3    3  502    0  0.24622338858E+03 -0.35512940259E+03  0.14470725545E+04  0.15102191324E+04  0.00000000000E+00 0. -1.
         -2    1    3    3    0  502  0.33606187160E+02 -0.86333076581E+02  0.42904376012E+03  0.43893202666E+03  0.00000000000E+00 0.  1.
         13    1    5    5    0    0  0.93787626047E+02  0.22310275772E+03  0.45877233960E+03  0.51869356934E+03  0.00000000000E+00 0. -1.
        -13    1    5    5    0    0 -0.80346386283E+01  0.13213878225E+03  0.19239348363E+03  0.23353900260E+03  0.00000000000E+00 0.  1.
          4    1    6    6  503    0 -0.55531496829E+02 -0.18656054824E+02 -0.13678976806E+02  0.60157376340E+02  0.00000000000E+00 0.  1.
         -4    1    6    6    0  503 -0.31005106633E+03  0.10487699403E+03 -0.13153951186E+03  0.35275131578E+03  0.00000000000E+00 0. -1.
<mgrwt>
<rscale>  0 0.20061381E+04</rscale>
<asrwt>0</asrwt>
<pdfrwt beam="1">  1        1 0.42279661E+00 0.20061381E+04</pdfrwt>
<pdfrwt beam="2">  1       -2 0.56325292E-01 0.20061381E+04</pdfrwt>
<totfact> 0.21884507E+00</totfact>
</mgrwt>
</event>
<event>
12    5  0.5197392E-008  0.1384837E+04  0.7818608E-02  0.8964868E-01
         -4   -1    0    0    0  501 -0.00000000000E+00  0.00000000000E+00  0.16581462817E+04  0.16581462817E+04  0.00000000000E+00 0.  1.
          3   -1    0    0  501    0  0.00000000000E+00 -0.00000000000E+00 -0.28914417941E+03  0.28914417941E+03  0.00000000000E+00 0. -1.
        -24    2    1    2    0    0  0.35997256050E+03 -0.15362027565E+03  0.33796596022E+03  0.52328910846E+03  0.80193935911E+02 0.  0.
        254    2    1    2    0    0 -0.35997256050E+03  0.15362027565E+03  0.10310361420E+04  0.14240013526E+04  0.90086896531E+03 0.  0.
         23    2    4    4    0    0 -0.16104082850E+03  0.52114347192E+03  0.53215461064E+03  0.76725361144E+03  0.89246332546E+02 0.  0.
         23    2    4    4    0    0 -0.19893173200E+03 -0.36752319627E+03  0.49888153140E+03  0.65674774118E+03  0.88247829336E+02 0.  0.
          3    1    3    3  502    0  0.48553345237E+02 -0.20748452737E+01  0.70833352541E+02  0.85901665576E+02  0.00000000000E+00 0. -1.
         -4    1    3    3    0  502  0.31141921526E+03 -0.15154543038E+03  0.26713260768E+03  0.43738744288E+03  0.00000000000E+00 0.  1.
         13    1    5    5    0    0 -0.90390050891E+02  0.16765313319E+03  0.21361565875E+03  0.28619850459E+03  0.00000000000E+00 0.  1.
        -13    1    5    5    0    0 -0.70650777609E+02  0.35349033872E+03  0.31853895189E+03  0.48105510684E+03  0.00000000000E+00 0. -1.
          3    1    6    6  503    0 -0.10316810424E+03 -0.10693223109E+03  0.15385256157E+03  0.21388962219E+03  0.00000000000E+00 0. -1.
         -3    1    6    6    0  503 -0.95763627756E+02 -0.26059096518E+03  0.34502896983E+03  0.44285811899E+03  0.00000000000E+00 0.  1.
<mgrwt>
<rscale>  0 0.13848370E+04</rscale>
<asrwt>0</asrwt>
<pdfrwt beam="1">  1        3 0.44483721E-01 0.13848370E+04</pdfrwt>
<pdfrwt beam="2">  1       -4 0.25509942E+00 0.13848370E+04</pdfrwt>
<totfact> 0.66012596E-01</totfact>
</mgrwt>
</event>
<event>
12    5  0.7212349E-008  0.2182474E+04  0.7818608E-02  0.8525758E-01
         -2   -1    0    0    0  501 -0.00000000000E+00  0.00000000000E+00  0.86145890080E+03  0.86145890080E+03  0.00000000000E+00 0.  1.
          1   -1    0    0  501    0  0.00000000000E+00 -0.00000000000E+00 -0.13823042890E+04  0.13823042890E+04  0.00000000000E+00 0. -1.
        -24    2    1    2    0    0  0.31421154067E+03  0.88235844219E+02  0.65144042685E+03  0.73284876621E+03  0.78601704276E+02 0.  0.
        254    2    1    2    0    0 -0.31421154067E+03 -0.88235844219E+02 -0.11722858150E+04  0.15109144236E+04  0.89559695552E+03 0.  0.
         23    2    4    4    0    0 -0.32677667649E+03 -0.13457726844E+03 -0.33199013355E+02  0.36702474096E+03  0.93332462237E+02 0.  0.
         23    2    4    4    0    0  0.12565135820E+02  0.46341424226E+02 -0.11390868017E+04  0.11438896826E+04  0.93056187354E+02 0.  0.
          1    1    3    3  502    0 -0.87579755939E+00  0.28814546858E+01  0.36574418152E+02  0.36698199760E+02  0.00000000000E+00 0. -1.
         -2    1    3    3    0  502  0.31508733823E+03  0.85354389533E+02  0.61486600869E+03  0.69615056645E+03  0.00000000000E+00 0.  1.
         13    1    5    5    0    0 -0.30517736543E+03 -0.10063718775E+03 -0.12036275772E+02  0.32156793973E+03  0.00000000000E+00 0.  1.
        -13    1    5    5    0    0 -0.21599311067E+02 -0.33940080697E+02 -0.21162737584E+02  0.45456801233E+02  0.00000000000E+00 0. -1.
          2    1    6    6  503    0  0.16129469635E+02  0.12823246917E+02 -0.47430671895E+02  0.51713287350E+02  0.00000000000E+00 0. -1.
         -2    1    6    6    0  503 -0.35643338154E+01  0.33518177308E+02 -0.10916561298E+04  0.10921763952E+04  0.00000000000E+00 0.  1.
<mgrwt>
<rscale>  0 0.21824741E+04</rscale>
<asrwt>0</asrwt>
<pdfrwt beam="1">  1        1 0.21266220E+00 0.21824741E+04</pdfrwt>
<pdfrwt beam="2">  1       -2 0.13253214E+00 0.21824741E+04</pdfrwt>
<totfact> 0.26203901E+00</totfact>
</mgrwt>
</event>
<event>
12    5  0.5197392E-008  0.2174651E+04  0.7818608E-02  0.8529054E-01
         -2   -1    0    0    0  501 -0.00000000000E+00  0.00000000000E+00  0.69903784797E+03  0.69903784797E+03  0.00000000000E+00 0.  1.
          1   -1    0    0  501    0  0.00000000000E+00 -0.00000000000E+00 -0.16912910697E+04  0.16912910697E+04  0.00000000000E+00 0. -1.
        -24    2    1    2    0    0 -0.78697446359E+03 -0.35121316947E+03 -0.16248219841E+03  0.88077402861E+03  0.81749176881E+02 0.  0.
        254    2    1    2    0    0  0.78697446359E+03  0.35121316947E+03 -0.82977102336E+03  0.15095548891E+04  0.92062832631E+03 0.  0.
         23    2    4    4    0    0 -0.76839629776E+02  0.20236202858E+03  0.75976978277E+02  0.24658841846E+03  0.90435764905E+02 0.  0.
         23    2    4    4    0    0  0.86381409337E+03  0.14885114089E+03 -0.90574800164E+03  0.12629664706E+04  0.79833660899E+02 0.  0.
          1    1    3    3  502    0 -0.11584122368E+03 -0.31995558766E+02 -0.45184615325E+02  0.12839218959E+03  0.00000000000E+00 0. -1.
         -2    1    3    3    0  502 -0.67113323991E+03 -0.31921761071E+03 -0.11729758308E+03  0.75238183903E+03  0.00000000000E+00 0.  1.
         13    1    5    5    0    0 -0.84571689936E+02  0.19685215591E+03  0.51526252027E+02  0.22035901768E+03  0.00000000000E+00 0.  1.
        -13    1    5    5    0    0  0.77320601605E+01  0.55098726763E+01  0.24450726250E+02  0.26229400782E+02  0.00000000000E+00 0. -1.
          4    1    6    6  503    0  0.16832220894E+02  0.15029205803E+02 -0.26629678285E+02  0.34904733961E+02  0.00000000000E+00 0. -1.
         -4    1    6    6    0  503  0.84698187248E+03  0.13382193509E+03 -0.87911832335E+03  0.12280617367E+04  0.00000000000E+00 0.  1.
<mgrwt>
<rscale>  0 0.21746507E+04</rscale>
<asrwt>0</asrwt>
<pdfrwt beam="1">  1        1 0.26019862E+00 0.21746507E+04</pdfrwt>
<pdfrwt beam="2">  1       -2 0.10754429E+00 0.21746507E+04</pdfrwt>
<totfact> 0.26901004E+00</totfact>
</mgrwt>
</event>
<event>
12    5  0.5197392E-008  0.1695540E+04  0.7818608E-02  0.8763912E-01
         -2   -1    0    0    0  501 -0.00000000000E+00  0.00000000000E+00  0.14266669644E+04  0.14266669644E+04  0.00000000000E+00 0.  1.
          1   -1    0    0  501    0  0.00000000000E+00 -0.00000000000E+00 -0.50377152482E+03  0.50377152482E+03  0.00000000000E+00 0. -1.
        -24    2    1    2    0    0 -0.38739817023E+03 -0.39120577952E+03  0.44534263951E+02  0.56139114783E+03  0.10028666896E+03 0.  0.
        254    2    1    2    0    0  0.38739817023E+03  0.39120577952E+03  0.87836117568E+03  0.13690473414E+04  0.89423317090E+03 0.  0.
         23    2    4    4    0    0 -0.11484826166E+03  0.50479187749E+03  0.45048851115E+03  0.69319181923E+03  0.97826564814E+02 0.  0.
         23    2    4    4    0    0  0.50224643188E+03 -0.11358609797E+03  0.42787266453E+03  0.67585552221E+03  0.92479132037E+02 0.  0.
          3    1    3    3  502    0 -0.37783207076E+03 -0.34263373923E+03  0.38197702955E+02  0.51148217707E+03  0.00000000000E+00 0. -1.
         -4    1    3    3    0  502 -0.95660994684E+01 -0.48572040285E+02  0.63365609952E+01  0.49908970754E+02  0.00000000000E+00 0.  1.
         13    1    5    5    0    0 -0.13005878003E+03  0.43743604525E+03  0.40774115041E+03  0.61197910560E+03  0.00000000000E+00 0.  1.
        -13    1    5    5    0    0  0.15210518371E+02  0.67355832232E+02  0.42747360737E+02  0.81212713628E+02  0.00000000000E+00 0. -1.
          2    1    6    6  503    0  0.32333996128E+03 -0.35335414809E+02  0.29962562729E+03  0.44223617970E+03  0.00000000000E+00 0.  1.
         -2    1    6    6    0  503  0.17890647060E+03 -0.78250683158E+02  0.12824703724E+03  0.23361934251E+03  0.00000000000E+00 0. -1.
<mgrwt>
<rscale>  0 0.16955403E+04</rscale>
<asrwt>0</asrwt>
<pdfrwt beam="1">  1        1 0.77503312E-01 0.16955403E+04</pdfrwt>
<pdfrwt beam="2">  1       -2 0.21948722E+00 0.16955403E+04</pdfrwt>
<totfact> 0.36354352E+00</totfact>
</mgrwt>
</event>
<event>
12    5  0.5197392E-008  0.2558131E+04  0.7818608E-02  0.8382564E-01
         -2   -1    0    0    0  501 -0.00000000000E+00  0.00000000000E+00  0.51930252257E+03  0.51930252257E+03  0.00000000000E+00 0.  1.
          1   -1    0    0  501    0  0.00000000000E+00 -0.00000000000E+00 -0.31503956989E+04  0.31503956989E+04  0.00000000000E+00 0. -1.
        -24    2    1    2    0    0  0.93706344332E+03 -0.33410652984E+03 -0.18955976650E+04  0.21423292326E+04  0.81049140281E+02 0.  0.
        254    2    1    2    0    0 -0.93706344332E+03  0.33410652984E+03 -0.73549551129E+03  0.15273689889E+04  0.89564910032E+03 0.  0.
         23    2    4    4    0    0 -0.17440907804E+03  0.79083326327E+02 -0.68410617368E+03  0.71637324430E+03  0.92285802068E+02 0.  0.
         23    2    4    4    0    0 -0.76265436527E+03  0.25502320352E+03 -0.51389337607E+02  0.81099574456E+03  0.91622696274E+02 0.  0.
          3    1    3    3  502    0  0.89457619395E+03 -0.33075583475E+03 -0.18374065218E+04  0.20702001631E+04  0.00000000000E+00 0. -1.
         -4    1    3    3    0  502  0.42487249363E+02 -0.33506950925E+01 -0.58191143267E+02  0.72129069527E+02  0.00000000000E+00 0.  1.
         13    1    5    5    0    0 -0.56572134713E+02 -0.12150358244E+02 -0.27364104414E+03  0.27969172078E+03  0.00000000000E+00 0.  1.
        -13    1    5    5    0    0 -0.11783694333E+03  0.91233684571E+02 -0.41046512954E+03  0.43668152352E+03  0.00000000000E+00 0. -1.
          3    1    6    6  503    0 -0.48571746416E+03  0.11547805867E+03 -0.30826049699E+02  0.50020683958E+03  0.00000000000E+00 0. -1.
         -3    1    6    6    0  503 -0.27693690111E+03  0.13954514484E+03 -0.20563287908E+02  0.31078890498E+03  0.00000000000E+00 0.  1.
<mgrwt>
<rscale>  0 0.25581309E+04</rscale>
<asrwt>0</asrwt>
<pdfrwt beam="1">  1        1 0.48467625E+00 0.25581309E+04</pdfrwt>
<pdfrwt beam="2">  1       -2 0.79892698E-01 0.25581309E+04</pdfrwt>
<totfact> 0.49902144E-01</totfact>
</mgrwt>
</event>
<event>
12    5  0.5197392E-008  0.1688564E+04  0.7818608E-02  0.8767914E-01
          1   -1    0    0  501    0  0.00000000000E+00  0.00000000000E+00  0.21711118325E+04  0.21711118325E+04  0.00000000000E+00 0. -1.
         -2   -1    0    0    0  501 -0.00000000000E+00 -0.00000000000E+00 -0.32831656394E+03  0.32831656394E+03  0.00000000000E+00 0.  1.
        -24    2    1    2    0    0 -0.33721875597E+02 -0.31251139191E+03 -0.96978080555E+02  0.33865904936E+03  0.80527440292E+02 0.  0.
        254    2    1    2    0    0  0.33721875597E+02  0.31251139191E+03  0.19397733492E+04  0.21607693471E+04  0.89855605855E+03 0.  0.
         23    2    4    4    0    0  0.43373776543E+03  0.18069229154E+03  0.69900329420E+03  0.84731524845E+03  0.92516871789E+02 0.  0.
         23    2    4    4    0    0 -0.40001588983E+03  0.13181910037E+03  0.12407700550E+04  0.13134540987E+04  0.90897484455E+02 0.  0.
          1    1    3    3  502    0  0.81780299649E+01 -0.79066283349E+02 -0.57772396849E+02  0.98264984478E+02  0.00000000000E+00 0. -1.
         -2    1    3    3    0  502 -0.41899905561E+02 -0.23344510856E+03 -0.39205683706E+02  0.24039406489E+03  0.00000000000E+00 0.  1.
         13    1    5    5    0    0  0.15654194358E+03  0.38718988416E+02  0.30581014461E+03  0.34572298840E+03  0.00000000000E+00 0. -1.
        -13    1    5    5    0    0  0.27719582185E+03  0.14197330312E+03  0.39319314959E+03  0.50159226004E+03  0.00000000000E+00 0.  1.
          1    1    6    6  503    0 -0.38572990284E+03  0.12755498624E+03  0.11132750392E+04  0.11850903532E+04  0.00000000000E+00 0. -1.
         -1    1    6    6    0  503 -0.14285986993E+02  0.42641141308E+01  0.12749501579E+03  0.12836374545E+03  0.00000000000E+00 0.  1.
<mgrwt>
<rscale>  0 0.16885639E+04</rscale>
<asrwt>0</asrwt>
<pdfrwt beam="1">  1        1 0.33401720E+00 0.16885639E+04</pdfrwt>
<pdfrwt beam="2">  1       -2 0.50510242E-01 0.16885639E+04</pdfrwt>
<totfact> 0.70712596E+00</totfact>
</mgrwt>
</event>
<event>
12    5  0.5197392E-008  0.2010082E+04  0.7818608E-02  0.8601922E-01
          1   -1    0    0  501    0  0.00000000000E+00  0.00000000000E+00  0.85217879099E+03  0.85217879099E+03  0.00000000000E+00 0. -1.
         -2   -1    0    0    0  501 -0.00000000000E+00 -0.00000000000E+00 -0.11853229662E+04  0.11853229662E+04  0.00000000000E+00 0.  1.
        -24    2    1    2    0    0  0.21435510681E+02  0.45364056391E+03  0.53309877372E+03  0.70496400881E+03  0.80812801158E+02 0.  0.
        254    2    1    2    0    0 -0.21435510681E+02 -0.45364056391E+03 -0.86624294896E+03  0.13325377484E+04  0.90500318342E+03 0.  0.
         23    2    4    4    0    0  0.41025353098E+03 -0.13971237692E+03 -0.23639998695E+03  0.50196964077E+03  0.90890365155E+02 0.  0.
         23    2    4    4    0    0 -0.43168904166E+03 -0.31392818698E+03 -0.62984296201E+03  0.83056810765E+03  0.90746291259E+02 0.  0.
          1    1    3    3  502    0  0.73889262850E+01  0.31358968597E+03  0.42109679921E+03  0.52508628023E+03  0.00000000000E+00 0. -1.
         -2    1    3    3    0  502  0.14046584396E+02  0.14005087794E+03  0.11200197451E+03  0.17987772858E+03  0.00000000000E+00 0.  1.
         13    1    5    5    0    0  0.28762405130E+03 -0.80246328055E+02 -0.20472830271E+03  0.36205075057E+03  0.00000000000E+00 0. -1.
        -13    1    5    5    0    0  0.12262947968E+03 -0.59466048868E+02 -0.31671684243E+02  0.13991889021E+03  0.00000000000E+00 0.  1.
          3    1    6    6  503    0 -0.41770275148E+03 -0.30080885459E+03 -0.57142213690E+03  0.76908049912E+03  0.00000000000E+00 0. -1.
         -3    1    6    6    0  503 -0.13986290179E+02 -0.13119332395E+02 -0.58420825112E+02  0.61487608526E+02  0.00000000000E+00 0.  1.
<mgrwt>
<rscale>  0 0.20100817E+04</rscale>
<asrwt>0</asrwt>
<pdfrwt beam="1">  1        1 0.13110443E+00 0.20100817E+04</pdfrwt>
<pdfrwt beam="2">  1       -2 0.18235738E+00 0.20100817E+04</pdfrwt>
<totfact> 0.28282172E+00</totfact>
</mgrwt>
</event>
<event>
12    5  0.5197392E-008  0.9835648E+03  0.7818608E-02  0.9326757E-01
          1   -1    0    0  501    0  0.00000000000E+00  0.00000000000E+00  0.71916911069E+03  0.71916911069E+03  0.00000000000E+00 0. -1.
         -2   -1    0    0    0  501 -0.00000000000E+00 -0.00000000000E+00 -0.33629075847E+03  0.33629075847E+03  0.00000000000E+00 0.  1.
        -24    2    1    2    0    0 -0.13260707069E+02  0.29649659403E+02  0.29829587080E+02  0.91228591469E+02  0.79861774219E+02 0.  0.
        254    2    1    2    0    0  0.13260707069E+02 -0.29649659403E+02  0.35304876515E+03  0.96423127769E+03  0.89668477050E+03 0.  0.
         23    2    4    4    0    0 -0.59810277240E+02  0.41536182315E+03  0.23361772148E+03  0.48889274089E+03  0.91302567928E+02 0.  0.
         23    2    4    4    0    0  0.73070984309E+02 -0.44501148255E+03  0.11943104366E+03  0.47533853680E+03  0.91150216807E+02 0.  0.
          3    1    3    3  502    0  0.32028648693E+01 -0.17533487721E+01  0.50202687158E+02  0.50335299474E+02  0.00000000000E+00 0. -1.
         -4    1    3    3    0  502 -0.16463571938E+02  0.31403008175E+02 -0.20373100078E+02  0.40893291995E+02  0.00000000000E+00 0.  1.
         13    1    5    5    0    0 -0.46750973709E+02  0.71990677918E+02  0.47659305270E+02  0.98182078959E+02  0.00000000000E+00 0. -1.
        -13    1    5    5    0    0 -0.13059303531E+02  0.34337114523E+03  0.18595841621E+03  0.39071066193E+03  0.00000000000E+00 0.  1.
          4    1    6    6  503    0 -0.91520720948E+01 -0.18171862380E+03  0.70868948730E+02  0.19526347983E+03  0.00000000000E+00 0. -1.
         -4    1    6    6    0  503  0.82223056404E+02 -0.26329285875E+03  0.48562094934E+02  0.28007505697E+03  0.00000000000E+00 0.  1.
<mgrwt>
<rscale>  0 0.98356479E+03</rscale>
<asrwt>0</asrwt>
<pdfrwt beam="1">  1        1 0.11064140E+00 0.98356479E+03</pdfrwt>
<pdfrwt beam="2">  1       -2 0.51737040E-01 0.98356479E+03</pdfrwt>
<totfact> 0.81087799E+01</totfact>
</mgrwt>
</event>
<event>
12    5  0.5197392E-008  0.2761897E+04  0.7818608E-02  0.8315196E-01
          1   -1    0    0  501    0  0.00000000000E+00  0.00000000000E+00  0.25657718092E+04  0.25657718092E+04  0.00000000000E+00 0. -1.
         -2   -1    0    0    0  501 -0.00000000000E+00 -0.00000000000E+00 -0.74325370616E+03  0.74325370616E+03  0.00000000000E+00 0.  1.
        -24    2    1    2    0    0 -0.65425586514E+03  0.10269510419E+04  0.10679831927E+04  0.16218129528E+04  0.83725590848E+02 0.  0.
        254    2    1    2    0    0  0.65425586514E+03 -0.10269510419E+04  0.75453491034E+03  0.16872125625E+04  0.89145057112E+03 0.  0.
         23    2    4    4    0    0  0.53705525288E+03 -0.91370976194E+03  0.17482604154E+03  0.10778920495E+04  0.89404988376E+02 0.  0.
         23    2    4    4    0    0  0.11720061226E+03 -0.11324127993E+03  0.57970886880E+03  0.60932051299E+03  0.93002924599E+02 0.  0.
          1    1    3    3  502    0 -0.65385430601E+03  0.10187483708E+04  0.10516877493E+04  0.16035650341E+04  0.00000000000E+00 0. -1.
         -4    1    3    3    0  502 -0.40155913531E+00  0.82026710419E+01  0.16295443406E+02  0.18247918724E+02  0.00000000000E+00 0.  1.
         13    1    5    5    0    0  0.30314194231E+03 -0.43425741507E+03  0.10444963692E+03  0.53980020969E+03  0.00000000000E+00 0. -1.
        -13    1    5    5    0    0  0.23391331057E+03 -0.47945234688E+03  0.70376404616E+02  0.53809183985E+03  0.00000000000E+00 0.  1.
          1    1    6    6  503    0  0.25108226205E+02 -0.71845198621E+02  0.35351449855E+03  0.36161396028E+03  0.00000000000E+00 0. -1.
         -1    1    6    6    0  503  0.92092386060E+02 -0.41396081305E+02  0.22619437026E+03  0.24770655271E+03  0.00000000000E+00 0.  1.
<mgrwt>
<rscale>  0 0.27618975E+04</rscale>
<asrwt>0</asrwt>
<pdfrwt beam="1">  1        1 0.39473412E+00 0.27618975E+04</pdfrwt>
<pdfrwt beam="2">  1       -2 0.11434673E+00 0.27618975E+04</pdfrwt>
<totfact> 0.55666908E-01</totfact>
</mgrwt>
</event>
<event>
12    5  0.5197392E-008  0.1268340E+04  0.7818608E-02  0.9055055E-01
          1   -1    0    0  501    0  0.00000000000E+00  0.00000000000E+00  0.36559896402E+03  0.36559896402E+03  0.00000000000E+00 0. -1.
         -4   -1    0    0    0  501 -0.00000000000E+00 -0.00000000000E+00 -0.11000352928E+04  0.11000352928E+04  0.00000000000E+00 0.  1.
        -24    2    1    2    0    0 -0.16137093702E+03  0.12738174386E+03 -0.41749940863E+03  0.47136379943E+03  0.74909193202E+02 0.  0.
        254    2    1    2    0    0  0.16137093702E+03 -0.12738174386E+03 -0.31693692015E+03  0.99427045738E+03  0.91970541104E+03 0.  0.
         23    2    4    4    0    0  0.35111100357E+03  0.12504089726E+03 -0.49040830094E+03  0.62252009530E+03  0.90093310581E+02 0.  0.
         23    2    4    4    0    0 -0.18974006655E+03 -0.25242264111E+03  0.17347138079E+03  0.37175036208E+03  0.91583454592E+02 0.  0.
          1    1    3    3  502    0 -0.12145652488E+01  0.12918586366E+02 -0.76746206353E+02  0.77835372628E+02  0.00000000000E+00 0. -1.
         -2    1    3    3    0  502 -0.16015637177E+03  0.11446315749E+03 -0.34075320228E+03  0.39352842680E+03  0.00000000000E+00 0.  1.
         13    1    5    5    0    0  0.15081393773E+03  0.54400311486E+02 -0.14039502597E+03  0.21310795626E+03  0.00000000000E+00 0. -1.
        -13    1    5    5    0    0  0.20029706583E+03  0.70640585769E+02 -0.35001327497E+03  0.40941213904E+03  0.00000000000E+00 0.  1.
          3    1    6    6  503    0 -0.50319039786E+02 -0.95272284402E+02  0.15394811358E+02  0.10883847737E+03  0.00000000000E+00 0. -1.
         -3    1    6    6    0  503 -0.13942102676E+03 -0.15715035671E+03  0.15807656943E+03  0.26291188471E+03  0.00000000000E+00 0.  1.
<mgrwt>
<rscale>  0 0.12683403E+04</rscale>
<asrwt>0</asrwt>
<pdfrwt beam="1">  1        1 0.56245995E-01 0.12683403E+04</pdfrwt>
<pdfrwt beam="2">  1       -4 0.16923620E+00 0.12683403E+04</pdfrwt>
<totfact> 0.67917182E+00</totfact>
</mgrwt>
</event>
<event>
12    5  0.5197392E-008  0.1736190E+04  0.7818608E-02  0.8740989E-01
         -2   -1    0    0    0  501 -0.00000000000E+00  0.00000000000E+00  0.44255546122E+03  0.44255546122E+03  0.00000000000E+00 0.  1.
          1   -1    0    0  501    0  0.00000000000E+00 -0.00000000000E+00 -0.17028128332E+04  0.17028128332E+04  0.00000000000E+00 0. -1.
        -24    2    1    2    0    0 -0.52071075231E+03 -0.17816505366E+03 -0.89930166976E+02  0.56364257515E+03  0.81994168506E+02 0.  0.
        254    2    1    2    0    0  0.52071075231E+03  0.17816505366E+03 -0.11703272050E+04  0.15817257193E+04  0.91066350007E+03 0.  0.
         23    2    4    4    0    0  0.22583654833E+03 -0.36499232844E+03 -0.50488275814E+03  0.66895231668E+03  0.91482545491E+02 0.  0.
         23    2    4    4    0    0  0.29487420398E+03  0.54315738210E+03 -0.66544444690E+03  0.91277340264E+03  0.91478056122E+02 0.  0.
          3    1    3    3  502    0 -0.50587562311E+01  0.60368334894E+01  0.26422313878E+01  0.83075724428E+01  0.00000000000E+00 0. -1.
         -4    1    3    3    0  502 -0.51565199608E+03 -0.18420188715E+03 -0.92572398363E+02  0.55533500271E+03  0.00000000000E+00 0.  1.
         13    1    5    5    0    0  0.13169662018E+03 -0.13267416038E+03 -0.19098157914E+03  0.26724594697E+03  0.00000000000E+00 0. -1.
        -13    1    5    5    0    0  0.94139928153E+02 -0.23231816806E+03 -0.31390117900E+03  0.40170636971E+03  0.00000000000E+00 0.  1.
          2    1    6    6  503    0  0.51442829625E+01  0.55143429170E+02 -0.80873499809E+02  0.98019306257E+02  0.00000000000E+00 0. -1.
         -2    1    6    6    0  503  0.28972992102E+03  0.48801395293E+03 -0.58457094709E+03  0.81475409638E+03  0.00000000000E+00 0.  1.
<mgrwt>
<rscale>  0 0.17361902E+04</rscale>
<asrwt>0</asrwt>
<pdfrwt beam="1">  1        1 0.26197120E+00 0.17361902E+04</pdfrwt>
<pdfrwt beam="2">  1       -2 0.68085456E-01 0.17361902E+04</pdfrwt>
<totfact> 0.78031090E+00</totfact>
</mgrwt>
</event>
<event>
12    5  0.5197392E-008  0.1541246E+04  0.7818608E-02  0.8857479E-01
         -2   -1    0    0    0  501 -0.00000000000E+00  0.00000000000E+00  0.21313701605E+03  0.21313701605E+03  0.00000000000E+00 0.  1.
          1   -1    0    0  501    0  0.00000000000E+00 -0.00000000000E+00 -0.27862829606E+04  0.27862829606E+04  0.00000000000E+00 0. -1.
        -24    2    1    2    0    0  0.30076230479E+03 -0.16235816459E+03 -0.13331542037E+03  0.37522405245E+03  0.78752464299E+02 0.  0.
        254    2    1    2    0    0 -0.30076230479E+03  0.16235816459E+03 -0.24398305241E+04  0.26241959242E+04  0.90377714304E+03 0.  0.
         23    2    4    4    0    0  0.16929722750E+03 -0.21614418964E+03 -0.12904591899E+04  0.13229763323E+04  0.97987719059E+02 0.  0.
         23    2    4    4    0    0 -0.47005953229E+03  0.37850235423E+03 -0.11493713343E+04  0.13012195919E+04  0.88870502487E+02 0.  0.
          3    1    3    3  502    0  0.16397724741E+02  0.88757991926E+01 -0.46260613234E+01  0.19211080953E+02  0.00000000000E+00 0. -1.
         -4    1    3    3    0  502  0.28436458005E+03 -0.17123396378E+03 -0.12868935904E+03  0.35601297149E+03  0.00000000000E+00 0.  1.
         13    1    5    5    0    0  0.15225945349E+03 -0.19546388287E+03 -0.96089507002E+03  0.99232474840E+03  0.00000000000E+00 0.  1.
        -13    1    5    5    0    0  0.17037774016E+02 -0.20680306763E+02 -0.32956411987E+03  0.33065158390E+03  0.00000000000E+00 0. -1.
          3    1    6    6  503    0 -0.32271044497E+02  0.49954212305E+02 -0.15730032611E+03  0.16816728646E+03  0.00000000000E+00 0. -1.
         -3    1    6    6    0  503 -0.43778848780E+03  0.32854814192E+03 -0.99207100814E+03  0.11330523054E+04  0.00000000000E+00 0.  1.
<mgrwt>
<rscale>  0 0.15412463E+04</rscale>
<asrwt>0</asrwt>
<pdfrwt beam="1">  1        1 0.42865892E+00 0.15412463E+04</pdfrwt>
<pdfrwt beam="2">  1       -2 0.32790310E-01 0.15412463E+04</pdfrwt>
<totfact> 0.62853850E+00</totfact>
</mgrwt>
</event>
<event>
12    5  0.5197392E-008  0.1921203E+04  0.7818608E-02  0.8644374E-01
          1   -1    0    0  501    0  0.00000000000E+00  0.00000000000E+00  0.14155418082E+04  0.14155418082E+04  0.00000000000E+00 0. -1.
         -4   -1    0    0    0  501 -0.00000000000E+00 -0.00000000000E+00 -0.65187397330E+03  0.65187397330E+03  0.00000000000E+00 0.  1.
        -24    2    1    2    0    0  0.74349298574E+03 -0.70342550795E+02  0.33178597361E+03  0.82108479058E+03  0.79802297944E+02 0.  0.
        254    2    1    2    0    0 -0.74349298574E+03  0.70342550795E+02  0.43188186133E+03  0.12463309909E+04  0.89949380351E+03 0.  0.
         23    2    4    4    0    0  0.65015651192E+02 -0.17434232592E+03  0.33161924811E+03  0.39114482115E+03  0.91655135646E+02 0.  0.
         23    2    4    4    0    0 -0.80850863693E+03  0.24468487672E+03  0.10026261322E+03  0.85518616979E+03  0.87942529597E+02 0.  0.
          3    1    3    3  502    0  0.60263348340E+03 -0.34755300067E+02  0.29140233856E+03  0.67029125693E+03  0.00000000000E+00 0. -1.
         -4    1    3    3    0  502  0.14085950233E+03 -0.35587250727E+02  0.40383635042E+02  0.15079353365E+03  0.00000000000E+00 0.  1.
         13    1    5    5    0    0  0.46622026327E+02 -0.17753264797E+03  0.32071253787E+03  0.36952399974E+03  0.00000000000E+00 0. -1.
        -13    1    5    5    0    0  0.18393624865E+02  0.31903220479E+01  0.10906710236E+02  0.21620821414E+02  0.00000000000E+00 0.  1.
          2    1    6    6  503    0 -0.58613079089E+03  0.20895232146E+03  0.98084981371E+02  0.62994526765E+03  0.00000000000E+00 0. -1.
         -2    1    6    6    0  503 -0.22237784604E+03  0.35732555256E+02  0.21776318475E+01  0.22524090214E+03  0.00000000000E+00 0.  1.
<mgrwt>
<rscale>  0 0.19212026E+04</rscale>
<asrwt>0</asrwt>
<pdfrwt beam="1">  1        1 0.21777566E+00 0.19212026E+04</pdfrwt>
<pdfrwt beam="2">  1       -4 0.10028830E+00 0.19212026E+04</pdfrwt>
<totfact> 0.28055924E+00</totfact>
</mgrwt>
</event>
<event>
12    5  0.5197392E-008  0.1480785E+04  0.7818608E-02  0.8897332E-01
         -2   -1    0    0    0  501 -0.00000000000E+00  0.00000000000E+00  0.48372268009E+03  0.48372268009E+03  0.00000000000E+00 0.  1.
          1   -1    0    0  501    0  0.00000000000E+00 -0.00000000000E+00 -0.11332543612E+04  0.11332543612E+04  0.00000000000E+00 0. -1.
        -24    2    1    2    0    0 -0.11267349448E+03  0.44372942241E+03 -0.21625155826E+03  0.51231805500E+03  0.78191664264E+02 0.  0.
        254    2    1    2    0    0  0.11267349448E+03 -0.44372942241E+03 -0.43328012285E+03  0.11046589863E+04  0.90716519691E+03 0.  0.
         23    2    4    4    0    0  0.23639998298E+03 -0.65802826902E+03 -0.45810799912E+03  0.84066634007E+03  0.89279346400E+02 0.  0.
         23    2    4    4    0    0 -0.12372648850E+03  0.21429884661E+03  0.24827876269E+02  0.26399264622E+03  0.88563277958E+02 0.  0.
          1    1    3    3  502    0 -0.50061752601E+02  0.18371179198E+03 -0.13281617822E+03  0.23215585021E+03  0.00000000000E+00 0. -1.
         -2    1    3    3    0  502 -0.62611741875E+02  0.26001763042E+03 -0.83435380033E+02  0.28016220479E+03  0.00000000000E+00 0.  1.
         13    1    5    5    0    0  0.22712160314E+03 -0.61981853393E+03 -0.40454207330E+03  0.77421800979E+03  0.00000000000E+00 0. -1.
        -13    1    5    5    0    0  0.92783798458E+01 -0.38209735085E+02 -0.53565925827E+02  0.66448330284E+02  0.00000000000E+00 0.  1.
          2    1    6    6  503    0 -0.72164755938E+02  0.81899189384E+02 -0.27516995757E+02  0.11257181831E+03  0.00000000000E+00 0. -1.
         -2    1    6    6    0  503 -0.51561732567E+02  0.13239965723E+03  0.52344872026E+02  0.15142082792E+03  0.00000000000E+00 0.  1.
<mgrwt>
<rscale>  0 0.14807847E+04</rscale>
<asrwt>0</asrwt>
<pdfrwt beam="1">  1        1 0.17434682E+00 0.14807847E+04</pdfrwt>
<pdfrwt beam="2">  1       -2 0.74418875E-01 0.14807847E+04</pdfrwt>
<totfact> 0.16523906E+01</totfact>
</mgrwt>
</event>
<event>
12    5  0.5197392E-008  0.1807129E+04  0.7818608E-02  0.8702518E-01
          1   -1    0    0  501    0  0.00000000000E+00  0.00000000000E+00  0.75839683770E+03  0.75839683770E+03  0.00000000000E+00 0. -1.
         -2   -1    0    0    0  501 -0.00000000000E+00 -0.00000000000E+00 -0.10765190790E+04  0.10765190790E+04  0.00000000000E+00 0.  1.
        -24    2    1    2    0    0 -0.38885927447E+02  0.50739048917E+03 -0.55867178361E+03  0.76007575938E+03  0.81509351326E+02 0.  0.
        254    2    1    2    0    0  0.38885927447E+02 -0.50739048917E+03  0.24054954231E+03  0.10748401573E+04  0.91567464616E+03 0.  0.
         23    2    4    4    0    0  0.24720281331E+03 -0.67670142429E+03  0.39501752156E+02  0.72717135139E+03  0.90464011167E+02 0.  0.
         23    2    4    4    0    0 -0.20831688586E+03  0.16931093513E+03  0.20104779015E+03  0.34766880592E+03  0.91603859095E+02 0.  0.
          3    1    3    3  502    0  0.60471546009E+01  0.50875794924E+02 -0.27164598320E+02  0.57989912828E+02  0.00000000000E+00 0. -1.
         -4    1    3    3    0  502 -0.44933082048E+02  0.45651469424E+03 -0.53150718529E+03  0.70208584656E+03  0.00000000000E+00 0.  1.
         13    1    5    5    0    0  0.17383165560E+03 -0.55303126122E+03  0.70152114134E+01  0.57975014753E+03  0.00000000000E+00 0.  1.
        -13    1    5    5    0    0  0.73371157707E+02 -0.12367016308E+03  0.32486540743E+02  0.14742120386E+03  0.00000000000E+00 0. -1.
          4    1    6    6  503    0 -0.45901323427E+02  0.20945540759E+02  0.12060350907E+01  0.50468818994E+02  0.00000000000E+00 0. -1.
         -4    1    6    6    0  503 -0.16241556243E+03  0.14836539437E+03  0.19984175506E+03  0.29719998693E+03  0.00000000000E+00 0.  1.
<mgrwt>
<rscale>  0 0.18071288E+04</rscale>
<asrwt>0</asrwt>
<pdfrwt beam="1">  1        1 0.11667644E+00 0.18071288E+04</pdfrwt>
<pdfrwt beam="2">  1       -2 0.16561832E+00 0.18071288E+04</pdfrwt>
<totfact> 0.45532750E+00</totfact>
</mgrwt>
</event>
<event>
12    5  0.5197392E-008  0.1612331E+04  0.7818608E-02  0.8813008E-01
         -2   -1    0    0    0  501 -0.00000000000E+00  0.00000000000E+00  0.33405734780E+03  0.33405734780E+03  0.00000000000E+00 0.  1.
          1   -1    0    0  501    0  0.00000000000E+00 -0.00000000000E+00 -0.19454820717E+04  0.19454820717E+04  0.00000000000E+00 0. -1.
        -24    2    1    2    0    0 -0.16120981824E+02 -0.30072988553E+03 -0.12019150831E+04  0.12414944284E+04  0.77525471936E+02 0.  0.
        254    2    1    2    0    0  0.16120981824E+02  0.30072988553E+03 -0.40950964079E+03  0.10380449910E+04  0.90506403498E+03 0.  0.
         23    2    4    4    0    0 -0.83715334185E+02 -0.43614505156E+02 -0.60385705152E+03  0.61853878551E+03  0.95060024561E+02 0.  0.
         23    2    4    4    0    0  0.99836316009E+02  0.34434439069E+03  0.19434741073E+03  0.41950620553E+03  0.98357465512E+02 0.  0.
          3    1    3    3  502    0 -0.28148222399E+02 -0.22784693221E+03 -0.10121193613E+04  0.10378305008E+04  0.00000000000E+00 0. -1.
         -4    1    3    3    0  502  0.12027240574E+02 -0.72882953326E+02 -0.18979572177E+03  0.20366392760E+03  0.00000000000E+00 0.  1.
         13    1    5    5    0    0 -0.38535022540E+02 -0.21519477576E+02 -0.73006509149E+02  0.85311114490E+02  0.00000000000E+00 0. -1.
        -13    1    5    5    0    0 -0.45180311645E+02 -0.22095027580E+02 -0.53085054238E+03  0.53322767102E+03  0.00000000000E+00 0.  1.
          2    1    6    6  503    0  0.66019436236E+02  0.21770538790E+03  0.17498245123E+03  0.28700707329E+03  0.00000000000E+00 0.  1.
         -2    1    6    6    0  503  0.33816879774E+02  0.12663900280E+03  0.19364959500E+02  0.13249913224E+03  0.00000000000E+00 0. -1.
<mgrwt>
<rscale>  0 0.16123307E+04</rscale>
<asrwt>0</asrwt>
<pdfrwt beam="1">  1        1 0.29930493E+00 0.16123307E+04</pdfrwt>
<pdfrwt beam="2">  1       -2 0.51393439E-01 0.16123307E+04</pdfrwt>
<totfact> 0.97712307E+00</totfact>
</mgrwt>
</event>
<event>
12    5  0.5197392E-008  0.2106501E+04  0.7818608E-02  0.8558385E-01
          1   -1    0    0  501    0  0.00000000000E+00  0.00000000000E+00  0.20324614149E+04  0.20324614149E+04  0.00000000000E+00 0. -1.
         -2   -1    0    0    0  501 -0.00000000000E+00 -0.00000000000E+00 -0.54580944172E+03  0.54580944172E+03  0.00000000000E+00 0.  1.
        -24    2    1    2    0    0 -0.38011787852E+03 -0.55756065933E+03 -0.43951796317E+02  0.68159503117E+03  0.85302612534E+02 0.  0.
        254    2    1    2    0    0  0.38011787852E+03  0.55756065933E+03  0.15306037695E+04  0.18966758254E+04  0.89401778351E+03 0.  0.
         23    2    4    4    0    0  0.10884061642E+03 -0.19514955041E+03  0.11306421865E+03  0.26624420354E+03  0.90403714381E+02 0.  0.
         23    2    4    4    0    0  0.27127726210E+03  0.75271020974E+03  0.14175395508E+04  0.16304316219E+04  0.93407080754E+02 0.  0.
          3    1    3    3  502    0 -0.72981715961E+02 -0.67331635365E+02  0.13684139254E+02  0.10023540119E+03  0.00000000000E+00 0. -1.
         -4    1    3    3    0  502 -0.30713616256E+03 -0.49022902397E+03 -0.57635935571E+02  0.58135962997E+03  0.00000000000E+00 0.  1.
         13    1    5    5    0    0  0.50542565980E+02 -0.10773083355E+03  0.10581290011E+02  0.11946734772E+03  0.00000000000E+00 0. -1.
        -13    1    5    5    0    0  0.58298050441E+02 -0.87418716853E+02  0.10248292864E+03  0.14677685582E+03  0.00000000000E+00 0.  1.
          1    1    6    6  503    0  0.11650558494E+03  0.36602498352E+03  0.77022425247E+03  0.86069346400E+03  0.00000000000E+00 0. -1.
         -1    1    6    6    0  503  0.15477167716E+03  0.38668522621E+03  0.64731529834E+03  0.76973815787E+03  0.00000000000E+00 0.  1.
<mgrwt>
<rscale>  0 0.21065010E+04</rscale>
<asrwt>0</asrwt>
<pdfrwt beam="1">  1        1 0.31268637E+00 0.21065010E+04</pdfrwt>
<pdfrwt beam="2">  1       -2 0.83970684E-01 0.21065010E+04</pdfrwt>
<totfact> 0.28328017E+00</totfact>
</mgrwt>
</event>
<event>
12    5  0.5197392E-008  0.1335992E+04  0.7818608E-02  0.9001500E-01
         -2   -1    0    0    0  501 -0.00000000000E+00  0.00000000000E+00  0.14135262503E+03  0.14135262503E+03  0.00000000000E+00 0.  1.
          1   -1    0    0  501    0  0.00000000000E+00 -0.00000000000E+00 -0.31567770780E+04  0.31567770780E+04  0.00000000000E+00 0. -1.
        -24    2    1    2    0    0 -0.26251477082E+03  0.45548121724E+02 -0.14725286810E+04  0.14986949071E+04  0.82201411746E+02 0.  0.
        254    2    1    2    0    0  0.26251477082E+03 -0.45548121724E+02 -0.15428957720E+04  0.17994347959E+04  0.88681992824E+03 0.  0.
         23    2    4    4    0    0 -0.28910224658E+03 -0.41785125986E+02 -0.26579591738E+03  0.40541766767E+03  0.91596450971E+02 0.  0.
         23    2    4    4    0    0  0.55161701740E+03 -0.37629957377E+01 -0.12770998546E+04  0.13940171282E+04  0.89466312582E+02 0.  0.
          3    1    3    3  502    0 -0.21783791875E+03  0.73140448858E+01 -0.12281564917E+04  0.12473472741E+04  0.00000000000E+00 0. -1.
         -4    1    3    3    0  502 -0.44676852068E+02  0.38234076838E+02 -0.24437218926E+03  0.25134763303E+03  0.00000000000E+00 0.  1.
         13    1    5    5    0    0  0.10442541274E+01 -0.13155965460E+02 -0.20595864397E+02  0.24461388434E+02  0.00000000000E+00 0. -1.
        -13    1    5    5    0    0 -0.29014650071E+03 -0.28629160527E+02 -0.24520005299E+03  0.38095627924E+03  0.00000000000E+00 0.  1.
          1    1    6    6  503    0  0.13907284750E+03  0.35505460027E+02 -0.36403023947E+03  0.39130539206E+03  0.00000000000E+00 0. -1.
         -1    1    6    6    0  503  0.41254416991E+03 -0.39268455764E+02 -0.91306961513E+03  0.10027117361E+04  0.00000000000E+00 0.  1.
<mgrwt>
<rscale>  0 0.13359921E+04</rscale>
<asrwt>0</asrwt>
<pdfrwt beam="1">  1        1 0.48565801E+00 0.13359921E+04</pdfrwt>
<pdfrwt beam="2">  1       -2 0.21746558E-01 0.13359921E+04</pdfrwt>
<totfact> 0.73448891E+00</totfact>
</mgrwt>
</event>
<event>
12    5  0.5197392E-008  0.2693478E+04  0.7818608E-02  0.8337124E-01
          1   -1    0    0  501    0  0.00000000000E+00  0.00000000000E+00  0.89694178955E+03  0.89694178955E+03  0.00000000000E+00 0. -1.
         -2   -1    0    0    0  501 -0.00000000000E+00 -0.00000000000E+00 -0.20220996873E+04  0.20220996873E+04  0.00000000000E+00 0.  1.
        -24    2    1    2    0    0  0.29079202471E+03 -0.37090829177E+03 -0.16971254827E+04  0.17630707834E+04  0.77786377964E+02 0.  0.
        254    2    1    2    0    0 -0.29079202471E+03  0.37090829177E+03  0.57196758493E+03  0.11559706935E+04  0.88712364609E+03 0.  0.
         23    2    4    4    0    0 -0.80035287676E+02 -0.28492201831E+03  0.17213393985E+03  0.35439624903E+03  0.91544548090E+02 0.  0.
         23    2    4    4    0    0 -0.21075673704E+03  0.65583031008E+03  0.39983364508E+03  0.80157444446E+03  0.90126846482E+02 0.  0.
          1    1    3    3  502    0  0.13633910152E+03 -0.13652829766E+03 -0.80652592866E+03  0.82928426988E+03  0.00000000000E+00 0. -1.
         -2    1    3    3    0  502  0.15445292319E+03 -0.23437999410E+03 -0.89059955405E+03  0.93378651350E+03  0.00000000000E+00 0.  1.
         13    1    5    5    0    0 -0.96196503621E+02 -0.26640529686E+03  0.14650651196E+03  0.31888823678E+03  0.00000000000E+00 0. -1.
        -13    1    5    5    0    0  0.16161215945E+02 -0.18516721446E+02  0.25627427888E+02  0.35508012252E+02  0.00000000000E+00 0.  1.
          4    1    6    6  503    0 -0.19023774949E+03  0.46748191608E+03  0.27618095630E+03  0.57533091680E+03  0.00000000000E+00 0.  1.
         -4    1    6    6    0  503 -0.20518987547E+02  0.18834839399E+03  0.12365268878E+03  0.22624352767E+03  0.00000000000E+00 0. -1.
<mgrwt>
<rscale>  0 0.26934778E+04</rscale>
<asrwt>0</asrwt>
<pdfrwt beam="1">  1        1 0.13799104E+00 0.26934778E+04</pdfrwt>
<pdfrwt beam="2">  1       -2 0.31109226E+00 0.26934778E+04</pdfrwt>
<totfact> 0.38109342E-01</totfact>
</mgrwt>
</event>
<event>
12    5  0.5197392E-008  0.1700280E+04  0.7818608E-02  0.8761205E-01
          1   -1    0    0  501    0  0.00000000000E+00  0.00000000000E+00  0.45843737573E+03  0.45843737573E+03  0.00000000000E+00 0. -1.
         -2   -1    0    0    0  501 -0.00000000000E+00 -0.00000000000E+00 -0.15765256112E+04  0.15765256112E+04  0.00000000000E+00 0.  1.
        -24    2    1    2    0    0 -0.13605342626E+03 -0.58943578248E+02  0.30035780414E+03  0.34434621651E+03  0.79841255644E+02 0.  0.
        254    2    1    2    0    0  0.13605342626E+03  0.58943578248E+02 -0.14184460396E+04  0.16906167705E+04  0.90786068148E+03 0.  0.
         23    2    4    4    0    0 -0.23305012961E+03  0.34483750950E+03 -0.84087080934E+03  0.94268161293E+03  0.91431036718E+02 0.  0.
         23    2    4    4    0    0  0.36910355587E+03 -0.28589393125E+03 -0.57757523031E+03  0.74793515754E+03  0.88549863582E+02 0.  0.
          1    1    3    3  502    0 -0.13967016328E+03 -0.35785678305E+02  0.24579908261E+03  0.28496588971E+03  0.00000000000E+00 0. -1.
         -2    1    3    3    0  502  0.36167370228E+01 -0.23157899943E+02  0.54558721529E+02  0.59380326804E+02  0.00000000000E+00 0.  1.
         13    1    5    5    0    0 -0.10276069893E+03  0.91567514816E+02 -0.21853175022E+03  0.25826439334E+03  0.00000000000E+00 0. -1.
        -13    1    5    5    0    0 -0.13028943068E+03  0.25326999468E+03 -0.62233905913E+03  0.68441721959E+03  0.00000000000E+00 0.  1.
          2    1    6    6  503    0  0.30848015840E+03 -0.20488304279E+03 -0.48943952730E+03  0.61374923237E+03  0.00000000000E+00 0.  1.
         -2    1    6    6    0  503  0.60623397475E+02 -0.81010888459E+02 -0.88135703005E+02  0.13418592517E+03  0.00000000000E+00 0. -1.
<mgrwt>
<rscale>  0 0.17002803E+04</rscale>
<asrwt>0</asrwt>
<pdfrwt beam="1">  1        1 0.70528827E-01 0.17002803E+04</pdfrwt>
<pdfrwt beam="2">  1       -2 0.24254240E+00 0.17002803E+04</pdfrwt>
<totfact> 0.29684473E+00</totfact>
</mgrwt>
</event>
